QMMM reactant CHA#2 frame 50892
 55680
  17.5551929  40.8305588  42.8761749  17.1724854  41.6387711  42.4066734
  16.8107071  40.2347603  43.2091446  18.1013451  41.1018143  43.6813049
  18.3003330  40.0689964  41.7861595  17.8498859  40.4021835  40.8511810
  19.7362232  40.7009964  41.5941429  19.6742535  41.7691345  41.8023338
  20.4652786  40.2691803  42.2797928  20.0468082  40.5982170  40.0965919
  20.0129929  39.5331688  39.8671799  19.4575272  41.2291832  39.4312134
  21.7724743  41.0066261  39.6784706  21.8229179  40.3465843  37.9162788
  22.3626060  39.4015083  37.8557281  20.7955818  40.4192657  37.5593491
  22.3408432  41.1020393  37.3253899  18.1946449  38.5431366  41.9435158
  18.7369041  38.0449677  42.9357414  17.4538651  37.8695526  41.0618172
  17.0842552  38.3181801  40.2358513  17.2830830  36.4277115  40.9973068
  16.8711128  36.1215057  41.9588814  16.1978703  35.9727135  39.9804573
  15.3039236  36.5870018  40.0881996  16.6631927  36.1616478  39.0130501
  15.7930441  34.5005074  40.0604172  16.4493370  33.9761086  39.3658791
  14.7713394  34.4836578  39.6810303  15.7234325  33.6161194  41.6282845
  14.7747841  32.1012650  41.2017250  14.4897242  31.4685230  42.0422554
  15.4258385  31.6700592  40.4412727  13.8918982  32.3317680  40.6055031
  18.6246376  35.7237549  40.6348267  19.4745502  36.3150330  40.0068665
  18.7183781  34.4323235  40.9086494  17.8925743  33.9933510  41.2900314
  19.8345165  33.4990349  40.6219444  20.6110115  33.9922066  40.0371895
  20.4452667  33.0868340  41.9822121  19.6198902  32.7904549  42.6295280
  21.4118195  31.9109287  41.8003578  21.6838455  31.6057148  42.8107758
  20.8224373  31.0551243  41.4712219  22.1488400  32.2384033  41.0671082
  21.3096752  34.0785522  42.7563095  21.8696213  33.6009521  43.5603333
  21.9389553  34.5648308  42.0108948  20.6065655  35.2022133  43.5093231
  19.6460457  34.8241158  43.8593864  21.2441483  35.4295769  44.3636627
  20.6101761  36.0707970  42.8507996  19.1900539  32.3663445  39.7992287
  18.0784035  31.9583549  40.0951080  19.9501553  31.9213505  38.7996635
  20.7884789  32.4725533  38.6835251  19.5796146  30.7157326  37.9511337
  18.8933582  30.1131802  38.5461807  18.8962574  31.2201099  36.6030159
  19.5769176  31.8858929  36.0724220  18.7496433  30.3958988  35.9049606
  17.5725098  31.9008560  36.8176765  17.0211830  31.1529751  37.3876038
  17.6844940  32.8571281  37.3286629  16.8693199  32.2769547  35.5405464
  17.5146980  32.8659248  34.8888550  16.5261288  31.4250221  34.9535751
  15.6753101  33.0227394  35.8819695  14.8959408  32.4588432  36.1897087
  15.6135759  34.2964325  36.0908928  16.5499783  35.0817719  35.5487289
  16.6222687  36.0561905  35.8044281  17.2558899  34.6456985  34.9728584
  14.6407051  34.9549713  36.7224731  13.8448153  34.5049896  37.1516380
  14.6971846  35.9539986  36.8597870  20.8430023  29.9111900  37.5884857
  22.0025978  30.3704281  37.6222572  20.6451435  28.6024437  37.3262024
  19.7090263  28.2540035  37.1766052  21.7216740  27.5716629  37.0923843
  22.5917225  27.7216225  37.7316246  21.2329445  26.5975895  37.0718155
  22.2280350  27.6565514  35.6970215  21.4253387  27.6088181  34.8082619
  23.5349159  27.4820538  35.4759598  24.0783463  27.3224945  36.3122177
  24.2298183  27.6102505  34.1706429  23.4800835  27.5789471  33.3800621
  25.0267029  28.9001350  34.1223717  25.8004093  28.6297817  34.8409729
  25.6187744  29.0440521  32.7052460  26.1580086  28.1323280  32.4481621
  24.8035488  29.1153851  31.9852333  26.2517204  29.9305553  32.6653366
  24.1239338  30.0243244  34.5960007  23.1296253  29.8177528  34.2000504
  24.1390610  30.0389996  35.6857986  24.5038910  31.4189186  34.2602234
  24.2029686  32.0530701  35.0941315  25.5922165  31.4792347  34.2571373
  24.1439762  31.7315903  33.2800179  25.1296883  26.3264885  34.0296211
  25.7369194  25.9298286  34.9778557  25.0967407  25.6490250  32.8270111
  24.5390434  26.0019207  32.0624619  25.6605301  24.2874546  32.5704079
  26.1876163  23.9480534  33.4620895  24.4709301  23.2791214  32.2732544
  24.0637054  23.3907852  31.2683678  24.8759842  22.2676105  32.3028603
  23.3001156  23.3911610  33.2385864  23.7404537  23.8512154  34.1232071
  22.7247753  24.2280712  32.8427773  22.4032001  22.2562923  33.5267792
  22.9394207  21.5016327  34.1021538  21.6154709  22.6281891  34.1819725
  21.7832718  21.7534199  32.2846222  21.3507957  22.3353119  31.5814400
  21.9123173  20.5523491  31.7402878  22.4901447  19.5360279  32.2901917
  22.6135788  19.4635715  33.2899971  22.5566921  18.6539726  31.8026943
  21.3989277  20.2907352  30.5788116  21.7070026  19.3997345  30.2164421
  20.7822056  20.9723396  30.1602802  26.6822624  24.2282867  31.4365311
  26.4028950  24.8453808  30.4121132  27.6251144  23.3159752  31.5081005
  27.9257545  22.7896175  32.3159790  28.2380619  22.8330383  30.2501564
  27.4811554  22.6163330  29.4963474  29.0082073  23.5203609  29.9000626
  28.9937401  21.5045795  30.4144478  29.1297741  20.8926430  31.4752903
  29.4622135  21.0386238  29.2673454  29.2996407  21.4944725  28.3808498
  30.2608891  19.7957611  29.1519852  30.9078903  19.6381035  30.0149078
  29.3004093  18.5636406  29.0863476  29.8872166  17.6539402  29.2136497
  28.3968220  18.5607910  29.6959553  28.8125191  18.5365486  28.1120129
  31.2520962  19.7236042  27.9681454  31.1028671  20.5576324  27.0799255
  32.1668167  18.7561321  28.0071068  32.1611519  18.1104984  28.7837830
  33.2779465  18.6515408  27.0089874  32.8516464  18.8192329  26.0199242
  34.2243271  19.8248806  27.2124138  33.7224007  20.7758579  27.0340538
  35.0152130  19.7621479  28.5563488  35.8805656  20.4127502  28.4299316
  34.3388481  20.0539055  29.3597832  35.4384117  18.7607861  28.6355686
  35.1619759  19.7392998  26.2141762  35.5662994  20.6062489  26.1334209
  34.0090218  17.3152733  27.1482811  33.9313049  16.6599178  28.1996574
  34.7142372  16.8577156  26.1230583  34.9661255  17.4673939  25.3582401
  35.5060387  15.5817013  26.1157990  35.4906158  15.0164337  27.0476437
  35.0050888  14.5576868  25.0802231  35.6482887  13.6784105  25.0445423
  33.6274033  14.0463572  25.3171749  33.1161041  13.7933550  24.3883781
  33.6879997  13.1959209  25.9962845  33.0956573  14.8879585  25.7610836
  35.1710625  15.1996746  23.8272228  36.0799026  15.0632944  23.5497169
  37.0279503  15.7642288  25.8205109  37.4842033  16.8044949  25.3584194
  37.7594109  14.6927299  26.1719723  37.2193184  13.8941278  26.4730301
  39.2164192  14.4504032  25.9166489  39.6428833  15.2092180  25.2605762
  39.9999466  14.4796114  27.2845516  41.0542068  14.3340235  27.0490932
  39.9545555  15.8230743  28.0002289  40.2473373  16.5763588  27.2688351
  38.9299126  16.0134888  28.3195248  40.5499229  15.8620539  28.9124336
  39.5641861  13.3962717  28.2540665  39.6250114  12.4924231  27.6478767
  40.1192856  13.3473511  29.1908550  38.5021706  13.5505514  28.4448948
  39.4601936  13.0906248  25.2693634  38.6025314  12.2219057  25.2715206
  40.5612068  12.8342915  24.6575050  41.3561096  13.4555597  24.7049770
  40.8779030  11.5839930  24.0070152  39.9228630  11.0956936  23.8132076
  41.6801414  11.8037968  22.6857128  42.5884171  12.3807878  22.8595524
  41.9996109  10.8193197  22.3438873  40.7818146  12.5167665  21.6182327
  40.7055588  13.5222321  22.0321445  41.2581596  12.7452793  20.6648293
  39.5041695  11.7861423  21.3953972  39.5314903  10.6654043  20.8520927
  38.4179230  12.3488188  21.6689034  41.7857475  10.6690454  24.8729057
  41.9309196   9.4557972  24.6659107  42.4477043  11.2964907  25.8788395
  42.2866783  12.2905617  25.9562531  43.5409355  10.7299213  26.6977234
  43.4876175   9.6416807  26.7292137  44.8840485  10.9906549  26.0373840
  44.9126511  10.7998438  24.9645958  45.0527420  12.0387230  26.2847729
  46.0306358  10.1455727  26.6805782  46.1318893  10.3311424  27.7498817
  45.8422165   9.1092815  26.4000416  47.3278465  10.5705166  26.0167236
  48.1074867   9.8305206  26.1974640  47.1757774  10.6916933  24.9442062
  47.8076439  11.8631792  26.4451637  47.5343437  12.6886587  25.9313641
  48.6508179  12.0457764  27.4661903  48.9640656  11.1727295  28.3151245
  49.4999542  11.4573164  29.1225510  48.6159592  10.2332888  28.1871681
  49.1140366  13.2317486  27.6770401  49.8168678  13.4045954  28.3814907
  48.9042244  14.0252190  27.0884075  43.4523849  11.2805529  28.1263695
  43.5527229  12.5083113  28.2887974  43.3934288  10.4466734  29.1231213
  43.1887779   9.4675903  28.9830704  43.4302750  10.8690128  30.5726223
  42.6640053  11.6294889  30.7229805  43.3265419   9.5923605  31.4546089
  42.3798027   9.0788565  31.2869949  44.0848923   8.8545437  31.1926250
  43.2927322  10.0091219  32.8767090  42.5358925  11.0030775  33.1950912
  43.8775558   9.2780523  33.7713394  44.7908249  11.5713911  30.8045483
  45.8515549  10.9214430  31.1776161  44.8381996  12.8610344  30.8433113
  43.9495392  13.2332191  30.5402222  45.9962578  13.7282629  31.1978683
  46.4813232  13.1994848  32.0183601  47.0684586  13.9551449  30.1418533
  47.4010887  12.9659796  29.8271980  46.6460152  14.9249897  29.0679302
  47.4643669  15.0968018  28.3687344  45.8063049  14.5388594  28.4901009
  46.4270782  15.9253588  29.4413300  48.2324867  14.4386463  30.7049026
  48.4401932  13.8803568  31.4577446  45.5830917  15.0661201  31.8140182
  44.6209335  15.7097521  31.3676548  46.2890701  15.5174675  32.8986320
  47.0497131  14.9391308  33.2258148  45.6757774  16.6197033  33.6118774
  44.6379814  16.3551426  33.8145752  46.4159775  16.7069073  34.9313774
  45.8370972  17.4279900  35.5084724  46.3488960  15.7628889  35.4721451
  47.9063225  17.0899258  35.0830879  48.0376701  18.1081085  34.7168236
  48.1567993  17.1260567  36.1433029  48.9520569  16.1465893  34.4517365
  48.7124367  14.8899517  34.5148010  49.9337273  16.6466541  33.8858147
  45.7460251  17.9498997  32.8967056  44.8129272  18.7760372  33.0769958
  46.8880920  18.1849442  32.1418686  47.6290627  17.4986038  32.1423531
  47.1116142  19.3587151  31.2198963  47.1101456  20.2674847  31.8217640
  48.4924316  19.3338223  30.6174335  48.5988960  20.3000107  30.1242332
  49.1481972  19.2325287  31.4821949  48.6776657  18.2157955  29.5752029
  48.7544327  17.2851753  30.1374779  47.8163795  18.1487484  28.9105263
  49.9341927  18.3636036  28.7179184  50.2836647  17.4005909  28.0462112
  50.4110947  19.4941387  28.5559216  46.0546761  19.5336208  30.1771927
  45.8518143  20.5846939  29.6890049  45.3478584  18.4589539  29.7927208
  45.5216141  17.6482010  30.3694267  44.2526779  18.5413933  28.8388824
  44.3714447  19.3596439  28.1286278  44.1038437  17.2587261  27.9080067
  44.2336388  16.3656731  28.5193272  43.1163254  17.3149204  27.4500179
  45.1255760  17.2345047  26.8669643  46.0367775  17.2178917  27.4649124
  45.0759163  16.2427864  26.4173775  45.0117722  18.2531052  25.8422966
  43.9350510  18.4997673  25.2633362  46.0055428  18.9546356  25.4993248
  42.8931160  18.8396320  29.4778137  42.1466599  19.6693058  28.9766808
  42.6592865  18.1655560  30.6700802  43.3835602  17.5143757  30.9374619
  41.4122200  18.2523708  31.4537392  40.6280289  18.0480633  30.7247639
  41.4409866  17.0751305  32.4364586  42.3818016  17.1166878  32.9853096
  40.3278389  17.0945339  33.4991531  40.5163383  16.2655239  34.1812973
  40.4113846  17.9979095  34.1033325  39.3639908  17.1350937  32.9917564
  41.2743378  15.7287436  31.6841927  40.2548409  15.5057268  31.3695621
  41.7806282  15.6766472  30.7203178  41.8235207  14.4486990  32.4412880
  41.0738220  14.1442318  33.1716003  42.0763779  13.6882439  31.7024555
  42.7031937  14.7435675  33.0134163  41.3066521  19.6750412  31.9798107
  40.3693352  20.3158703  31.6026478  42.3382683  20.2240486  32.5742798
  43.1681862  19.6638947  32.7068024  42.2735252  21.6031666  33.1158371
  41.4003906  21.6445999  33.7670059  43.5153236  21.8382549  33.9653969
  44.3006821  21.7915592  33.2109909  43.5464478  22.8659153  34.3273964
  43.5520554  20.9108906  35.1420898  44.0591049  19.9594040  34.9818687
  44.4859924  21.5491295  36.1630669  45.3931732  21.7942677  35.6107674
  44.0570717  22.5284309  36.3754463  44.6720734  20.9512634  37.0552711
  42.1831245  20.6846943  35.8018265  41.4819908  20.1044788  35.2019424
  42.2997589  20.1549492  36.7472725  41.7295227  21.6149197  36.1439285
  42.1209908  22.5186729  31.9278564  41.2831955  23.3899937  31.9353065
  42.9174042  22.4464130  30.8635693  43.6693459  21.7721882  30.8530445
  42.6944351  23.2437439  29.6453495  42.7439880  24.2735958  29.9989834
  43.8415222  23.0920506  28.6065998  44.8291206  23.2304134  29.0466022
  43.7341766  22.0949001  28.1796741  43.7263145  24.1176128  27.4859581
  43.2865410  25.0143394  27.9225101  44.6996689  24.4529629  27.1278763
  43.0536003  23.6407013  26.1376266  42.6200447  22.4834538  25.8157425
  42.7849312  24.6145306  25.2942410  43.2766037  25.4876022  25.4211369
  42.3356247  24.3123894  24.4416313  41.3138885  23.1413364  28.9288063
  40.7973976  24.1601009  28.5436611  40.7649498  21.9618359  28.7860317
  41.4362411  21.2197857  28.9232616  39.4351692  21.7815285  28.2181454
  39.3045845  22.2409019  27.2383385  39.0325966  20.2735710  28.1506329
  39.4866486  19.6994114  28.9582691  37.9477730  20.1675472  28.1554279
  39.3327370  19.5973892  26.8379707  38.9744720  18.5688705  26.8814945
  38.5914307  19.8993397  26.0981083  40.7881470  19.6449318  26.3032284
  41.1911163  20.6100864  26.6101341  41.4138641  18.8144875  26.6302586
  40.7586632  19.5498238  24.7845154  40.7060814  18.4948025  24.5156918
  39.8496323  20.0078125  24.3946342  41.9290543  20.1826420  24.2260017
  42.7845612  19.8921337  24.6774540  41.8714790  20.0790176  23.2229805
  41.8987808  21.1811523  24.3748608  38.3064919  22.3727455  29.0871029
  37.4985771  23.1079865  28.5496120  38.3587570  22.1669731  30.3890877
  39.1748123  21.7061977  30.7657204  37.4731750  22.7753124  31.3695164
  36.4365311  22.5126572  31.1586170  37.8235512  22.3399258  32.8628731
  38.7936440  22.7750320  33.1030998  36.8755608  22.9246330  33.9550629
  36.9566269  24.0099068  34.0160255  35.9008789  22.4762878  33.7625008
  37.2173347  22.4895554  34.8942070  37.9685555  20.9450817  33.0246735
  38.7066994  20.6281166  32.4990540  37.6821976  24.2974987  31.2144108
  36.7247429  24.9341278  30.8688908  38.9583817  24.8404312  31.2376156
  39.7936478  24.2983055  31.4065208  39.1763535  26.3381500  31.1230221
  38.6823540  26.9148769  31.9049740  40.6687698  26.7337303  31.2667236
  41.1674156  26.0621204  31.9655743  41.2341423  26.5574036  30.3516502
  40.7836685  28.2039471  31.7300663  39.9007416  28.7273197  31.3631554
  40.6643410  28.2965965  32.8095474  42.0371780  28.9261932  31.2319603
  42.8689079  28.4267540  31.7288322  42.2377510  28.8713017  30.1619797
  42.1397896  30.3840733  31.7440701  41.1498337  30.8399277  31.7608871
  42.3708267  30.4448738  32.8075676  43.0186844  31.2228107  30.9424820
  43.0078278  32.1628418  31.3116970  43.9256516  30.7815971  30.9958401
  42.6408920  31.4123344  30.0251751  38.6428795  26.9251652  29.8111477
  37.8737679  27.8423500  29.9143276  38.9897728  26.3647690  28.6583385
  39.6450653  25.5967331  28.6298008  38.3673973  26.7595673  27.4193478
  38.6401215  27.8138046  27.3712196  39.0391998  25.9281330  26.2445374
  40.1138992  26.0747414  26.3523731  38.8891487  24.8661270  26.4387703
  38.5381851  26.3492889  24.7599010  37.4889717  26.6436176  24.7350101
  39.2233200  27.1045399  24.3748150  38.5795212  25.1796837  23.7773323
  38.5615692  23.9907475  24.0729542  38.9618797  25.3816643  22.5211220
  39.1908875  24.5149517  22.0558643  39.4014969  26.2564182  22.2728405
  36.8850174  26.6747837  27.3114567  36.3237839  27.5639458  26.6675987
  36.2662697  25.7083530  27.9411373  36.6658936  24.9532433  28.4798470
  34.8183365  25.7697220  28.1252918  34.3726692  26.0698738  27.1769314
  34.3140869  24.3296394  28.5418987  34.5396614  23.6022854  27.7620430
  34.9579811  23.9493923  29.3349419  32.7935600  24.1805611  28.8788738
  32.4394722  25.0580807  29.4198723  31.9383202  23.9625549  27.6378860
  32.2399826  23.0221996  27.1765518  30.8710709  23.9766960  27.8589783
  32.2421722  24.6422005  26.8417358  32.6739426  22.9472427  29.8437653
  33.0777550  23.2335606  30.8148804  31.6229191  22.6596489  29.8709087
  33.3163223  22.1859589  29.4011612  34.3332024  26.8007469  29.0919724
  33.3348389  27.4445839  28.7695961  34.9501266  26.9432545  30.2537575
  35.8482285  26.5016594  30.3898182  34.3943367  27.8187733  31.3275719
  33.3533669  27.5736332  31.5382576  35.1383324  27.6180058  32.6605186
  34.9967194  26.5637970  32.8986206  36.1851311  27.8600235  32.4768333
  34.6927032  28.5007267  33.9108276  34.8866997  29.5196724  33.5758438
  33.1903343  28.2273521  34.2371330  32.8500671  28.7327900  35.1409340
  32.5271492  28.5425014  33.4315491  33.0331078  27.1508026  34.3036728
  35.6037788  28.2237644  35.1489258  35.2281914  28.9825859  35.8353920
  35.5936966  27.1924877  35.5017281  36.6460800  28.4528408  34.9270439
  34.4176750  29.3212757  30.8164768  33.3622017  29.9448395  30.8672256
  35.5277252  29.7591076  30.1836662  36.3410912  29.1681938  30.0869389
  35.5420952  31.0479851  29.4182854  35.2414131  31.7282543  30.2151051
  37.0014572  31.3343296  28.9433784  37.4093781  30.4479809  28.4574833
  36.9539566  32.2230225  28.3140373  37.8867531  31.5719070  30.1254253
  37.3196526  32.2355461  30.7781754  38.1612282  30.6423073  30.6240292
  39.1362953  32.3964157  29.5781918  39.1714668  33.6349678  29.5325241
  40.1660156  31.7729053  29.1700535  34.5802536  31.3220005  28.2874928
  34.3111343  32.5399780  28.0340042  33.9873734  30.2368126  27.7629757
  34.2935524  29.3363552  28.1028690  32.9505043  30.2191677  26.7715950
  32.9794769  31.0770683  26.0998287  33.0396156  28.9652996  25.8644333
  34.0963593  28.9550819  25.5974369  32.8656387  28.1573277  26.5750751
  32.0680580  28.9910336  24.6205368  32.1673965  28.0417480  24.0941429
  31.0515308  28.9981251  25.0138893  32.2676239  30.2045307  23.6327991
  32.0268974  31.1487865  24.1211967  33.2749405  30.2905884  23.2253494
  31.2727585  30.0072975  22.5116043  31.4018250  29.0553074  21.9966583
  30.2374153  29.9706898  22.8504601  31.3351192  31.1280956  21.4754066
  30.6807747  31.0237980  20.7131348  31.1878376  32.0185661  21.9286919
  32.2781639  31.0801125  21.1169834  31.5830898  30.2563152  27.4416027
  30.7157707  31.0501461  27.1190643  31.5022316  29.5388241  28.5920353
  32.2973480  28.9587555  28.8187771  30.3469639  29.5689468  29.5384102
  29.5052624  29.3738155  28.8739090  30.3982658  28.5750999  30.6340275
  31.3727665  28.6020966  31.1215935  29.2989388  28.7426014  31.7233772
  29.4222927  27.9214687  32.4295082  29.3968983  29.7510357  32.1253242
  28.3372536  28.7439823  31.2102757  30.2040901  27.2193661  29.9959049
  29.3244514  27.2443352  29.3527012  31.1008224  27.0262165  29.4071121
  30.0726566  26.0208321  30.9504871  30.9239769  26.0128632  31.6311378
  29.1860390  25.8458805  31.5599136  30.2030334  25.1704426  30.2812042
  30.0567493  31.0314827  30.0456257  28.9418678  31.5259762  30.0661106
  31.1522217  31.6027813  30.4844055  31.9819298  31.0369816  30.3768635
  31.4451160  33.0196381  30.7267399  30.8808041  33.2850075  31.6207371
  32.9197769  33.3234444  31.1885033  33.4686813  32.7035294  30.4796219
  33.3516388  34.8640099  31.0572453  32.5508842  35.3761635  31.5907173
  34.3229218  35.0303345  31.5231323  33.4757996  35.1327019  30.0082035
  33.0809212  32.9393311  32.6677170  32.7735138  33.8244781  33.2245979
  32.5628128  32.0179176  32.9335442  34.5520439  32.6491776  33.1282997
  35.0162849  33.5944862  33.4092941  34.6288681  32.0210915  34.0158310
  35.2099075  32.3057365  32.3299522  30.9790859  33.8295174  29.5118084
  30.1042538  34.7046852  29.5825310  31.4639359  33.5742531  28.2448254
  32.0894470  32.7819977  28.2106819  31.2571564  34.3800812  27.0581722
  31.6155605  35.3736916  27.3272209  32.0601234  33.8923073  25.7991352
  33.1127090  33.8949699  26.0822525  31.7832756  32.8486214  25.6502419
  31.9126244  34.7930527  24.6197891  30.9735985  35.3452339  24.5819893
  32.6576385  35.5798340  24.7382641  32.0963898  34.0790787  23.2520466
  31.1048107  33.6045113  22.6531525  33.2267914  33.7904663  22.9746246
  29.7342892  34.4769936  26.7050819  29.1071224  35.5438156  26.8052979
  29.1309547  33.3037682  26.5661240  29.6561909  32.4595909  26.7438602
  27.7372761  33.1820259  26.1493855  27.5299492  33.7628098  25.2506046
  27.4907799  31.6906338  25.7194061  27.7499599  31.0277958  26.5449810
  26.4282207  31.5397243  25.5288925  28.3558655  31.3655052  24.5183659
  29.3813343  31.7319870  24.4714317  28.5635738  30.2958221  24.5456715
  27.8324070  31.7304039  23.1588688  26.9309044  32.5788460  23.0957928
  28.3845711  31.3860416  22.0362530  26.7844238  33.6672440  27.2373085
  25.5447464  33.6980286  26.9533577  27.1453896  33.9386864  28.4790497
  28.1279850  33.9032707  28.7100372  26.1555481  34.4793472  29.4960060
  25.2182369  34.7104912  28.9899178  25.7576160  33.4434013  30.5973892
  26.6933823  33.1892319  31.0952263  25.1449642  33.8710785  31.3910198
  25.2195988  32.1618576  29.9952068  23.9744587  32.0773163  29.8749981
  26.0164757  31.1838627  29.8251152  25.5908108  30.3279552  29.4990253
  26.9997616  31.3087864  30.0191326  26.5529213  35.8021736  30.1786461
  25.8062534  36.3960876  30.9485035  27.6345806  36.3366928  29.7092667
  28.1849861  35.7574158  29.0915375  28.2836914  37.6496773  30.1605415
  29.2911091  37.7505493  29.7567654  27.5345383  38.8601608  29.5260372
  26.4974861  38.7894707  29.8540993  27.8128414  39.8515167  29.8836136
  27.4648895  38.8564682  28.0045719  28.5065174  39.0296021  27.1147537
  29.4522896  39.3221016  27.3149052  28.0249710  38.7709694  25.8645973
  28.5457115  38.7729111  24.9184341  26.6948948  38.4939766  26.0164452
  26.0717411  38.3491364  25.2349091  26.3131905  38.4954987  27.3423653
  25.3703308  38.2594337  27.8132038  28.5098362  37.6383858  31.6816788
  28.0568104  38.5980797  32.3033218  29.0989323  36.5570450  32.1254539
  29.2736759  35.7453041  31.5504379  29.3450756  36.2509537  33.5671310
  28.6553097  36.7447586  34.2515945  29.6639767  34.7243690  33.7319374
  30.6562157  34.5320892  33.3237839  29.6005402  34.2565804  35.1949730
  28.6736717  34.1932564  35.7650604  30.0168476  33.2509613  35.1356354
  30.3605766  34.7700348  35.7838783  28.6520538  34.0133743  32.9893112
  27.8026295  34.1226463  33.4230614  30.6343670  36.9680748  34.0330162
  31.5695152  37.2152596  33.2798882  30.6534557  37.3138084  35.3472481
  29.8260345  37.1725159  35.9089508  31.7614765  37.7270584  36.1909828
  32.6878967  37.4977493  35.6644211  31.7542439  39.2789040  36.4152527
  32.7187576  39.7205734  36.6657333  31.5279503  39.6587448  35.4189529
  30.6040707  39.6959610  37.3656044  29.7167397  39.1697998  37.0136108
  30.9238739  39.4631004  38.3812828  30.6007786  41.2482834  37.1786728
  31.5575047  41.5965500  37.5678825  30.4474640  41.6264458  36.1679344
  29.5685539  41.9463234  38.0292473  29.5528355  41.4987450  39.0229874
  29.9623280  42.9404984  38.2405777  28.2016850  41.9625702  37.4687576
  28.2798691  42.5638580  36.6610222  27.9332027  41.0133438  37.2520027
  27.6418571  42.2876282  38.2440186  31.7228775  36.8688545  37.5297012
  30.6417389  36.4583588  37.9691124  32.8361168  36.6956749  38.2879677
  34.1648178  37.0517044  37.7309341  34.0925255  38.1376801  37.6715126
  34.2595940  36.4007034  36.8618431  35.2325630  36.6564598  38.8236389
  35.4078712  37.4930878  39.4999657  36.2111969  36.3010368  38.5010643
  34.4289131  35.6014404  39.6601982  34.6868057  35.6491508  40.7181740
  34.6758156  34.6099052  39.2807198  32.8847694  35.8134117  39.4925385
  32.3797379  34.9178619  39.1305504  32.2128563  36.3875885  40.7313576
  31.7470303  35.4967270  41.4693413  32.1341248  37.6883163  40.9452057
  32.5195961  38.2560158  40.2041054  31.3826714  38.3183022  42.0624428
  31.8674030  38.0847511  43.0103836  31.4527168  39.8273926  41.8518295
  32.4983749  40.1235046  41.7680321  30.9580040  40.0814972  40.9143906
  30.8188496  40.6834145  42.9792938  29.7290955  40.6667633  42.9953766
  31.0421028  40.2481728  43.9533730  31.2725143  42.1544952  42.8710365
  30.7088699  43.0093689  43.6560631  31.9470882  42.5123978  41.8851395
  29.8763161  37.8508873  42.1938782  29.2959652  37.8569489  43.2701721
  29.2807465  37.5458603  41.0249176  29.8276844  37.5435448  40.1758194
  27.9228649  37.1909943  40.8623543  27.3278275  37.7729187  41.5661964
  27.5218639  37.5867691  39.4665375  28.3227940  37.2638016  38.8014793
  26.5912800  37.0506859  39.2801628  27.2749348  39.0908051  39.2103920
  27.0310783  39.8824043  40.1924400  27.0529861  39.5238342  38.0455513
  27.5924625  35.7297440  41.1120033  26.4334602  35.3682823  41.1651268
  28.5297832  34.7693901  41.1493454  29.4428997  35.1616821  40.9692802
  28.4198227  33.3235092  41.4025345  27.5765057  33.0396118  40.7729950
  29.6579838  32.5975151  40.8347168  30.5928345  32.9433937  41.2757683
  29.5303574  31.0347519  40.9293709  30.0510845  30.6072903  41.7862396
  28.5112305  30.7110710  41.1408234  29.9533348  30.4346867  40.1236954
  30.0155487  32.8649254  39.3635712  31.0226192  32.4967155  39.1677704
  29.3890934  32.2680702  38.7006836  29.9494610  33.9210129  39.1020126
  28.1843491  32.9685898  42.8309441  28.9471741  33.3936729  43.7355156
  27.1210384  32.1906700  43.0070496  26.5788345  31.9557266  42.1879578
  26.8328342  31.6157494  44.3279266  27.0339432  32.3998871  45.0578461
  25.3622894  31.0992489  44.3802757  25.3639946  30.1542282  43.8371086
  25.1221199  30.7357903  45.8327713  24.1268597  30.3236351  45.9991570
  25.8557053  30.0423717  46.2440186  25.0988407  31.6347179  46.4487953
  24.2380562  31.9802799  43.9090347  24.2790356  32.0731697  42.8237762
  23.2636890  31.5448608  44.1306648  24.3894863  32.9973488  44.2706146
  27.8583488  30.4871025  44.6439247  28.5419998  30.4969349  45.6908226
  27.9797821  29.4806595  43.7716293  27.4528999  29.5913105  42.9170837
  28.7731380  28.2386284  44.0523300  29.8062401  28.4396248  44.3358765
  28.1579399  27.3856163  45.2290001  28.7902794  26.4979782  45.2476234
  28.2763824  27.8616486  46.2023811  26.7063828  26.9491291  45.0279160
  26.2416058  27.7211781  44.4146996  26.6990871  25.9760628  44.5368080
  25.8471394  26.7386780  46.2912025  26.3493557  26.8341389  47.4343452
  24.5766163  26.4278908  46.1601562  24.0164165  26.1388359  46.9492874
  24.2012024  26.2403774  45.2414589  28.6812687  27.3867149  42.6789513
  27.8811607  27.6040955  41.7655106  29.4897842  26.2798405  42.6358452
  30.1598949  26.2987347  43.3912888  29.6288662  25.3466740  41.5878410
  28.8375950  25.4617367  40.8470650  30.9952488  25.8112526  40.8983269
  30.8562946  26.8774338  40.7192993  31.8662109  25.7886391  41.5533257
  31.4123116  25.1536884  39.6339874  31.5583172  24.1424427  40.0136757
  30.5404663  25.1108818  38.9811859  32.8754959  25.6886406  38.7104950
  32.0716133  27.1163425  37.9376183  32.8581963  27.6722107  37.4273300
  31.4188786  26.8256035  37.1145096  31.7201118  27.7018490  38.7871666
  29.7930584  23.8350468  42.0354958  30.2674809  23.5400391  43.1577187
  29.3634739  22.9341068  41.1331558  28.8638611  23.2769451  40.3251038
  29.7014408  21.4872494  41.0578613  30.2549877  21.2867393  41.9751854
  28.4146729  20.6731873  41.2499619  27.6616497  20.9400520  40.5084496
  28.5582581  19.5968952  41.1546745  27.7915020  20.7824898  42.5945587
  27.8155212  21.8329620  42.8844414  26.3006954  20.4079666  42.5409317
  26.1679077  19.5517254  41.8796310  25.8932037  20.1678448  43.5229683
  25.7379742  21.2280769  42.0949860  28.5479012  19.9478168  43.6344719
  28.0682602  19.9866924  44.6124992  28.5748920  18.8984699  43.3407936
  29.5576191  20.3182240  43.8115845  30.4737797  21.0876942  39.7943802
  30.0641384  21.5440578  38.6868820  31.4134617  20.1537285  39.8698235
  31.6413059  19.8002720  40.7881165  32.1069260  19.5530930  38.7683754
  31.6543713  19.9191093  37.8467865  33.5589180  20.1196480  38.7975388
  33.8451767  20.0912476  39.8488960  34.1622658  19.4670887  38.1664772
  33.6372948  21.5676117  38.3136177  32.6786804  21.9769363  38.6323891
  34.7441788  22.3951092  38.8015213  35.5961914  22.2989407  38.1285362
  34.4917107  23.4554272  38.8109207  35.0509033  21.9534588  39.7496643
  33.7496910  21.5264587  36.7584648  34.7017555  21.0612926  36.5029182
  32.9452896  20.9889774  36.2563171  33.8412781  22.5383072  36.3636513
  32.1324158  18.0484829  38.7017250  32.1078186  17.4260769  39.7419395
  32.3092003  17.4596004  37.5371170  32.3770943  18.0462456  36.7177658
  32.4110641  16.0103397  37.3312378  32.8958435  15.5922747  38.2134628
  31.0836010  15.2818966  37.2486076  31.2865334  14.2187204  37.3773499
  30.4386196  15.5761118  38.0765800  30.3431854  15.3150988  35.9919701
  29.6637344  14.6376257  35.9607162  33.3486443  15.6692257  36.1885567
  33.5193176  16.4924660  35.3509026  33.9064789  14.4817152  36.1361961
  33.6587639  13.8643150  36.8961639  34.5273933  13.8211679  34.9796257
  33.9947777  14.1787758  34.0984116  36.0192642  14.2377605  34.8337173
  36.4311714  13.9009619  33.8824081  36.1498871  15.3197870  34.8497314
  36.6380119  13.7644949  35.5961266  34.3194962  12.3079948  34.9387741
  34.2314301  11.7242737  35.9893990  34.2878036  11.7558413  33.7190514
  34.6154633  12.3001614  32.9339066  33.7866402  10.3469553  33.5600586
  32.8181915  10.3533716  34.0602226  33.4818420   9.8773527  32.1181679
  33.3038826   8.8021469  32.0991211  32.2325058  10.6376066  31.6317654
  32.4610977  11.6894789  31.4602413  31.6999779  10.1491251  30.8157387
  31.4575691  10.6176329  32.3980408  34.6191254  10.2334089  31.3206520
  35.2972946   9.5603905  31.4141197  34.6837692   9.2921057  34.2995796
  35.8814850   9.5196791  34.4561043  34.1353111   8.1487970  34.7568245
  32.7179947   7.8321695  34.9146233  32.3990555   7.0702686  34.2033653
  31.9420166   8.5975847  34.9247780  32.6314468   7.0967441  36.2359848
  31.6733418   6.5785441  36.1959648  32.6752167   7.7427979  37.1128006
  33.8854561   6.2331557  36.2169762  33.6428680   5.3816295  35.5812416
  34.0932922   5.9057899  37.2356720  34.9135704   7.2933078  35.7236328
  35.2506332   7.8720002  36.5836411  36.1343575   6.5994091  35.0936050
  37.0213432   6.1991620  35.8215599  36.2099152   6.5402989  33.7711296
  35.5047760   6.9960103  33.2096977  37.3944817   6.0511861  33.0732193
  37.6540260   5.0912189  33.5195389  37.0471382   5.8745003  31.5929813
  37.9859123   5.7942185  31.0449333  36.5157776   4.9237599  31.6361179
  36.1416664   6.8811951  30.7925644  35.6508255   6.5863590  29.6851654
  35.7779045   7.9232736  31.4156799  38.6803360   6.8468027  33.3285942
  39.7765083   6.3247471  33.1975250  38.5605354   8.1772041  33.6061668
  37.6334457   8.5307264  33.4174156  39.6157303   9.1995907  33.8676033
  40.4170151   8.9815111  33.1615677  39.0712929  10.6409550  33.5912514
  38.3803329  11.1334229  34.2754669  39.9662590  11.2630949  33.5824585
  38.4166260  10.8177147  32.1732941  37.5623131  10.1630707  32.0009766
  37.9934196  12.2135534  31.9596920  38.7802429  12.9644995  32.0309906
  37.5200157  12.3965158  30.9950581  37.1781883  12.4473400  32.6444168
  39.4719849  10.5904236  31.0508289  39.1481133  10.9216757  30.0641766
  40.4522552  10.9834023  31.3205338  39.5408096   9.5042114  30.9916096
  40.2265739   9.0912037  35.2406120  39.6961823   8.4967680  36.1781273
  41.3522873   9.7613945  35.4022369  41.7799377  10.1807976  34.5890236
  42.0235786   9.7899504  36.7784462  41.1327782   9.8623924  37.4024048
  42.6191673   8.3883848  36.9907112  42.1062965   7.6526947  36.3711777
  43.6566200   8.4023743  36.6566391  42.4984016   7.8664498  38.3587379
  41.2488098   7.8070927  39.0612831  40.3212509   7.9899049  38.7058830
  41.5844460   7.4438367  40.3266106  40.9477882   7.1462607  41.1466827
  42.8739624   7.2069435  40.4166870  43.3696365   6.8470001  41.2197151
  43.4748688   7.4531870  39.1845779  44.4990120   7.4003749  38.8458443
  42.9859772  10.8539791  37.1125946  43.4903145  10.8394499  38.2409706
  43.3067017  11.7077894  36.0928307  42.9684334  11.2947159  35.2354813
  44.5202065  12.5093641  36.1444283  45.2747726  11.7942276  36.4720154
  44.8291397  13.1384048  34.7379303  44.8352623  12.3760767  33.9588852
  44.0109634  13.8522329  34.6423378  45.8146706  13.6035566  34.7164040
  44.3549614  13.6234541  37.1647797  45.3237419  13.8214016  37.9886169
  43.1856842  14.3025417  37.3560600  42.3301697  13.9423866  36.9579659
  43.0776329  15.5259533  38.1376877  43.7270393  15.4088840  39.0052528
  43.6181107  16.6947021  37.1487083  44.5661812  16.4042168  36.6960716
  42.6278648  16.9401169  35.9662781  41.6899796  17.2109528  36.4511681
  42.9693375  17.7661304  35.3424187  42.4893913  16.0300713  35.3825455
  44.0022163  17.9594212  37.9125175  44.5422478  18.6090908  37.2237511
  43.0919533  18.4271049  38.2877464  44.7242699  17.8108082  38.7154198
  41.6715431  15.8922930  38.6383743  40.6608849  15.6107426  37.9644012
  41.6869049  16.7530861  39.6768494  42.4610786  17.0235729  40.2664185
  40.4272728  17.3879757  40.0261574  39.6089287  16.6828117  40.1716042
  40.5855026  17.9571896  41.4520683  41.4360771  18.6375923  41.4929466
  39.6885071  18.4878807  41.7712364  40.7327614  16.8994465  42.5493164
  39.6410599  16.1578465  43.1662445  38.6968536  16.2180080  42.6454239
  39.7434082  15.3435955  44.2775154  38.9557381  14.8401842  44.8184013
  40.9421768  15.3357182  44.9530754  41.0120659  14.8230591  45.9010735
  42.0768394  15.9648438  44.4445229  42.9894447  16.0343628  45.0178757
  41.9587059  16.8035889  43.2472610  42.8079376  17.3950825  42.9384880
  40.1252632  18.5472469  39.0885887  40.9464302  19.4439964  38.9760742
  39.0281334  18.5860386  38.2756767  37.9892998  17.5315380  38.1001740
  37.1729927  17.7183151  38.7979240  38.3899193  16.5189991  38.0515060
  37.3603897  17.7777653  36.7223892  36.3169365  17.4693680  36.7871475
  37.9249458  17.3357582  35.9014091  37.4481659  19.3152466  36.6408768
  36.6308899  19.7074699  37.2461205  37.3698616  19.7120743  35.6286964
  38.7863770  19.5917091  37.2741127  39.6322250  19.5341358  36.5890388
  38.7799988  21.0358105  37.8228493  38.9734726  21.9860477  37.0586319
  38.4258652  21.1137428  39.1062279  38.1092529  20.2415695  39.5051918
  38.1779289  22.4209805  39.7599831  37.4489136  23.0182400  39.2123299
  37.7286301  22.1241970  41.1536751  38.5033493  21.6180820  41.7296638
  37.4747849  23.0472107  41.6749344  36.8079262  21.5472717  41.0666962
  39.4306526  23.3416061  39.8738136  39.3006554  24.5620937  40.0127754
  40.5988159  22.7603340  39.7464828  40.6701508  21.7605591  39.6221313
  41.8844872  23.5162449  39.6546326  41.8857956  24.0568962  40.6010971
  43.0643311  22.5363026  39.6231308  43.2069778  22.0863342  38.6406441
  43.9624138  23.1355152  39.7731209  43.0921478  21.4149189  40.7177544
  42.7832870  21.9694481  41.6038704  42.4178734  20.6374836  40.3585243
  44.5742378  20.9710503  40.9164047  44.9898224  20.8405857  39.9172211
  45.0805779  21.7710800  41.4564819  44.6290016  19.7046204  41.7263565
  43.9526901  18.9708519  41.2878494  45.6255417  19.2738705  41.6290855
  44.3491783  19.9158840  43.1555672  44.9269791  20.6483307  43.5425682
  43.4133720  20.2154751  43.3892746  44.6280518  19.1030579  43.6862679
  41.9413528  24.5090332  38.5314980  42.4448357  25.6366692  38.6920013
  41.3657570  24.1446609  37.3328705  41.0665817  23.2060585  37.1101227
  41.1219788  25.1340809  36.2960625  42.0907288  25.4286537  35.8925133
  40.4005585  24.4095039  35.0947647  39.4301910  23.9772415  35.3389740
  40.3278275  25.2358723  34.3877144  41.0862236  23.6214352  34.7834702
  40.2652130  26.3269901  36.6459084  40.3352051  27.3168831  35.9641495
  39.3812523  26.2784576  37.7009201  39.3984642  25.4729519  38.3099899
  38.5318184  27.4413948  37.9644966  38.1090126  27.7197742  36.9991798
  37.3173981  27.2663975  38.9862938  37.7688065  26.9126530  39.9132233
  36.5593681  28.5886269  39.2842674  37.1436005  29.2762547  39.8957672
  36.3761711  29.0094929  38.2956238  35.6012344  28.4157085  39.7743530
  36.4363098  26.1295433  38.5949516  36.9260139  25.1775188  38.3901482
  35.7733307  26.0491276  39.4564018  35.8780098  26.5383472  37.7527580
  39.3201218  28.6343994  38.5193710  39.2121124  29.7727051  38.0791435
  40.2904243  28.4691925  39.4907684  40.3134232  27.5788460  39.9670601
  41.2110329  29.5956783  40.0380783  40.5354691  30.4454613  40.1359673
  41.7991867  29.1668644  41.4343452  42.5044556  29.9537983  41.7016258
  41.0643349  29.1091309  42.2373123  42.6417580  27.9296131  41.4335785
  41.9117317  27.2054501  41.0719833  43.4594955  28.0253143  40.7192650
  42.9370956  27.4647293  42.8450317  43.6095428  28.1833496  43.3135338
  41.9931564  27.5579205  43.3820572  43.4651337  26.0997410  42.9814034
  44.4516335  25.9793777  43.1614914  42.7499886  24.9861259  43.0502129
  41.4643898  24.8662128  42.8710289  40.9996185  23.9942570  43.0802765
  40.8714943  25.6608410  42.6783066  43.3482895  23.8821297  43.3338356
  42.8176765  23.0992565  43.6883240  44.3561249  23.8674736  43.3982811
  42.2526665  30.1362572  39.0056686  43.1915703  30.8407459  39.3490334
  42.2080116  29.8013172  37.7334900  41.5194969  29.0993404  37.5026741
  43.2248535  30.2241936  36.7559509  44.1424294  30.4026299  37.3165855
  43.3806572  29.1282482  35.6804543  43.4735718  28.1808224  36.2113533
  42.4813080  28.9286728  35.0978432  44.5057144  29.4680920  34.8084908
  44.0524788  30.0653248  34.0172958  45.1604080  30.1789780  35.3125954
  45.4547157  28.3847370  34.2685547  45.3611031  28.0387688  33.0402565
  46.1584358  27.7426033  35.0985184  42.6587257  31.4429417  36.1001892
  43.3765450  32.3233109  35.6864052  41.3507004  31.6710682  36.0828934
  40.8301620  31.0388680  36.6740494  40.6910019  32.8585777  35.6449127
  41.1634903  33.2255783  34.7337799  39.2408562  32.6166229  35.3219337
  38.7892036  32.2602463  36.2477341  38.7339363  33.5505676  35.0792885
  38.8641090  31.5151424  34.2465515  39.2596550  31.7986908  33.2712326
  39.2218475  30.0406036  34.5685997  38.9182434  29.3571072  33.7756577
  40.2984810  29.8728981  34.5974846  38.7636909  29.7664948  35.5188980
  37.3798103  31.6704407  33.9758453  36.9897499  30.8064060  33.4378929
  36.7370529  31.6379414  34.8555717  37.2319031  32.5996819  33.4256325
  40.9169922  34.0324898  36.6350632  40.7225914  33.8415794  37.8207207
  41.1242867  35.2436028  36.1281319  41.0269775  35.3972092  35.1346359
  41.3668137  36.4169884  37.0276108  42.2231903  36.2196007  37.6724052
  41.8782997  37.6047516  36.1939011  42.8029175  37.3399277  35.6810112
  41.1789284  37.9893799  35.4515800  42.1929092  38.6324921  37.1373177
  43.0944901  38.5137711  37.4449883  40.0045166  36.6715965  37.8051109
  38.9334717  36.7295990  37.2053986  40.1699219  36.9541931  39.0793381
  41.1373825  36.9452133  39.3692322  39.2128868  37.0176544  40.1938210
  39.6999130  37.4983788  41.0422363  38.4682808  37.7578964  39.9010696
  38.4502373  35.7514114  40.6421623  37.9845963  35.6541176  41.7722473
  38.3537178  34.8073387  39.7302094  38.8484573  34.9703407  38.8648987
  37.6346436  33.5530472  39.9412384  36.5933609  33.7351303  40.2070923
  37.6471062  32.7501030  38.6718140  38.6672134  32.5904503  38.3225441
  37.4018097  31.8029346  39.1522408  36.6141052  33.1073112  37.6808891
  36.6880150  34.1767578  36.8974495  37.5336266  34.8480682  36.8713036
  35.5055809  34.2547417  36.1908150  35.4021530  34.9514885  35.4669762
  34.5904274  33.3109055  36.5131950  33.2684441  33.0203972  36.1422119
  32.9293861  33.6556702  35.3373108  32.6166534  31.8962231  36.6668472
  31.6254101  31.6473312  36.3177185  33.2641945  31.1626911  37.6237411
  32.6986618  30.2978802  37.9378662  34.5516777  31.4054317  38.1322823
  34.9302826  30.7824898  38.9291573  35.3089905  32.5045128  37.5271187
  38.1667366  32.6181183  41.1274719  37.5195236  31.6981297  41.5439987
  39.3726807  32.8770638  41.6747055  39.9413490  33.6146889  41.2840385
  39.9521751  32.0790939  42.7646561  39.9273262  31.0152187  42.5287247
  41.4548340  32.4684143  42.9283409  41.9614639  31.7229614  43.5413094
  41.8522720  32.2908897  41.9290276  41.8610535  33.9114723  43.4349823
  41.0793953  34.3307495  44.0684776  42.6955299  33.8426819  44.1328468
  41.9647827  34.9185791  42.2952042  41.3858185  34.8195763  41.2000847
  42.4013481  36.0980606  42.6333427  42.3982620  36.7697449  41.8790665
  42.7729073  36.3516731  43.5376244  39.3049660  32.0608215  44.1167755
  39.5596046  31.1891689  44.9213181  38.3419609  32.9291382  44.4235001
  38.0978737  33.5973740  43.7065735  37.5459862  32.9195442  45.6376534
  38.0445976  32.1895256  46.2752686  37.4709740  34.2758026  46.2430229
  36.6022911  34.7638054  45.8010521  37.3188400  34.1801682  47.3181152
  38.6715660  35.1566010  46.1146736  39.9195175  34.8875160  46.7304420
  40.0253830  33.9547195  47.2643776  41.0547180  35.7567444  46.5044250
  42.0595245  35.4991989  46.8051567  40.8769531  36.9182549  45.6546059
  41.9732208  37.6924896  45.1333237  41.7357140  38.4789391  44.6366463
  39.5795746  37.2127113  45.1070518  39.3973808  38.0641479  44.4680977
  38.4550781  36.3445435  45.3406754  37.5084839  36.6223183  44.9011269
  36.1481361  32.2093086  45.4745445  35.2920609  32.2763939  46.3698349
  35.8299980  31.5867176  44.3371277  36.5124512  31.4724636  43.6013985
  34.5145454  31.0296669  43.9674492  33.6823616  31.6509285  44.2985153
  34.3944016  30.9982910  42.4252472  35.2739029  30.5695724  41.9448433
  33.1842117  30.1805992  41.9149818  32.3106880  30.4618950  42.5031433
  33.0324974  30.3938389  40.8568649  33.2614861  29.1068573  42.0858765
  34.3596115  32.4437943  41.8868980  33.2929459  32.6668854  41.8633308
  34.8135300  33.1273117  42.6044388  34.8185349  32.5230331  40.9013977
  34.2205315  29.6533985  44.5904465  35.0176163  28.7745991  44.4314194
  33.0864868  29.3846703  45.2745399  32.1465492  30.3401661  45.8531380
  31.2975826  30.4085636  45.1729355  32.6143379  31.3227005  45.9156570
  31.5913849  29.7087994  47.1491470  30.5237312  29.9147148  47.2254143
  32.2583199  29.9314346  47.9820480  31.7509422  28.2041988  46.8799133
  30.8283005  27.8955669  46.3884087  31.9506741  27.5842094  47.7538834
  32.9496040  28.0438957  45.9569778  33.8786736  27.7876892  46.4661789
  32.6796494  26.9052906  44.8910217  31.9661503  27.1697712  43.9289970
  33.2769737  25.7393265  45.1921539  33.8218193  25.7205524  46.0423851
  33.3568230  24.5594997  44.2843323  32.3821449  24.3924847  43.8258514
  34.3161964  24.7791595  43.1753426  34.0467606  25.7150517  42.6858406
  35.8165054  24.8021641  43.5399551  35.9085274  25.3587952  44.4725838
  36.1208649  23.7654686  43.6839333  36.4183693  25.3454819  42.8114853
  34.1989365  23.7970924  42.0257263  34.5563431  24.0451584  41.0263138
  34.6081123  22.8540173  42.3880615  33.1688614  23.4908600  41.8433533
  33.5713959  23.2357807  45.0375862  34.0522232  23.2626152  46.1253777
  33.1388474  22.1016178  44.4913788  32.6420898  22.1010666  43.6119881
  33.6988144  20.7956295  44.8137627  34.7862892  20.8390636  44.8738251
  33.1820717  20.2449970  46.1488724  33.0420036  21.0684738  46.8491364
  31.8523884  19.4516716  46.1198273  32.0133171  18.4729004  45.6679306
  31.5209656  19.4206963  47.1577606  31.2101707  20.0122013  45.4405174
  34.2168808  19.5233727  46.7894630  34.2065010  18.5784664  46.6202164
  33.4751205  19.6151714  43.6772614  32.6525230  19.8717289  42.8351898
  34.2994576  18.6106358  43.5519714  35.0273628  18.4585648  44.2354393
  34.1903229  17.6611500  42.4508705  33.8572884  18.1638947  41.5428810
  35.5925140  17.2191296  42.0861320  36.0379105  16.5901794  42.8569412
  35.3730087  16.6017742  41.2150459  36.6741562  18.6138382  41.5771561
  37.0757675  18.7265968  42.8463669  33.2995338  16.4402790  42.8193932
  33.7746544  15.5229902  43.4572716  31.9984436  16.4433289  42.4475670
  31.7225227  17.0999527  41.7314568  31.1367817  15.2513161  42.6753845
  31.2483368  14.8112288  43.6663322  29.6293392  15.6792250  42.4238968
  28.9418907  14.8491001  42.5863991  29.4879150  16.3982296  43.2308273
  29.4012794  16.2915936  40.9988632  30.0872192  17.1356773  40.9273911
  29.5277786  15.4877739  40.2736244  27.7820930  17.0562115  40.7221069
  28.2043056  17.6104279  39.0406952  28.3555222  16.7683468  38.3653107
  27.4380856  18.2607250  38.6186523  29.1322956  18.1727352  39.1443481
  31.5793018  14.1573162  41.7268944  32.0644150  14.3375092  40.6287880
  31.3862534  12.9282513  42.1378059  31.0111866  12.9049063  43.0752907
  31.4002361  11.7016315  41.3376770  32.3533363  11.6249409  40.8143845
  31.2501984  10.4669819  42.3464546  32.0001488  10.6930695  43.1044540
  30.2444305  10.5369949  42.7607346  31.4485226   9.1419640  41.6777306
  31.5117779   8.4823885  42.5432129  30.6293640   8.9703941  40.9794159
  32.7767067   9.0902090  40.9233284  33.8306465   9.3605709  41.4707794
  32.8217316   8.8592710  39.6011543  32.0015602   8.6286650  39.0587196
  33.7402267   8.9728022  39.1967010  30.3374462  11.7349596  40.2767448
  29.1493473  11.7255096  40.5683136  30.8233852  11.4970274  39.0246239
  31.8145657  11.4242811  38.8446999  29.9511642  11.1266308  37.9421768
  29.0720043  11.7699986  37.9777946  30.7526321  11.2287436  36.6417427
  31.2621346  12.1908884  36.5889587  31.4606762  10.4002066  36.6243820
  29.8987656  11.2070980  35.3672256  30.6059036  11.0317183  34.5564880
  29.1091938  10.4565315  35.3307877  29.2336998  12.5626135  35.0089111
  29.1013851  13.0189257  33.8663483  28.6757698  13.2031937  35.9600334
  29.4466648   9.6775360  38.0867233  30.2918510   8.7761211  38.3470116
  28.1260376   9.3660059  38.0293579  27.5501995  10.1671915  37.8134613
  27.5567017   8.0041265  37.9249840  28.0992489   7.4024982  38.6542168
  26.1023788   7.9977698  38.4059830  25.8077660   6.9495935  38.3546982
  26.0365944   8.3876915  39.4217262  25.1836739   8.8975363  37.5011063
  25.5345173   9.9289370  37.5360870  25.2197952   8.6372910  36.4432487
  23.4846249   9.0604458  37.9568443  22.9903088   7.4181604  37.4636536
  22.0148792   7.1291652  37.8549614  22.9890442   7.3498693  36.3757973
  23.6293411   6.6493149  37.8979530  27.6710835   7.3527579  36.5404663
  27.6789761   8.0025988  35.4876900  27.9141712   6.0436554  36.5778999
  28.0382710   5.6059260  37.4796143  28.0465527   5.2157960  35.3299522
  28.5869713   5.6311822  34.4793625  28.9363365   4.0644512  35.7837791
  29.6933842   4.3765182  36.5032196  28.4429646   3.3104219  36.3970680
  29.6709232   3.3233373  34.6262283  29.6851902   3.8349164  33.4734497
  30.3122082   2.3014195  34.8794022  26.7765656   4.6589131  34.6990585
  25.9057617   4.2025108  35.3996811  26.6473007   4.8554077  33.3197136
  27.3320103   5.3954968  32.8102264  25.3992157   4.5810342  32.5636330
  24.7063828   4.0608034  33.2250290  24.6704845   5.8628483  32.1104622
  25.2251110   6.3612437  31.3154202  23.3600960   5.5844250  31.2848358
  22.9619522   6.5975575  31.2287025  23.6152630   5.2423921  30.2818394
  22.6592789   4.9715786  31.8517380  24.3601227   6.7211518  33.3730202
  25.2487659   7.2516913  33.7149849  23.5565453   7.3834958  33.0510521
  23.9737530   6.0573192  34.1464157  25.6997204   3.6570776  31.3803768
  26.5803375   3.8751576  30.5475426  24.8610020   2.6676960  31.2335739
  23.9906731   2.6781991  31.7459373  25.0361404   1.6868528  30.1044445
  26.0335026   1.2734950  30.2544613  24.0187378   0.5096740  30.2935982
  24.2130737   0.1170586  31.2916908  22.4783421   0.8577773  30.1512585
  22.2376881   1.6430569  30.8678646  22.1521645   1.2985497  29.2092247
  21.9370632  -0.0531392  30.4069004  24.2617416  -0.4946860  29.4080048
  25.1602478  -0.7890500  29.5742493  24.9619064   2.4041901  28.7385635
  23.9650192   2.9990208  28.3409023  26.0796223   2.3962438  27.9736271
  26.9766922   2.0154397  28.2388744  26.0596371   3.0115321  26.6074505
  26.9821033   2.6288583  26.1707420  25.2604771   2.7117314  25.9295368
  26.1738358   4.5221386  26.7362080  25.8328609   5.2163854  25.7581158
  26.7512684   5.0566988  27.8398781  27.0314636   4.4847932  28.6237888
  27.0096779   6.5147843  27.9950562  26.1760406   7.1383948  27.6721630
  27.0136261   6.7613730  29.0567894  28.2744789   7.0225182  27.3046722
  29.0205231   6.2162919  26.8318348  28.4333172   8.3031921  27.1914539
  27.7557240   8.9542742  27.5616684  29.6060429   8.9558754  26.4705448
  29.5661411   8.5669756  25.4530659  29.5259819  10.5252476  26.4284248
  28.5022640  10.7564478  26.1340675  29.5704079  10.8367758  27.4720173
  30.6183395  11.3189306  25.6868820  31.5000420  11.2534170  26.3243923
  30.7641354  10.7563124  24.2855034  29.8492794  10.9468441  23.7244015
  31.4978218  11.3447008  23.7345009  30.9230785   9.6963692  24.0871010
  30.1566143  12.8438120  25.6840858  29.1174278  12.9393377  25.3693256
  30.2286243  13.0957508  26.7421227  30.8307457  13.4432325  25.0722485
  30.9036713   8.4959383  27.2168026  30.8684292   8.4315262  28.4627285
  32.0488472   8.2958422  26.5815296  32.1690483   8.5166826  25.6033268
  33.3263168   8.0223541  27.3072052  33.2788963   7.7120891  28.3510380
  34.0053253   6.7583814  26.6247234  34.2794189   7.0188189  25.6024017
  34.9259911   6.5720177  27.1776772  33.0914993   5.5028052  26.5599442
  32.8734512   5.1081128  27.5523014  32.1438789   5.7389803  26.0758553
  33.8167267   4.2827210  25.8582630  34.1699371   4.5552173  24.8637333
  34.6859589   4.1636062  26.5050621  32.9678612   3.0736711  25.6838818
  33.6384506   2.2548387  25.4232559  32.5450363   2.8704264  26.6677570
  31.7628994   3.2800889  24.8004761  31.9190083   3.8486814  23.9804554
  31.3788300   2.3728456  24.5779839  31.0512772   3.7849884  25.3091698
  34.2418633   9.3118019  27.3965836  34.1073303  10.1867104  26.5865669
  35.0915794   9.3898516  28.3888111  35.1095390   8.5406942  28.9353542
  36.0502968  10.5101309  28.5220394  36.4352455  10.4588423  29.5405121
  37.2625160  10.3976679  27.5326176  36.9813499  10.6112461  26.5013885
  37.9754524  11.1837626  27.7813683  37.9749374   9.0535955  27.5710278
  38.2558937   8.7675457  28.5846043  37.4103928   8.2034683  27.1880455
  39.2635574   9.2009583  26.6856804  39.1698265   9.5465651  25.6561794
  39.8907585   9.9318848  27.1960411  40.0504265   7.8885012  26.6013031
  41.1030006   8.1698112  26.5688324  39.8835716   7.1981812  27.4281750
  39.7577896   7.2112894  25.3312130  40.2724686   6.3447661  25.2653179
  38.7665100   7.0237365  25.2832718  39.9783440   7.8492422  24.5798988
  35.4149323  11.9009333  28.4257450  35.8570976  12.7246037  27.6135063
  34.4386215  12.2421808  29.3042030  34.2773514  11.4497232  29.9092655
  33.8163338  13.5441303  29.5447979  34.1806450  14.1826067  28.7399826
  32.3056030  13.3857231  29.2974548  32.2687035  12.6961050  28.4541473
  31.7863617  13.0038099  30.1764488  31.4152813  14.9213867  28.9271107
  31.5116291  15.5819235  30.0843945  34.1656952  14.3180418  30.8253708
  34.7435493  13.8060207  31.8253727  33.9477730  15.6116734  30.8270493
  33.5533447  16.0058880  29.9849548  33.9093170  16.6335640  31.9082279
  33.9994507  16.1440830  32.8779602  35.0808144  17.6570892  31.8156147
  34.9466476  18.2529793  30.9128323  35.0910149  18.6032696  33.0478134
  35.9121437  19.2941628  32.8567009  34.2052422  19.2341156  33.1222496
  35.0739899  17.9826183  33.9436951  36.4114304  16.9301682  31.8308926
  37.2200012  17.5899925  32.1454468  36.4112892  16.0940819  32.5302200
  37.0222054  16.5535069  30.5083847  36.3883057  15.7752934  30.0833492
  37.0393410  17.3661652  29.7821674  38.0085869  16.1338539  30.7059841
  32.5431442  17.3634357  31.8067360  32.0834274  17.7058563  30.7154903
  31.8982410  17.6711998  32.9880180  32.3690224  17.3350105  33.8159294
  30.7612858  18.6154175  33.0643501  30.6924133  19.1356583  32.1089897
  29.5108128  17.8447208  33.4178238  29.6765194  17.2833214  34.3373184
  28.7303925  18.5763340  33.6270714  28.9405556  16.9607677  32.2996674
  28.8414040  17.5108490  31.3638897  29.6652451  16.1769676  32.0792465
  27.7129574  16.1953812  32.6215439  26.8623962  16.8224487  32.3542786
  27.6206551  15.3771620  31.9073257  27.7420387  15.5755491  33.9298630
  28.2520027  14.7088900  34.0244141  27.0120277  15.9151974  34.9643860
  26.4062672  17.0918961  34.9322395  25.8924332  17.4093647  35.7417412
  26.3914528  17.7068710  34.1311836  27.0502396  15.2973986  36.1306190
  26.6336060  15.7269497  36.9442520  27.4447002  14.3748474  36.2463799
  30.9144325  19.6532917  34.2078934  31.4170914  19.3073940  35.2542992
  30.5766678  20.9211655  33.9798317  30.2637291  21.0393658  33.0268364
  30.2771301  21.9632530  35.0093994  30.5650406  21.4497452  35.9267426
  31.2882175  23.1620235  34.8843307  32.2827797  22.7640324  34.6829643
  30.9183578  23.9731674  33.5990639  29.9328613  24.4052906  33.7727661
  31.6944885  24.7339115  33.5154648  30.9622822  23.3013191  32.7418671
  31.2947521  24.0818825  36.0835953  32.1028328  24.7983856  35.9361801
  30.3372936  24.5894089  36.2010269  31.5334587  23.3587322  36.8634567
  28.8152561  22.3259602  35.1845093  28.0072021  22.4834976  34.2661705
  28.3798008  22.4016228  36.4553566  29.1153965  22.2884102  37.1381302
  27.1716080  23.1233997  36.9503517  26.5604420  23.4919014  36.1264687
  26.3224735  22.0216293  37.7357979  26.0768738  21.2167969  37.0429573
  27.0103760  21.5858974  38.4603920  25.0951557  22.4587936  38.3344536
  24.6282959  21.6027031  38.8215370  25.2754364  23.2676811  39.0424767
  24.0374374  23.0479603  37.0100441  22.9836063  24.3186531  37.8295708
  23.5758858  25.1476841  38.2168846  22.0985756  24.5418625  37.2337532
  22.5191555  23.8260326  38.6838036  27.5564842  24.2572651  37.9143448
  28.3758087  23.9956284  38.7842369  26.9943581  25.4602642  37.8217239
  26.3742218  25.6516266  37.0478325  27.0184612  26.5417480  38.8143272
  27.1640930  26.2715988  39.8602295  28.1687889  27.3969231  38.3841667
  28.3382072  28.1495171  39.1542282  29.0493145  26.7706757  38.5276642
  28.1634579  28.2119389  37.0610771  28.2411861  27.4395409  36.2959213
  27.1907024  28.6977692  36.9848289  29.6438160  29.2499142  37.0152321
  29.6375866  29.4389591  35.1969490  29.5796604  28.4207497  34.8122520
  28.7942581  30.0184727  34.8213615  30.5302620  29.9848881  34.8916702
  25.8202858  27.4715805  38.8505211  25.0559196  27.5553608  37.9535370
  25.6639404  28.3109589  39.8749199  26.4090614  28.3767643  40.5535660
  24.4974957  29.2521458  40.0622063  23.9215317  29.3309879  39.1401711
  23.6698570  28.8181896  41.2294693  23.0540199  29.6678066  41.5244141
  22.8606033  27.6073799  40.6945229  22.0516796  28.0496407  40.1130180
  23.3450966  26.8709755  40.0533714  22.3984127  26.9720612  41.4500732
  24.5038948  28.5353241  42.3200302  24.7152977  27.5993347  42.3488770
  24.9428768  30.7161808  40.1834450  25.9418201  31.0181808  40.8730354
  24.2292175  31.5753517  39.4486961  23.4832306  31.1626873  38.9071121
  24.7046852  32.9678040  39.1453781  25.4403973  33.2898445  39.8823433
  25.5170708  33.1414948  37.8416176  24.8277435  33.1179771  36.9975967
  26.2576962  34.4862213  37.7128448  25.5077343  35.2771530  37.7218018
  26.9231071  34.4894485  38.5761604  26.8075848  34.5630646  36.7748566
  26.5635548  32.0180931  37.6129837  27.1038704  31.9025784  38.5525665
  25.9520111  31.1308746  37.4487762  27.3156662  32.1387405  36.8333206
  23.5454330  33.9554596  39.2373161  22.5223007  33.5925903  38.6796837
  23.7594223  35.1248970  39.9235306  24.7222290  35.3494530  40.1301193
  22.7491016  36.2218781  39.7333107  21.7622776  35.7815781  39.8761978
  22.9300594  37.2132263  40.9102783  21.9736958  37.7332649  40.9653244
  22.9611015  36.6928444  41.8675346  24.0303497  38.2539787  40.7689362
  24.9918365  37.7451096  40.7004089  23.8678436  38.7301254  39.8019943
  24.0558872  39.1672401  42.0633507  23.0602932  39.5031509  42.7046394
  25.1729050  39.8228607  42.2913895  25.1827049  40.3007240  43.1811371
  25.8983383  39.9345016  41.5975685  22.6523762  36.8375473  38.3350906
  23.6203079  37.1641579  37.6223259  21.4547157  36.9044533  37.8583527
  20.6966286  36.5030479  38.3915291  21.0696812  37.2476082  36.4522018
  21.7599087  38.0011749  36.0729637  21.3303680  35.9963722  35.6070290
  22.3629074  35.6881905  35.7712975  20.4129353  34.8260193  36.0383224
  20.7794685  34.3883324  36.9668541  19.3548069  35.0582352  35.9177284
  20.5257187  34.0127907  35.3213539  21.0633469  36.2114868  34.2913055
  21.8248215  36.5876465  33.8438034  19.6330471  37.7067108  36.2876663
  18.7316113  37.4981804  37.0933876  19.3661442  38.3638916  35.0941963
  20.1872349  38.5550308  34.5379791  18.0584297  38.7913208  34.6902351
  17.3472919  38.4811440  35.4558563  18.0524731  40.3708839  34.6033669
  18.6003036  40.6817741  33.7137985  17.0355148  40.7587700  34.5447044
  18.7101421  41.1279945  35.7951241  18.2407856  40.9564133  36.9669342
  19.6017208  41.9433784  35.4716187  17.6187706  38.2288513  33.3345299
  16.5634632  38.6079712  32.7691460  18.5017509  37.4358940  32.7938766
  19.3992901  37.3486023  33.2487411  18.2653751  36.5914345  31.6237106
  17.6322670  37.1656494  30.9472866  19.4429798  36.0666313  30.9592628
  19.9891224  35.4813766  31.6990643  19.1532001  35.2133217  29.6807652
  18.4065685  34.4920807  30.0130920  18.8289413  35.8397369  28.8497658
  20.1194420  34.7629814  29.4534569  20.3205490  37.2669373  30.6013641
  21.1724319  36.9349785  30.0078945  19.8259621  37.9960709  29.9596100
  20.7732410  37.7732964  31.4538708  17.4134541  35.4394226  32.1114998
  17.8685780  34.7652817  33.0640068  16.2744064  35.2373619  31.4699364
  15.5376673  36.1899185  30.6865158  15.9255905  36.0650597  29.6755619
  15.6837072  37.1997681  31.0698891  14.0526476  35.7651405  30.9137783
  13.3790913  36.2123642  30.1827412  13.8221598  36.0000000  31.9529190
  14.1313524  34.2787666  30.9553680  14.2339621  33.9129219  29.9337368
  13.2596045  33.7769241  31.3752632  15.3930044  34.1024437  31.7680168
  15.1479206  34.1766853  32.8275070  16.1218548  32.7531776  31.5998135
  17.0515404  32.4728012  30.8265953  15.6278915  31.7884922  32.4135170
  15.0452967  32.0896263  33.1816330  15.8800840  30.3097630  32.4038467
  16.8448982  30.0552788  32.8425713  14.8568993  29.5998859  33.2818298
  14.8705864  30.0340691  34.2815285  13.8558054  29.7154655  32.8664360
  15.1898794  28.0763760  33.5416336  15.3701038  27.5842857  32.5858803
  16.0745468  27.9812298  34.1712456  14.0230408  27.3098240  34.1398926
  13.2396603  26.5837975  33.4775772  13.7817030  27.5021362  35.4495049
  14.4095278  28.0572395  36.0132408  12.8303461  27.3361988  35.7452812
  15.9019861  29.6849403  30.9308548  16.8384209  29.0318508  30.5263596
  14.8361721  29.9565716  30.0910320  14.1113110  30.5944805  30.3872585
  14.8364735  29.4800835  28.6996517  15.2390661  28.4673843  28.7211361
  13.3937101  29.4019337  28.1641922  13.4796829  29.0860958  27.1245022
  12.8187323  28.7062702  28.7753849  12.5683670  30.6823006  28.2199821
  13.0394878  31.7066402  28.8149414  11.5770130  30.7172813  27.5014706
  15.7399921  30.3400211  27.7592735  15.8458147  29.9813499  26.5456791
  16.2864685  31.4669151  28.1637249  15.9933338  31.7866936  29.0758171
  17.1760063  32.3261108  27.3980064  17.0992012  32.0387497  26.3493767
  16.5985508  33.8177643  27.5325527  16.4941063  34.1590576  28.5624599
  17.2974968  34.4452477  26.9795246  15.2852373  33.9175873  26.7453499
  15.3991957  33.5674515  25.7194271  14.5678644  33.2263832  27.1877518
  14.7119474  35.2673988  26.8478889  15.3964062  36.2693825  26.6263142
  13.4553337  35.5053253  27.2573452  12.9086323  34.7002296  27.5276203
  13.1587362  36.4695015  27.3072433  18.7238274  32.2874718  27.7379818
  19.4873753  32.6888733  26.8770676  19.0980854  31.7118187  28.8593845
  18.3776913  31.4975357  29.5340805  20.4530621  31.3296337  29.3322201
  21.1475468  32.1696510  29.3451996  20.3805790  30.8068085  30.7960644
  19.5112019  30.1751099  30.9783916  21.6047859  30.0531769  31.3464680
  21.7850895  29.1804848  30.7187824  22.5023174  30.6630764  31.2437172
  21.3595848  29.8380852  32.3865280  20.1864014  32.0822563  31.6740551
  21.0731544  32.7159195  31.6584797  19.3970566  32.6036072  31.1325493
  19.7693481  31.8108902  33.1337242  18.9683113  31.0751286  33.0623512
  20.5930824  31.3718815  33.6966019  19.4731293  32.6653862  33.7421570
  20.9875126  30.2702904  28.3711338  20.2332230  29.4340782  27.9059372
  22.2695885  30.3201065  28.0430889  22.8040466  31.0584717  28.4781399
  22.9020939  29.4901733  27.1076317  22.1106586  29.0009499  26.5398350
  23.6922188  30.3738670  26.0257511  24.6491241  30.7084560  26.4263554
  23.8854694  29.8529453  25.0879898  22.9571075  31.6455040  25.6497879
  21.9480534  31.3515739  25.3607960  22.9295788  32.3360672  26.4926777
  23.6548538  32.3040428  24.5049553  24.6157246  32.7475395  24.7659874
  23.6675930  31.5991611  23.6736431  22.7667618  33.4387474  24.1351166
  22.1325512  33.2598190  23.3696976  22.6785183  34.6920471  24.5647812
  23.3245087  35.1094170  25.6812725  23.2886372  36.0579491  26.0263824
  24.0440083  34.5493126  26.1156731  22.0555916  35.5989075  23.8481255
  21.7602654  35.3251305  22.9218807  21.8456612  36.4782982  24.2983513
  23.8150291  28.4773693  27.7776794  24.7502079  28.8396225  28.5089874
  23.6136150  27.1781902  27.4750156  22.9368629  27.0008888  26.7465420
  24.2617741  26.0540199  28.0846691  24.9143963  26.4546757  28.8603363
  23.2583408  25.0301743  28.6328812  22.7099609  24.6655006  27.7643223
  23.7706795  24.1997032  29.1186085  22.2846165  25.6165237  29.6357040
  22.6201515  25.9150906  30.9532070  21.4666328  26.3734207  31.4711571
  21.3811798  26.8754044  32.4235802  20.4584885  26.1887779  30.6566029
  19.5113525  26.3850231  30.9473305  20.9284382  25.8218536  29.4399681
  20.3231716  25.6109562  28.5707302  25.1084881  25.4462910  27.0240841
  24.6981869  25.2061920  25.9041691  26.4040356  25.4156361  27.2673588
  26.5959797  25.4478722  28.2584286  27.5175304  25.4099731  26.2885895
  27.1491718  25.6754608  25.2976665  28.6213779  26.4048424  26.7007122
  28.8989983  26.0521641  27.6940117  29.7752075  26.4224873  25.7462673
  30.4030075  27.2368927  26.1078110  30.2991409  25.4668274  25.7287483
  29.5321503  26.7302914  24.7292728  28.0450096  27.8667259  26.5249901
  27.3172894  28.0892677  27.3053761  28.7438202  28.6783657  26.7274914
  27.7563286  28.0247288  25.4858570  28.0943851  23.9230957  26.3095264
  28.5874157  23.3914471  27.3205242  28.2528706  23.3288345  25.1202812
  28.0325661  23.7651215  24.2364140  28.6656132  21.9368706  24.9300880
  28.9988747  21.5802078  25.9046783  27.3899651  21.0642605  24.6256676
  26.8796978  21.5402355  23.7883053  27.7066326  20.0915222  24.2493534
  26.4495754  20.8439903  25.7652855  26.5303764  19.7028065  26.5385590
  27.2537308  18.9407883  26.2885761  25.5740986  19.4346638  27.5324173
  25.5694656  18.5495167  28.1512051  24.5662136  20.3743420  27.7505550
  23.6071587  20.1819515  28.7038898  23.7029285  19.3439407  29.1623287
  24.5443611  21.5484371  26.9861603  23.8190136  22.3040562  27.2494278
  25.5009594  21.8057804  26.0104160  25.4879627  22.7374897  25.4643841
  29.7238979  21.8586884  23.8910580  29.4033718  22.4025841  22.8434181
  30.8477478  21.1859322  24.0118160  31.1225281  20.7720566  24.8911915
  31.9865189  21.2300568  23.0120201  31.7201500  21.5151424  21.9942379
  32.9406433  22.2470016  23.5243549  32.9766045  22.0414925  24.5942039
  33.9096451  22.1587200  23.0330887  32.5460701  23.7514305  23.5382099
  31.6553974  23.8037128  24.1643639  33.5817337  24.6225681  24.2032566
  34.4893112  24.6583462  23.6006622  33.1005440  25.5999699  24.2385216
  33.7770462  24.2615108  25.2130032  32.1418419  24.3219776  22.1828537
  31.1467972  23.9232349  21.9853897  32.1008797  25.4005756  22.3346901
  32.7911949  24.0982304  21.3364639  32.6497955  19.8321114  22.9294147
  32.3560982  18.9015675  23.6795158  33.5497017  19.7877541  21.9526386
  33.8407021  20.6535225  21.5215187  34.2647171  18.5557880  21.5566845
  34.8432655  18.8235683  20.6725578  35.3694382  18.1491261  22.6147747
  34.9734573  18.0036087  23.6198235  35.8859558  17.2501221  22.2784691
  36.5177002  19.2589645  22.6562977  36.0621567  20.2154179  22.9127750
  37.2507706  19.0357342  23.4314575  37.1972694  19.5068798  21.2708359
  37.6713104  20.5835991  20.9877663  37.3303947  18.5619545  20.3829765
  33.2428665  17.4486408  21.2519836  32.2650375  17.7268486  20.5515232
  33.3955193  16.1855831  21.7117596  34.2249413  16.0415497  22.2698040
  32.3876686  15.1760254  21.4377995  31.9533234  15.3412323  20.4518242
  33.0383606  13.7401600  21.4422588  33.4500122  13.5696058  22.4370213
  32.2239838  13.0231771  21.3381996  34.1098976  13.5283642  20.3303089
  33.7069359  13.2731638  19.3502083  34.5576096  14.5200520  20.2654514
  35.1544228  12.5114250  20.7077465  35.7488480  12.9379854  21.5157108
  34.6998024  11.5564737  20.9713573  36.0711517  12.0781660  19.5166245
  35.4790077  11.8698702  18.6255131  36.7394218  12.8849325  19.2155533
  36.8479996  10.8796005  19.8338871  36.2155304  10.1059122  19.9804802
  37.3859520  10.4650764  19.0863037  37.4487762  11.0396452  20.6298485
  31.1509647  15.3283615  22.3415852  30.0854549  14.7758799  22.0133133
  31.3077354  15.9697094  23.5190601  32.1947556  16.4276485  23.6726322
  30.1502628  16.2333832  24.4352055  29.7394886  15.2611141  24.7073402
  30.6462727  16.9591293  25.7434349  30.7198448  18.0341091  25.5788078
  29.9906254  16.8460770  26.6068268  31.6175365  16.5261803  25.9828243
  28.9777012  17.0005741  23.8287697  27.8362923  17.0405159  24.3973103
  29.0828190  17.5635433  22.6169891  29.9956474  17.8262939  22.2737598
  27.8900967  18.0563774  21.8883419  27.5682869  18.9194965  22.4710617
  28.1715145  18.5861473  20.5043259  27.2283783  19.0874405  20.2868404
  29.2865009  19.6426029  20.5054226  29.2708054  20.0982704  19.5153618
  29.0610237  20.3958683  21.2603073  30.2147999  19.1677036  20.8229599
  28.4631424  17.5214291  19.5015965  28.5846977  18.0248356  18.5424805
  29.2903843  16.8758659  19.7965908  27.5297890  17.0087128  19.2690620
  26.8189545  16.9864197  21.7661457  25.6387119  17.3732452  21.6303101
  27.1157818  15.6719818  21.9437809  28.0915794  15.4172430  21.8887634
  26.0384922  14.6390152  22.0223770  25.3618088  14.7452307  21.1744804
  26.5294266  13.2318354  21.8215294  25.6218719  12.6427584  21.6894932
  27.1986675  13.2800255  20.4241505  28.1082897  13.8800669  20.4494514
  27.3916435  12.2803574  20.0348911  26.5070763  13.7873240  19.7515030
  27.4943638  12.7022667  22.9436741  28.4953327  13.1204586  23.0498924
  26.9231586  12.7010927  23.8720188  27.6996937  11.6361761  22.8467350
  25.0452652  14.7290382  23.2037868  24.0140476  14.1808825  23.1989250
  25.4490280  15.5516882  24.2214680  26.3817730  15.9387922  24.2060184
  24.6569462  15.7999840  25.4432201  23.8586998  15.0762682  25.6079826
  25.6265316  15.8848743  26.7097015  26.1109772  16.8495960  26.8604279
  25.0166912  15.8038616  27.6094971  26.7632999  14.8538141  26.8232880
  27.3710041  14.8735867  25.9186230  27.7459316  15.0818834  27.9849777
  28.7270279  14.6214094  27.8687077  27.8704853  16.1352081  28.2361622
  27.2379742  14.6544456  28.8494854  26.2783165  13.4432297  27.0446472
  25.8035049  13.0338640  26.1529751  27.1086025  12.7472858  27.1645947
  25.5278416  13.3709049  27.8318291  23.8827305  17.1269264  25.3674755
  23.2879162  17.5474606  26.3501949  23.8345604  17.8685188  24.2220860
  24.4260178  17.5201054  23.4812164  23.2922993  19.2490578  24.0421124
  23.7357903  19.9190884  24.7786427  23.7090435  19.7121906  22.5948105
  24.7701035  19.5660152  22.3926029  23.1187801  19.1486874  21.8722095
  23.4025097  21.2164345  22.2650738  22.3363647  21.4236202  22.3573284
  23.9048138  21.8962574  22.9532833  23.7643394  21.6216221  20.8309612
  23.5459385  22.6726742  20.6420288  24.8504486  21.5579586  20.7645454
  23.0369473  20.8283730  19.8996983  22.0511684  21.0480423  19.9087639
  23.4602489  19.8987408  19.0574265  24.7259560  19.7853870  18.7838955
  25.3756905  20.4702759  19.1428852  24.9757462  19.0907936  18.0945148
  22.6727047  19.1359291  18.3958340  21.6821213  19.1401043  18.5928898
  23.0330849  18.2865658  17.9849758  21.7307529  19.1617622  24.0472507
  21.2101898  18.1534634  23.6016102  20.9853954  20.2327995  24.4924889
  21.5768814  21.3239517  25.2642555  21.7067795  22.2209663  24.6587887
  22.5757179  21.1355743  25.6578827  20.5503559  21.6283531  26.3695698
  20.6330051  22.6258183  26.8012333  20.7744961  20.9986038  27.2305431
  19.2196140  21.2506847  25.7768593  18.6830444  22.0770912  25.3107624
  18.4241581  21.0332642  26.4896641  19.5141068  20.1330128  24.7766933
  19.3419533  19.1583347  25.2332802  18.6336651  20.1488953  23.5232182
  17.6678009  19.3915501  23.4576511  18.9108162  21.1343098  22.6159763
  19.6533451  21.8144093  22.6948204  17.9680004  21.5411587  21.4619427
  18.3400669  22.4876919  21.0698471  18.2110367  20.5565166  20.3890114
  17.8080845  19.5916290  20.6967754  17.6532745  20.8834324  19.5114384
  19.6341648  20.4169617  19.9053993  20.3604317  21.4735184  19.9861584
  20.0820770  19.3780823  19.4052525  16.5030537  21.7258320  21.8747997
  15.6139612  21.0003891  21.4271507  16.2776661  22.5096073  22.9535618
  17.0016632  23.0443382  23.4118118  14.9631567  22.7191696  23.5494690
  14.4081945  21.7907753  23.6843891  14.9469547  23.3161411  24.9348450
  15.4137917  24.3006878  24.9636879  13.9338112  23.5105457  25.2867641
  15.6963778  22.4772415  26.0594387  16.6326771  22.1275425  25.6245193
  16.2339916  23.3214874  27.2111111  15.4236183  23.7350807  27.8113880
  16.8412533  22.6457767  27.8133965  16.9280033  24.0381317  26.7719383
  14.8525543  21.2970543  26.4790192  14.8898516  20.4671535  25.7733459
  13.8013506  21.5779953  26.5433826  15.1298904  20.9362679  27.4694824
  14.0684786  23.5047626  22.6004677  14.4693298  24.4301624  21.8450756
  12.8125248  23.0871658  22.6419258  12.6514673  22.3973484  23.3618641
  11.7513676  23.6122150  21.8225346  11.9757643  24.6600952  21.6233006
  11.7365427  22.8475494  20.4706421  11.1580658  23.2338104  19.6314354
  12.7382174  22.8497791  20.0408230  11.5438757  21.4584904  20.6113243
  12.2101145  21.0579948  20.0480042  10.3718538  23.6504288  22.4876862
  10.1503038  22.8554535  23.4158993   9.5697803  24.6488380  22.1488457
   9.9571791  25.2515583  21.4369812   8.2247667  24.7060947  22.6946640
   8.2386074  24.5801315  23.7772732   7.5468359  26.0133324  22.2405434
   7.3391566  26.0385456  21.1708069   6.5567970  25.9910583  22.6959839
   8.2991657  27.2857876  22.7815285   9.3338909  27.3037853  22.4393005
   7.5706725  28.4286098  22.1290894   6.5488019  28.5202599  22.4971828
   7.6511278  28.2356091  21.0593338   7.9486237  29.4153042  22.3968353
   8.1865740  27.4330826  24.3789616   9.0287476  26.8669243  24.7768402
   8.3665714  28.4872284  24.5898609   7.1913571  27.2520008  24.7849865
   7.4774938  23.4215565  22.2401371   6.8518763  22.8026047  23.1158466
   7.6358023  22.9237366  21.0325375   8.1059732  23.4830036  20.3352146
   7.0467801  21.6745758  20.5593662   5.9722619  21.8056107  20.6871967
   7.2614079  21.4048958  19.0152874   6.8348365  20.4374638  18.7503128
   6.5480170  22.4303951  18.1405296   6.8085008  22.2972488  17.0905132
   5.4640732  22.3460979  18.2183895   6.8109384  23.4776363  18.2897148
   8.5873833  21.4370174  18.7367439   8.9533806  22.1894970  19.2072964
   7.4764380  20.3945293  21.3521557   6.6445694  19.5360641  21.4582615
   8.7081118  20.3144913  21.9219933   9.3980808  21.0462322  21.8292732
   9.1464396  19.2678394  22.8369198   8.8529730  18.3175297  22.3909454
  10.6783447  19.3227119  22.9308815  10.8981762  20.3902836  22.9388828
  11.0038013  18.9348240  23.8961411  11.3327398  18.6684933  21.7064533
  11.1067009  17.6038303  21.7656231  10.9125128  19.0766220  20.7872486
  12.8140478  18.8095188  21.7877293  13.1151285  19.8478184  21.9269543
  13.1090031  18.2384796  22.6680794  13.5069046  18.2568283  20.4605789
  13.3457165  17.1794071  20.4247189  12.9674435  18.6966858  19.6217670
  14.9829206  18.6114559  20.4010124  14.9561691  19.6188812  20.3340950
  15.4797335  18.3937397  21.2530003  15.4817238  18.1599216  19.6477451
   8.4525881  19.1925411  24.2659550   8.6284189  18.1198006  24.9031868
   7.7513986  20.1986485  24.7444534   7.7555866  21.0047436  24.1359329
   7.0934968  20.2460136  26.0794544   7.8154030  20.0573292  26.8740292
   6.6314421  21.7487087  26.2957211   7.4468184  22.4328880  26.0608578
   5.8185315  21.8646240  25.5788937   6.1279306  22.0306015  27.7059383
   6.1965618  21.2266197  28.6442490   5.5900750  23.2245159  27.9176903
   5.6636009  23.9796276  27.2509823   5.2232628  23.4033699  28.8415737
   5.8932896  19.3529701  26.1632919   5.1036620  19.2549820  25.2211266
   5.8478398  18.6814137  27.3388290   6.6247468  18.9339924  27.9327335
   4.8100166  17.7519112  27.8757744   4.5995007  17.0725880  27.0497589
   5.3549967  16.9315338  29.0891304   5.7343121  17.6130600  29.8505383
   4.3606844  15.9044724  29.6795387   4.9208422  15.3013735  30.3941021
   3.5946991  16.4077358  30.2695332   3.9084337  15.2890368  28.9018440
   6.4647136  16.1643181  28.7657185   7.1111608  16.7714176  28.3981094
   3.4277413  18.4311543  28.2948208   3.4506218  19.4845543  28.8839130
   2.2625580  17.8894234  27.8308544   2.2676060  17.1025124  27.1977329
   0.9986160  18.4569454  28.1225891   1.0625196  19.5229778  27.9044323
  -0.1653908  17.8590546  27.2970028   0.1858304  17.8047447  26.2665672
  -0.3961100  16.8649006  27.6797905  -1.4029619  18.7086315  27.3886814
  -2.1404493  18.0434742  26.9394817  -1.7204292  18.8863564  28.4161682
  -1.1610529  20.1218338  26.8002186  -1.2077065  20.3016930  25.5638618
  -0.7727382  21.0894852  27.5871086   0.6158802  18.3014030  29.6360664
   0.4235465  17.1540909  30.1132298   0.4417889  19.3865948  30.3706188
   0.4089985  20.2073689  29.7829456   0.0627588  19.4646816  31.7785587
   0.9045022  19.0332184  32.3202362  -0.0147494  20.9505005  32.2426720
   0.8813469  21.4836178  31.9250317  -0.7900933  21.3414021  31.5837822
  -0.3534797  21.2349205  33.7048035  -1.3490118  20.8489151  33.9239426
   0.5459605  20.6620045  34.7207069   0.3751113  20.9767265  35.7501984
   0.5214809  19.5746708  34.6485405   1.5374858  21.0255585  34.4508705
  -0.3515075  22.6839752  33.9932442  -0.7827291  23.2054138  33.1386986
  -0.8352715  22.8607788  34.9538765   0.6884181  22.9805107  34.1300812
  -1.1983850  18.6454811  32.0342827  -2.1274700  18.7512207  31.2579231
  -1.1177417  17.8231468  32.9626389  18.5561466  40.1398888  49.5879974
  18.1862030  40.6751366  50.3605003  18.4338760  40.5604782  48.6779099
  18.1467209  39.2203331  49.5049858  19.9990196  40.0101089  49.7994728
  20.4394379  40.9797516  49.5672417  20.3852806  39.7915077  51.2841263
  20.0173664  40.6419525  51.8581390  19.9627266  38.8787384  51.7041245
  21.9748211  39.6882286  51.4211349  22.2699299  39.7732124  52.4669762
  22.2389240  38.7822266  50.8756866  22.9340401  40.9838448  50.5215340
  22.4052525  42.3109932  51.5632896  22.5842495  42.0637245  52.6096725
  22.8946266  43.2162552  51.2039757  21.3369045  42.3515434  51.3509293
  20.5342216  38.8885078  48.8332443  19.8236237  37.8884697  48.5712738
  21.7602634  38.9445915  48.3095207  22.3044949  39.7446861  48.5989342
  22.4459858  37.8231239  47.6095009  21.7848530  37.5548553  46.7854614
  23.6981602  38.4036865  46.9458199  23.3723202  39.2847672  46.3929863
  24.3003387  38.7717018  47.7765121  24.6069965  37.5249023  46.1473732
  25.4409866  38.1642990  45.8580132  24.9240780  36.6880493  46.7696609
  23.9661083  36.7974014  44.6188354  25.3422890  35.9636803  43.8102760
  25.8947277  35.2518158  44.4235992  24.9341831  35.4419899  42.9446068
  26.0444870  36.7238579  43.4679985  22.6744404  36.5343094  48.4049110
  23.0654316  36.5503693  49.5975342  22.5663300  35.3926811  47.7761650
  22.3282738  35.4104919  46.7947807  22.8321190  34.0893173  48.3602753
  22.8326950  34.2621574  49.4364815  21.7405777  33.0095367  48.1532097
  21.9935112  32.1580162  48.7849007  20.4386864  33.6289062  48.6421127
  20.1985645  34.4361725  47.9501839  19.6400318  32.8891869  48.5867119
  20.5492954  34.0575638  49.6381645  21.7114029  32.5837250  46.6467552
  21.4365501  33.4108238  45.9921837  22.7385235  32.3845901  46.3410339
  20.9124126  31.2765255  46.4257660  19.8602562  31.5344009  46.3050308
  21.1293201  30.7121620  45.5188217  21.0092068  30.5712891  47.2512207
  24.2925777  33.7098083  48.0557976  24.7741203  33.9636116  46.9616089
  24.9864502  33.0779724  48.9949799  24.5974655  33.1674194  49.9227676
  26.4335003  32.7234650  48.9110565  26.7132244  32.6649857  47.8591843
  27.2094822  33.6947289  49.7339745  26.8052864  33.5698166  50.7385254
  28.2283649  33.3372955  49.8830261  27.2378960  35.2213707  49.3832703
  26.2348881  35.6455002  49.4301796  27.8227005  35.7485428  50.1370583
  27.8903904  35.3138542  47.9779587  28.9583511  35.1649857  48.1373405
  27.3675461  34.5956383  47.3463745  27.8315163  36.6660576  47.4472008
  27.6414585  37.4720573  48.0254288  28.1028957  36.9899445  46.2210388
  28.4246235  36.1567726  45.2803917  28.5593014  35.1923485  45.5484505
  28.6564751  36.4892082  44.3552818  28.1420250  38.1925697  45.7417831
  28.5255108  38.2489662  44.8091202  27.9698143  39.0493584  46.2481079
  26.6195698  31.2782402  49.4312363  26.1136513  30.8942223  50.5148659
  27.5652027  30.5018692  48.7538452  27.9868870  30.8607197  47.9091492
  28.0713978  29.2621899  49.1628609  27.2818031  28.8072319  49.7609062
  28.4016018  28.5866737  48.3737221  29.2141361  29.4868298  50.1826744
  29.9969215  30.4841709  50.0086060  29.3423271  28.5985031  51.1531296
  28.6318111  27.8818188  51.1934929  30.4275322  28.4913979  52.1376419
  31.2239742  29.1608105  51.8125763  29.7652798  28.9666443  53.5728760
  29.0941563  28.1638813  53.8782845  30.9671879  29.1088505  54.5703239
  31.5976048  28.2214184  54.6264000  31.6657295  29.8467064  54.1757240
  30.5959682  29.4064522  55.5510025  28.9592056  30.2628021  53.4160843
  29.5395679  30.9715633  52.8253784  28.0367298  30.0346775  52.8821335
  28.5361309  30.8257103  54.7678986  27.8174610  31.6282177  54.6017723
  28.1276550  30.1223030  55.4934807  29.3872814  31.3858185  55.1551056
  30.9161415  27.0749340  52.1614037  30.1147270  26.1190815  52.2376099
  32.2126808  26.7910595  51.9117165  32.8162041  27.5593395  51.6555901
  32.7950897  25.4416943  51.8977661  31.9968681  24.7268181  51.6980247
  33.7967949  25.3675728  50.7764320  34.2103653  26.3726902  50.6939888
  34.6180077  24.7208786  51.0854530  33.4493866  25.0707245  49.3064194
  32.8309174  25.9164143  49.0057526  34.4374428  25.0320911  48.8477631
  32.7356987  23.7308483  49.1148643  31.7164860  23.8171558  49.4915009
  32.7286530  23.4974842  48.0501595  33.3744049  22.5783043  49.8637619
  32.8796501  22.2049999  50.6612358  34.4935341  22.0117149  49.6011963
  35.2066498  22.2374249  48.5194893  36.1382370  21.8634949  48.4080200
  34.7244568  22.7205982  47.7750854  35.1039352  21.1582165  50.3882866
  35.9079552  20.7370148  49.9452934  34.8055153  21.1085548  51.3519173
  33.4510040  25.0314503  53.2250557  33.7963524  25.8264465  54.0893936
  33.6741180  23.7204304  53.3138809  33.2806320  23.1145229  52.6080856
  34.6581306  23.1736069  54.2448616  35.5795860  23.7518883  54.3128090
  34.1515961  23.2527466  55.2067680  35.0770645  21.7852669  53.8891296
  34.3421516  21.0924606  53.1430130  36.1156807  21.2912312  54.6261292
  36.5444641  21.9199848  55.2901421  36.5638351  19.8876686  54.6258659
  35.6840248  19.2449436  54.5953026  37.3837852  19.5372620  53.3766289
  36.9814262  19.8725185  52.4206886  38.3934135  19.9261055  53.5091171
  37.5180817  18.4568806  53.3233452  37.2277184  19.5941105  55.9546509
  37.9036102  20.4951038  56.4760170  37.2534599  18.3544598  56.3887482
  36.5860100  17.7294521  55.9598236  37.9223175  17.8385792  57.5816650
  38.7719193  18.3950882  57.9773598  37.0189285  18.0853939  58.7699699
  36.8030663  19.1537933  58.7755280  35.7081070  17.2616634  58.8197365
  35.1529770  17.6047745  59.6927834  35.2303619  17.4041557  57.8504295
  35.9015350  16.1891079  58.8021393  37.7261581  17.6373348  59.9029961
  37.2634277  18.0104923  60.6568069  38.1542587  16.3959351  57.3343201
  37.6645470  15.7862768  56.3906593  39.0186844  15.7485409  58.1855278
  39.3165321  16.2687359  58.9984131  39.3805580  14.3250952  58.1042175
  38.7751579  13.8984442  57.3044930  40.8291893  14.0983973  57.7855492
  40.8572273  13.0167532  57.6537666  41.2186508  14.7617359  56.4752693
  42.0794754  14.2410936  56.0557442  40.3579292  14.6258907  55.8204384
  41.5101585  15.7864609  56.7056160  41.7840500  14.4599209  58.7450676
  42.1847725  13.6817636  59.1393929  38.9937630  13.5749559  59.3548279
  38.8301544  14.1232252  60.4351807  39.0694008  12.2538757  59.1585312
  39.3309479  11.9451189  58.2331352  39.0315399  11.1906214  60.2029076
  39.1641273  11.6368523  61.1885071  37.6510887  10.4538040  60.3083916
  37.6997795   9.5774012  60.9546471  36.5693893  11.3831148  60.8034630
  35.6589508  10.7863216  60.8585815  36.8836594  11.6349983  61.8163261
  36.4580803  12.3207836  60.2589531  37.2481689  10.0275335  58.9186783
  36.3095665   9.4803782  59.0066795  37.1618156  10.8572378  58.2170868
  37.8618546   9.2251863  58.5091209  40.1607323  10.1733828  59.9367638
  40.6838684  10.2289858  58.8547249  40.4266396   9.3600616  60.9556046
  40.0278320   9.5784483  61.8574715  41.4023476   8.2993546  60.8569679
  42.1415672   8.5474281  60.0953140  42.0476952   8.1912766  62.3212700
  41.2979088   8.0860376  63.1053886  42.7266846   7.3436103  62.4136658
  42.9336853   9.4456377  62.5425415  42.3997765  10.3905420  62.4415550
  43.2433739   9.3962936  63.5864601  44.1591148   9.4929485  61.5954437
  45.0940323   8.6459932  61.7046394  44.0565338  10.2466335  60.5610466
  40.9645462   6.8386784  60.6492157  41.6233139   5.9423456  60.1373482
  39.6939697   6.7093115  61.1079102  39.1303444   7.4552798  61.4899559
  38.9388123   5.4202952  61.1222343  39.5454865   4.6673813  60.6190758
  38.7732887   4.9461999  62.6108704  38.2724762   5.6870322  63.2341309
  38.1106873   4.0855823  62.5192451  40.0998344   4.3717327  63.2494812
  40.5055962   3.6348681  62.5563087  40.8133812   5.1926370  63.3206558
  39.8582039   3.6870241  64.6502228  39.1644936   2.8555992  64.5253296
  40.8193359   3.2541308  64.9275894  39.3860168   4.6674204  65.5967407
  39.9883461   5.4645400  65.7447357  38.3587685   4.5646482  66.3689575
  37.5665245   3.4792991  66.5562515  37.6310806   2.7418993  65.8691025
  36.9066772   3.6127942  67.3091660  38.0794106   5.6022491  67.1324310
  38.5422363   6.4949942  67.0380859  37.1636543   5.5802693  67.5578766
  37.6279449   5.6570187  60.4035645  36.9061127   6.5995755  60.7089729
  37.1769600   4.5853152  59.6891975  37.7895851   3.9233801  59.2346306
  35.7623291   4.5819087  59.1928635  35.4795647   5.6117787  58.9748840
  35.7314835   3.7409575  57.8517761  36.2965736   4.3080835  57.1120872
  36.1284866   2.7461202  58.0537338  34.3006172   3.5477552  57.4118500
  33.5094757   4.4881930  57.5449295  33.9840050   2.4252086  56.8566551
  34.7610664   4.1488919  60.3050499  34.5099068   2.9843192  60.4548798
  34.3213768   5.1306839  61.0741615  34.8219986   6.0067506  61.1187286
  33.3436584   4.8527932  62.2280426  32.4942245   4.2874022  61.8447685
  34.0236244   4.1541085  63.4797630  34.3676033   3.1566207  63.2062759
  35.1750717   4.8474956  64.0831909  36.0751228   4.6056161  63.5179482
  35.0652351   5.9291258  64.1613693  35.4046669   4.4560208  65.0742188
  33.1424103   3.9310246  64.5379868  32.3510628   3.5100107  64.1943130
  32.6656494   6.1295438  62.7680016  33.2644806   7.2537451  62.6439819
  31.4005165   6.0346298  63.1784973  31.2045803   5.0492058  63.2816849
  30.5234070   7.1180596  63.4698105  30.3016586   7.6936264  62.5711136
  29.1146965   6.4696474  63.8059349  28.9135113   5.7559161  63.0070534
  29.2441692   5.9381547  64.7487259  28.0172482   7.5075784  63.8578568
  28.1791401   8.2605238  64.6291962  27.9895382   8.0484715  62.9119339
  26.6777706   6.8241057  64.2081909  26.5415115   6.2384620  65.3391800
  25.7086582   7.0015850  63.4206085  30.9563217   8.0664520  64.5992737
  30.7805672   9.3289976  64.5173950  31.6162128   7.5562778  65.6714401
  31.7255783   6.5524735  65.6487198  32.1857491   8.3273087  66.7823944
  31.3880539   8.9522476  67.1839294  32.6306458   7.3320432  67.8742294
  32.9335594   7.7730684  68.8238831  31.8363380   6.6412396  68.1570129
  33.8155670   6.4462509  67.3368301  33.5002365   5.8644156  66.4707336
  34.6758728   7.0459352  67.0395966  34.4165115   5.4724698  68.3675613
  35.5356445   4.8062325  68.1812744  33.7902832   5.1550541  69.4181976
  33.3318481   9.2663164  66.4317780  33.6907310  10.1356430  67.2440720
  33.9620743   9.1329689  65.2630157  33.6676483   8.3656244  64.6759872
  34.9404221  10.0140705  64.6272583  35.3633919  10.6758804  65.3830338
  36.0308304   9.2133255  63.9861336  35.6902695   8.6520042  63.1160545
  36.7866211   9.9030724  63.6104584  36.7804222   8.2622700  64.9984589
  36.0899925   7.4901433  65.3379135  37.5867081   7.8030438  64.4265213
  37.5331001   8.9758024  66.1028671  37.4232063   8.5693073  67.2583618
  38.3801384   9.8933430  65.8250427  34.3230629  10.8250036  63.4898758
  34.3021088  12.0258904  63.4925842  33.5610886  10.1718187  62.5928421
  33.4594917   9.1716633  62.6901398  32.8301315  10.8888464  61.3789635
  33.5607338  11.5110435  60.8620605  32.2169342   9.7924013  60.4283257
  31.6738987   9.1096144  61.0817909  31.2117786  10.3503017  59.4557190
  31.0361710   9.6217146  58.6642418  30.3072643  10.5453548  60.0318336
  31.6635208  11.2201405  58.9788437  33.2886734   9.0308275  59.7016830
  33.6486320   9.6085777  58.8503685  34.1280823   8.8451052  60.3717575
  32.9899254   7.6273890  59.1119156  32.3493805   7.0122876  59.7439346
  32.5144615   7.7075615  58.1343651  33.9375267   7.0940084  59.0366821
  31.8239899  11.9029036  61.8640060  31.8035812  13.0166311  61.3194885
  30.9004555  11.5568142  62.6796341  30.9278965  10.6053524  63.0173683
  29.7458134  12.3942003  63.0453758  29.1984215  12.7468767  62.1712532
  28.6816750  11.5321045  63.8148003  28.7694206  10.5264406  63.4036522
  28.9775829  11.4282179  64.8587112  27.2663422  12.1315145  63.7938805
  27.1209850  12.5776157  62.8100281  26.3410130  10.9632931  64.1668320
  26.6413708  10.6082239  65.1526337  25.2765160  11.1859570  64.0935822
  26.4874344  10.1367140  63.4715385  26.8861790  13.2866983  64.7692337
  27.2129364  13.0588741  65.7838364  27.2919502  14.1762924  64.2874908
  25.7999134  13.3709774  64.8012543  30.2914047  13.5682878  63.8444328
  29.8153038  14.6465406  63.7089005  31.2430458  13.3250771  64.7441940
  31.5806618  12.3733358  64.7616730  31.7470779  14.3441916  65.6013107
  30.9108334  14.9290190  65.9844284  32.3729286  13.5495863  66.7954102
  33.1287460  12.8590403  66.4212570  32.8475533  14.3367109  67.3813019
  31.1878204  12.8476505  67.6212845  30.2975388  13.4465990  67.8130188
  30.7873898  12.0876846  66.9503098  31.7305012  12.2982759  68.9353867
  32.6332779  12.9386120  69.5126495  31.2591782  11.1716661  69.4455185
  30.5511570  10.6072025  68.9980927  31.6303253  10.9715366  70.3632812
  32.7003174  15.3253174  64.9857101  32.4479904  16.5336666  65.0382919
  33.5691605  14.8410349  64.1019363  33.8189011  13.8856955  64.3142014
  34.3835983  15.6692095  63.2170143  34.8138466  16.4257221  63.8732681
  35.5427933  14.8784523  62.5699005  35.1139641  13.9655199  62.1566658
  35.8180542  15.3187284  61.6115227  36.7516899  14.7360964  63.4905357
  37.6451721  14.3891954  62.9714470  37.1670418  15.6743374  63.8583488
  36.6303520  13.8951426  64.8123932  35.8933067  14.3127708  65.4982910
  36.2528572  12.9048300  64.5576859  38.0032463  13.7043924  65.3807144
  38.7400551  13.3956871  64.6391525  38.3936882  14.6553440  65.7431335
  38.1303368  12.6371450  66.4414139  37.5167503  12.8302994  67.2200699
  37.9611130  11.7019911  66.0994339  39.0508728  12.6977110  66.8525772
  33.5102768  16.5789242  62.2951622  33.7974243  17.7759552  62.1446114
  32.4240303  16.0014229  61.7032738  32.3961182  14.9945202  61.7772255
  31.5483723  16.7152023  60.8002052  32.1420860  17.2249680  60.0414276
  30.4361973  15.7895098  60.1631012  29.7192554  15.4429588  60.9074097
  29.6895771  16.5749855  59.1338272  30.3207951  16.9917736  58.3489990
  28.9586658  15.9933910  58.5720329  29.1965923  17.4579239  59.5406265
  30.9492645  14.6828566  59.3940277  31.2590351  13.9602623  59.9449387
  30.8089104  17.8411045  61.5688400  30.7470417  18.9259281  61.0995178
  30.3039989  17.5863037  62.8019333  30.2169228  16.5889740  62.9355431
  29.6652126  18.4985275  63.7760086  28.8929863  19.1015892  63.2984276
  29.0915279  17.6429577  64.9302521  28.6304245  16.8140831  64.3931732
  29.8746033  17.2952862  65.6040573  28.0066299  18.4109268  65.7250443
  28.3932056  19.4160366  65.8936157  27.0854568  18.4337006  65.1427917
  27.8430138  17.7311649  67.1322021  27.1882515  16.8620319  67.0689850
  28.8020878  17.3884163  67.5205231  27.1472607  18.7909298  67.9650803
  27.7536812  19.6951485  68.0174484  26.2828064  19.1028957  67.3789978
  26.8158550  18.2892590  69.3369675  26.2863045  18.9955673  69.8276978
  26.1684456  17.5150452  69.2975388  27.6210461  18.0383606  69.8926773
  30.5969734  19.5377045  64.3493805  30.1729565  20.6530819  64.4489136
  31.7940712  19.1521893  64.6857681  32.0047455  18.1648273  64.6569595
  32.8155823  20.0930958  65.0693741  32.6418877  20.6893654  65.9651337
  34.0455856  19.2663059  65.5383987  33.6833344  18.5562973  66.2818756
  34.4627457  18.7131233  64.6969299  35.0422554  20.0109749  66.4131775
  34.5938683  20.9197655  66.8146133  35.1758308  19.3794613  67.2915039
  36.3861809  20.2055855  65.7797852  36.7793579  19.5780716  64.8021545
  37.2891464  21.0232563  66.3450546  38.1589165  21.2020397  65.8637695
  36.9754410  21.5879707  67.1214523  33.1847954  21.0662975  64.0085068
  33.5494003  22.2181587  64.2873459  33.1855621  20.6747799  62.7624931
  32.8490295  19.7392235  62.5847816  33.3579330  21.4615040  61.5305099
  34.2082634  22.1376610  61.6191139  33.7198753  20.5598221  60.2790413
  34.5572166  19.9034100  60.5158577  32.8895760  19.8595200  60.1880760
  33.8636856  21.3609886  58.9313431  32.9715424  21.9872112  58.9370155
  35.0334015  22.2179794  58.8967781  35.1525116  22.8107910  57.9898682
  34.9820290  22.9508114  59.7020226  35.9841805  21.7108879  59.0610123
  33.9121933  20.4148655  57.7086067  34.7755547  19.7520847  57.7671013
  33.0041237  19.8474579  57.5047493  33.9136124  21.1296921  56.8857346
  32.1707268  22.4142876  61.4017677  32.3816719  23.5576458  61.1179008
  30.9125443  21.9245701  61.4681015  30.7193298  20.9497566  61.6483994
  29.7497768  22.8223743  61.3872986  29.6675777  23.2972984  60.4096527
  28.4809685  21.9588623  61.6698036  28.5647926  21.2839508  62.5216064
  27.5596390  22.5199165  61.8262405  28.0658092  21.0131664  60.4993935
  28.9670982  20.4307499  60.3081703  27.1269302  19.8775482  60.7579918
  26.0740814  20.1570759  60.7195091  27.1829281  19.1826935  59.9200554
  27.3413124  19.4325008  61.7296295  27.7823086  21.7631874  59.1702194
  28.7198811  22.0684605  58.7056046  27.3348694  20.9898262  58.5458603
  27.1140652  22.6140995  59.3025169  29.6331902  23.8792877  62.5293388
  29.4278774  25.0726604  62.2680969  30.0526733  23.5206032  63.7894096
  29.9660301  22.5534439  64.0672455  30.1945858  24.4405479  64.9163818
  29.2534351  24.9893551  64.9502792  30.5474396  23.6547928  66.1629257
  31.3573418  22.9600086  65.9405899  30.8704243  24.3161106  66.9669495
  29.3086109  22.9202366  66.7045822  28.6197491  22.9036694  65.8600159
  29.5395546  21.8782444  66.9259720  28.6163845  23.6868076  67.8871765
  28.2666149  24.8621674  67.6595612  28.4912796  23.1978397  69.0351562
  31.2575417  25.4994526  64.6493149  31.0684071  26.6149006  65.1300659
  32.3069267  25.2237720  63.9186897  32.3450356  24.3391914  63.4327164
  33.3308525  26.2962818  63.6434746  33.3619003  27.0530529  64.4273300
  34.6293411  25.5015030  63.3848991  34.6947098  24.6490669  64.0610504
  34.6224251  25.0575447  62.3894348  35.8803787  26.4847603  63.4308281
  36.7851410  25.9304428  63.1813316  35.6417999  27.2806664  62.7253418
  36.1787872  27.1629505  64.7817764  35.5582809  28.0486736  64.9180679
  35.8910866  26.5250797  65.6175079  37.6782379  27.5089722  64.8352127
  38.3365746  26.7158527  64.4807281  37.8977127  28.2754726  64.0919647
  38.1496773  28.0107784  66.1339417  39.1174927  28.2733746  66.0136261
  37.6802292  28.8087635  66.5376053  38.1038742  27.2588959  66.8067551
  32.9039612  27.0487690  62.3609200  33.2385101  28.2005997  62.3286552
  32.1104736  26.4657078  61.4101944  32.0494995  25.4586048  61.4563332
  31.4986763  27.1448116  60.3310471  32.1948967  27.7415142  59.7417030
  30.9493008  26.0764294  59.3188667  30.6686115  25.1566944  59.8320923
  29.7150536  26.5426369  58.5615768  28.9550037  26.8449059  59.2820320
  29.9794712  27.3510361  57.8799057  29.2377815  25.7512398  57.9836464
  32.1279526  25.7456436  58.4039803  32.4242325  26.6470623  57.8675423
  32.9522324  25.2705307  58.9358902  31.7753315  24.8909454  57.1535645
  31.0411358  24.1324272  57.4250565  31.2329865  25.4743729  56.4095383
  32.6077271  24.3307877  56.7276001  30.4408607  28.1222191  60.9339790
  30.4608612  29.2821522  60.6177521  29.6196766  27.6611938  61.8773079
  29.7423840  26.7396526  62.2720299  28.6655025  28.5571423  62.5518951
  28.0684528  29.1615181  61.8689919  27.6069546  27.5951138  63.1092300
  28.1019974  26.9111443  63.7985878  26.5694675  28.4843292  63.8404198
  25.9618797  27.8221378  64.4572144  26.8975601  29.1371098  64.6493301
  25.9165249  29.0508060  63.1764412  26.8339481  26.7187748  62.0954857
  26.1231613  27.3582363  61.5720634  27.5060291  26.2940540  61.3498192
  26.1144600  25.5630798  62.7384224  25.2776756  25.7771912  63.4032898
  25.7487049  24.9284401  61.9312325  26.8869114  24.9826469  63.2429085
  29.2361755  29.6637211  63.4568100  28.6852551  30.7789669  63.4169044
  30.3689594  29.4591541  64.1524124  30.7911701  28.5443211  64.2225418
  31.0482597  30.5824051  64.8477325  30.3322449  31.0453262  65.5267944
  32.1658821  29.8462734  65.7008667  31.7075920  29.1947784  66.4449310
  32.8472443  29.2423592  65.1015854  33.0770950  30.7446690  66.4565887
  33.6042786  31.4915123  65.8629456  32.5515747  31.3130341  67.2239761
  34.0819321  29.9293957  67.2029495  35.2587051  30.4152393  67.2465210
  33.8053169  28.8350906  67.6193161  31.6524239  31.6285954  63.8955917
  31.4618702  32.8285027  64.1599197  32.2078171  31.2871628  62.7271996
  32.1432381  30.3176804  62.4514503  33.0104561  32.1100388  61.8968086
  33.4768257  32.8630753  62.5320587  34.0959282  31.2572880  61.2527161
  33.6367683  30.3988857  60.7623978  34.6034775  31.8783665  60.5146370
  35.1571350  30.8474445  62.2545242  34.6235123  30.7543526  63.2004013
  35.6902809  29.9428997  61.9618530  36.1599960  32.0096321  62.3852234
  35.9590569  33.2039642  62.2093239  37.3145638  31.6633682  62.6551132
  32.3403358  32.9611664  60.8531303  32.8343697  33.9995155  60.3805389
  31.1093998  32.4789505  60.4646645  30.8549404  31.5161610  60.6331482
  30.1556225  33.2283478  59.6650352  30.6608105  34.1448364  59.3601837
  29.7820969  32.4488068  58.3432617  29.0274067  31.7184620  58.6350555
  29.3419228  33.1054916  57.5928535  31.0620480  31.7933578  57.8512077
  31.8711262  32.4252472  57.1389122  31.3434525  30.5682545  58.0181084
  32.2250481  30.4459248  57.5406952  30.9984589  30.0073338  58.7839050
  28.9083557  33.6446915  60.3939629  27.9882298  34.1349144  59.7477684
  28.8798618  33.5186424  61.7031593  29.6512184  32.9345512  61.9928970
  27.8405190  33.7727203  62.7708778  28.0947933  33.2041130  63.6653786
  27.8764763  35.2314377  63.0598450  27.6449242  35.6606407  62.0850296
  27.1601639  35.4684067  63.8465118  29.2373066  35.6741638  63.6744843
  30.4023972  36.0260239  62.9802361  30.4731979  36.0918770  61.9748764
  31.3740654  36.1746483  63.8570442  32.4226494  36.3788338  63.6983490
  30.8765450  35.9171028  65.0983658  31.3975067  35.8928680  65.9633026
  29.5390415  35.6006889  65.0190125  28.9367981  35.2306061  65.8355484
  26.4087563  33.2741699  62.3425751  25.4758511  34.0172157  62.5217476
  26.2882156  32.1089325  61.8648224  27.0713329  31.4725246  61.9074211
  25.1520481  31.6793270  61.1059837  24.9170036  32.3944054  60.3176193
  25.4014816  30.4097767  60.3710709  25.5795422  29.6787262  61.1597137
  24.1938534  30.0071583  59.4822006  24.5622959  29.2505970  58.7893982
  23.3708191  29.4872723  59.9725380  23.7199059  30.7326088  58.8209915
  26.6412468  30.3915176  59.6239510  26.5566120  31.0076599  58.8926468
  23.9422188  31.5127926  61.9632111  23.8919029  30.8419247  63.0045891
  22.8057594  32.0125961  61.4331741  22.9137058  32.5911598  60.6123772
  21.3876495  31.7477283  61.8774376  21.4580345  31.3975983  62.9072723
  20.5143452  32.9971848  61.7209549  20.4817982  33.2709198  60.6663895
  19.4930096  32.8041649  62.0491600  21.1564388  34.0253029  62.6198807
  21.3038559  33.6430092  63.6299438  21.9526291  34.5202675  62.0638351
  20.1212120  35.1607933  62.7475586  19.2562046  34.6841888  63.2087631
  20.5368156  35.8855362  63.4476433  19.4578876  35.8857384  61.5442696
  18.7351513  35.2631302  61.0169067  18.8945942  36.7326126  61.9361916
  20.4120121  36.5305138  60.6788750  21.0429764  37.0997543  61.2247238
  21.0736332  35.9274864  60.2112045  19.9614353  37.1812630  60.0514946
  20.8204002  30.6186161  61.0065880  21.0076122  30.7624550  59.7891617
  20.0219784  29.6221485  61.4525185  19.8245583  29.2873058  62.8184853
  19.6180725  30.2167397  63.3491592  20.7196083  28.8065090  63.2132339
  18.7652721  28.2512932  62.9094276  17.8296127  28.8101654  62.9268303
  18.8531761  27.6290684  63.8000526  18.8735828  27.4886951  61.5467300
  17.9666367  27.1186981  61.0685539  19.5557995  26.6668816  61.7642212
  19.5267563  28.5240726  60.6434631  20.3822517  28.0581436  60.1544418
  18.5421181  28.9123726  59.5876808  18.4769421  28.2369022  58.5187340
  17.7098408  29.9479313  59.8687019  17.7272186  30.2944279  60.8172455
  16.7941399  30.4561710  58.9490089  16.3286190  29.5736599  58.5101852
  15.7544212  31.3947773  59.6463585  16.3325291  32.1960258  60.1066818
  15.0835142  31.6415443  58.8235054  14.7827330  30.7460861  60.6745872
  13.9206514  31.4098740  60.7401810  14.5607786  29.7710133  60.2409172
  15.3400221  30.5679035  62.0693398  14.6268091  29.8904533  62.8927879
  16.4110641  31.1094532  62.3963661  17.4377956  31.1738777  57.7507401
  16.8008823  31.2241516  56.6692581  18.6730404  31.6952305  57.9553719
  19.1218624  31.7348709  58.8593025  19.4358425  32.3244705  56.7797508
  18.7528152  32.9112434  56.1655273  20.6514473  33.2080612  57.2673645
  21.3725224  32.6068344  57.8211517  21.1740322  33.5518188  56.3747025
  20.2923355  34.4446411  57.9246254  19.0933399  34.8311119  57.7247849
  21.2029648  35.1491928  58.4872971  19.9229527  31.2578659  55.7672997
  20.1769142  31.6279106  54.6202888  19.9768295  29.9752426  56.1027794
  19.5962124  29.7011986  56.9972801  20.4270992  28.8384018  55.3015938
  21.4243927  29.1229191  54.9660988  20.7646790  27.6061230  56.2060623
  19.8522568  27.2006226  56.6432838  21.5457745  26.5212536  55.5141907
  20.9072247  26.1340313  54.7201996  22.4577446  26.9932175  55.1485939
  21.6978493  25.6870537  56.1990891  21.6751270  28.0891762  57.3783493
  21.9755363  27.2844753  58.0494041  22.5108337  28.6353245  56.9408379
  21.0844364  28.7926788  57.9650917  19.5449848  28.5805702  54.0441437
  18.4164639  28.2606735  54.2213478  20.0369091  28.6622219  52.8094902
  21.0063210  28.9285240  52.7124062  19.3118248  28.2446251  51.5548134
  18.3036079  28.6558514  51.5048866  20.1298866  28.6972961  50.2823639
  21.1933479  28.4697208  50.3555565  19.7176857  28.1014271  48.9531212
  20.0344658  28.6454334  48.0632896  20.0767193  27.0754147  48.8725243
  18.6287556  28.1493149  48.9471016  20.0855713  30.2442760  50.2323227
  20.9662590  30.4810963  49.6353226  19.1322651  30.5805645  49.8246269
  20.1930599  30.6540318  51.2366371  19.3558941  26.6803761  51.3856583
  18.3827686  26.0330486  50.9251213  20.5367451  26.0675888  51.7420197
  21.3050747  26.6369476  52.0669785  20.7738419  24.5915413  51.5020638
  20.0622330  24.0274200  52.1049576  20.6168232  24.1144066  50.0149193
  20.6534786  23.0250225  50.0161972  19.6807995  24.4522820  49.5701752
  21.7819386  24.5196266  49.0380211  22.1526966  25.5398598  49.1368332
  22.5771675  23.7821274  49.1466789  21.3663254  24.3472099  47.5485268
  20.9686775  25.3203678  46.8686142  21.3085041  23.1720390  46.9867554
  21.4925556  22.3334923  47.5187912  20.8983688  23.0347061  46.0740471
  22.0958557  24.1777687  52.1337624  23.0639191  24.9788837  52.0542488
  22.1533318  22.9208984  52.6268921  21.2958832  22.3951550  52.5348206
  23.2892475  22.2708912  53.2380638  24.1745586  22.9066143  53.2243843
  22.9881897  21.8412895  54.7228622  23.0309944  22.7414703  55.3360062
  21.9702778  21.4514980  54.7182159  23.9749489  20.8973160  55.3494835
  23.8182487  20.7002544  56.4100075  23.9275227  19.9385624  54.8330994
  25.6746445  21.4855003  55.3635750  25.7403870  22.4777565  56.8431511
  25.6989670  21.8412323  57.7270164  26.7555180  22.8746548  56.8523865
  24.9860268  23.2638683  56.8104401  23.6546249  21.1058369  52.3297310
  22.7738113  20.2924957  52.1205597  24.8835087  20.9869499  51.8226776
  25.4063435  21.8457527  51.9186134  25.4093952  19.9667282  50.8867378
  24.5907593  19.2501297  50.8202019  25.6694679  20.5816326  49.4924545
  24.7007236  20.9479084  49.1526299  26.3742218  21.4125004  49.5254135
  26.3827629  19.5168247  48.5028305  26.3103542  18.4695854  48.7963371
  25.7022800  19.6064167  47.1133423  24.6972160  19.2623253  47.3573647
  25.8468037  20.6235352  46.7490845  26.1910553  18.9348526  46.4075089
  27.8801193  19.8095684  48.3778496  28.0471077  20.7700100  47.8902321
  28.3634014  19.8409081  49.3543549  28.3021698  19.0496254  47.7202339
  26.6465893  19.2907619  51.4542274  27.6135235  19.9424057  51.7521057
  26.7099819  17.9543705  51.5996933  25.8109016  17.5014668  51.5182648
  27.8541489  17.0881367  52.1302605  28.6753559  17.7634068  52.3705559
  27.3866482  16.5573139  53.4640121  26.4222298  16.0689201  53.3244820
  28.1740608  15.8567019  53.7419243  27.3739262  17.6058922  54.5926895
  27.9145565  18.5252209  54.3676071  25.9285583  18.0419197  54.9102821
  25.5443020  18.5810242  54.0443611  25.3758869  17.1161346  55.0702057
  25.8227501  18.6414165  55.8144455  28.0124435  17.1333122  55.9663925
  28.1314240  18.0470448  56.5486641  27.4187546  16.4436092  56.5663452
  28.9589539  16.6088028  55.8355827  28.4586735  16.1489830  51.0703468
  27.8143253  15.7778835  50.0997620  29.7022400  15.7168951  51.3072701
  30.1750126  16.2309456  52.0368843  30.3932190  14.7046633  50.4231529
  29.7041225  13.9210625  50.1081657  30.9445610  15.3346720  49.0872269
  30.0888424  15.6523685  48.4914818  31.5960999  16.1771011  49.3194160
  31.6654758  14.3171711  48.3525505  32.3027153  14.8224726  47.8424568
  31.4815617  13.9827042  51.2310181  32.0140495  14.5448074  52.2274017
  31.7679062  12.7520542  50.8658142  31.2154312  12.3616219  50.1158600
  32.8414459  11.9729624  51.5138359  33.5601654  12.6092157  52.0302887
  32.2521019  11.0222111  52.5485954  31.4032421  10.4528627  52.1699448
  33.0191727  10.3828897  52.9855957  32.0245171  11.6745615  53.3916512
  33.6422462  11.1259403  50.5376320  33.0898743  10.6169958  49.5590096
  34.9526443  10.9383602  50.7831726  35.3270264  11.4198923  51.5881958
  35.8890991  10.2073364  49.8905067  35.7470818  10.6416121  48.9008942
  37.3663559  10.3435364  50.4128418  38.0500069   9.6918383  49.8687668
  37.8091087  11.7411880  50.1548424  38.7722969  11.8763208  50.6468849
  37.8273582  11.9600019  49.0871887  37.1121254  12.4673681  50.5731430
  37.4474525  10.0683861  51.7936592  37.6969223   9.1416616  51.8172150
  35.4715424   8.7151279  50.0250473  35.0197678   8.3286247  51.0816231
  35.5440941   7.9429221  48.9180412  35.8887711   8.3972197  47.6275978
  36.9523277   8.6300802  47.6798248  35.3332558   9.2676926  47.2786331
  35.6140900   7.1877623  46.7065468  36.2011566   7.1889901  45.7881508
  34.6333389   7.2322793  46.2329979  35.6666870   5.9101806  47.5350990
  36.6550941   5.4653158  47.6501846  35.0077286   5.1897469  47.0504837
  35.1445084   6.5068092  48.8519096  34.0728722   6.4707518  48.6559601
  35.4994583   5.5805378  50.0774117  34.8083496   4.6152029  50.2499390
  36.5689964   5.7865157  50.8268013  37.0059891   6.6768684  50.6359825
  37.1521645   5.0061784  51.8971329  37.0387955   3.9540148  51.6359825
  38.6384239   5.3343220  52.1493492  38.9450569   4.8984427  53.1001816
  39.1609001   4.9417338  51.2770004  39.0894432   6.7965808  52.1254730
  40.3428574   7.0015683  52.2159805  38.3256187   7.7668333  51.9229660
  36.4188118   5.1606512  53.2956963  36.7564964   4.5607615  54.3517647
  35.4171486   6.0214262  53.2404175  35.2664337   6.6243272  52.4442444
  34.4359436   6.1943865  54.2880707  34.8850174   5.8056345  55.2020226
  34.2361183   7.6935115  54.5581245  33.9101753   8.2794971  53.6987762
  33.4818039   7.8357811  55.3319931  35.5768433   8.4707279  54.9006500
  36.2570992   8.5006886  54.0494995  35.2934380   9.9329033  55.2765350
  36.2453270  10.3600636  55.5920296  34.8002090  10.4293880  54.4408760
  34.5492249   9.9459600  56.0728226  36.3117447   7.8121090  56.1766586
  37.2050514   8.3878298  56.4188347  35.6124840   7.9088035  57.0071945
  36.5843964   6.7707906  56.0051460  33.0486412   5.4718180  53.9914360
  32.5045166   5.6599455  52.9017563  32.5460281   4.5853238  54.8527489
  33.0269356   4.5418005  55.7398415  31.3480492   3.7230456  54.6854668
  30.7454796   4.0294695  53.8304138  31.7945766   2.2997310  54.2248955
  32.1937180   1.7879001  55.1005783  30.9202614   1.7755898  53.8389587
  32.8230209   2.2712955  53.2198448  32.5261116   2.3572135  51.9237251
  31.6629639   2.6692367  51.5021591  33.6340981   2.1310773  51.2165184
  33.6870995   2.4093184  50.1743240  34.5974731   1.7781192  52.0723228
  35.5415993   1.5294617  51.8136826  34.1543922   1.9657634  53.3735390
  34.6915665   1.8651762  54.3050613  30.4854355   3.4770386  55.9130135
  29.4566326   2.8977158  55.7175179  30.9044514   3.8633034  57.1465645
  31.8740406   4.1353636  57.2239075  30.1273060   3.5584776  58.4138908
  30.0353832   2.4936547  58.6279068  31.0195389   3.7830780  59.7127762
  31.3392029   4.8110294  59.8837585  30.5108795   3.4081140  60.6009026
  31.9622784   3.2607501  59.5499382  28.7278137   4.3244281  58.5602646
  27.7385979   3.7876105  58.9982529  28.7188778   5.5879884  58.0448303
  29.5667496   5.9328952  57.6179161  27.5145283   6.4499102  58.0674057
  26.6408844   5.8113480  57.9367027  27.4481411   7.0286150  59.4796677
  27.7590408   6.2878752  60.2163811  28.4289837   8.2078285  59.8326759
  28.4216423   8.4300375  60.8997612  29.4359322   7.8080573  59.7129288
  28.2841167   9.0617104  59.1708565  26.0634651   7.5600090  59.8608322
  25.6549664   8.3215199  59.1965027  25.3516502   6.7386041  59.9427719
  26.0809345   8.0430431  60.8378029  27.6004944   7.5465245  56.9815178
  28.6952991   8.0696583  56.6892662  26.4892178   8.1177788  56.5150642
  25.6603680   7.6972709  56.9103851  26.4801617   9.4214287  55.8943405
  27.2138844   9.3827839  55.0891953  25.1390667   9.6570539  55.3308907
  24.4311123   9.7842264  56.1498680  24.9805737  10.6022949  54.8117523
  24.6035976   8.6170349  54.3766670  23.6203690   7.6613793  54.6179008
  23.1120892   7.6632791  55.5708160  23.2023125   6.7487640  53.6599998
  22.4114399   6.0373583  53.8466148  23.8164787   6.8139424  52.4124146
  23.4445591   6.1900620  51.6131325  24.7162571   7.8038902  52.0798416
  25.0693855   7.9034562  51.0640717  25.1273689   8.6712790  53.0516167
  25.7336826   9.5090828  52.7403603  26.8248940  10.5693340  56.8603973
  25.9397240  10.8255224  57.7440834  27.8487434  11.4326582  56.5763283
  28.6693897  11.4789495  55.3780556  28.1330338  11.1487646  54.4884491
  29.5597649  10.8895502  55.5970268  29.2648296  12.9128227  55.1653824
  28.5542259  13.5040903  54.5878448  30.2299690  12.9157772  54.6588287
  29.2420368  13.4028063  56.5982323  29.0373135  14.4714165  56.6635208
  30.1677666  13.1266127  57.1030502  28.1186790  12.7047901  57.3046951
  28.3779068  12.4489450  58.3320465  26.9611721  13.6238194  57.6301994
  26.9050312  14.2462120  58.6114998  25.9984169  13.6537085  56.7053528
  26.1160965  13.0964775  55.8712425  24.7392445  14.4502153  56.8200874
  25.0534554  15.4871311  56.9391594  23.9342995  14.0016270  55.6154022
  24.5344105  14.0250263  54.7057762  23.7639351  12.9286041  55.7031403
  22.9466724  14.4584093  55.5518494  23.9394169  14.1192923  58.1183014
  23.1871128  14.9393539  58.6260872  24.1864471  12.9995632  58.7894554
  24.8336582  12.2890701  58.4789429  23.4738598  12.7196712  60.0719872
  22.3858624  12.7827454  60.0523949  23.8776855  11.3283119  60.4812965
  23.7552433  10.6387205  59.6460876  24.9028015  11.2622318  60.8458176
  22.9256935  10.7102518  61.5651436  22.9438992  11.3106289  62.4747124
  21.9214954  10.6425419  61.1466904  23.4125481   9.2879381  61.7795830
  23.2384815   8.5694094  60.9786339  24.4808445   9.2836313  61.9959793
  22.6563148   8.6762114  62.9357719  22.9409676   9.2169991  63.8383369
  21.5761108   8.8165970  62.8964005  22.9057350   7.2020082  63.0332184
  22.3644199   6.5931668  62.4362259  23.8792381   6.9483709  62.9434242
  22.7330742   6.8504877  63.9641953  23.8814030  13.7040682  61.2089462
  23.1727657  13.9606514  62.1557541  25.0550556  14.3632956  61.0995674
  25.5515747  14.1802855  60.2392883  25.5744991  15.4406605  61.9474754
  25.4394569  15.1361685  62.9853325  27.0709534  15.3911772  61.7039490
  27.5244427  14.4000006  61.7000427  27.2921429  15.7830992  60.7111893
  27.6546535  16.0822201  62.3121033  24.9250584  16.8376179  61.8050308
  25.3755264  17.7859135  62.4947968  23.9849434  17.0921059  60.9341240
  23.6785641  16.3562546  60.3138390  23.4804077  18.4776802  60.8021164
  24.2193413  19.2623749  60.9643936  23.0287914  18.7907124  59.3715591
  22.2170067  18.1056538  59.1270142  22.5022125  20.2508221  59.3069916
  22.6329212  20.6582355  58.3044777  21.4713612  20.3695698  59.6406746
  23.0251942  20.8761921  60.0305252  24.1853790  18.5507240  58.3947678
  23.7941742  18.5065269  57.3783531  25.0615425  19.1968822  58.4488182
  24.6317177  17.5668583  58.5392952  22.3393059  18.8039398  61.7755280
  22.2586536  19.9015446  62.3602371  21.3677979  17.9396019  62.0756340
  21.3833199  17.1745663  61.4164085  20.2167435  18.1521263  62.9742012
  19.9438019  19.2001743  62.8509369  18.9743652  17.3845558  62.4491425
  18.0602760  17.8074856  62.8658867  18.9682159  17.4804821  61.3633881
  19.0172901  15.9790621  62.8150291  20.0089035  15.5519419  62.6654472
  18.9176941  15.8163624  63.8882103  17.8947201  15.1518278  62.0944519
  18.0940075  15.3389187  61.0392838  18.0239277  14.0805683  62.2487831
  16.5397377  15.6098490  62.4794579  16.0472679  16.1848698  61.8109322
  16.0100632  15.5218468  63.6610756  16.5812511  15.0001755  64.6998978
  17.4139214  14.4445724  64.5654907  16.0491199  15.0502758  65.5568848
  14.9049768  16.0776482  63.9304695  14.5866709  16.1093636  64.8884811
  14.3865061  16.5263348  63.1888695  20.5888119  18.0237656  64.4298401
  19.7353172  18.1684151  65.3166122  21.8656559  17.7417755  64.7129059
  22.4950924  17.6223927  63.9321022  22.4677219  17.7465286  66.0741730
  21.9939632  16.9723186  66.6777039  24.0377598  17.6864548  65.9862213
  24.3946552  18.4350471  65.2788773  24.4568920  17.8301430  66.9821014
  24.5662460  16.3986320  65.5565414  24.3068848  16.1295586  64.5326157
  25.6480007  16.4569912  65.4361115  24.1631527  15.2680016  66.4463730
  23.2822857  14.5076008  66.0611420  24.6925621  15.1450443  67.5706711
  22.2802048  19.0444603  66.8955307  22.4557514  19.0026417  68.1068802
  22.1072445  20.1345806  66.1822281  21.8818703  20.0054531  65.2061996
  22.1877308  21.5607166  66.6730728  22.7376404  21.5301952  67.6137009
  22.9458485  22.4784260  65.7443390  22.4298515  22.5972786  64.7915955
  22.9835796  23.4674625  66.2009430  24.3637886  22.0748711  65.3258667
  24.2971497  21.0080757  65.1123123  24.7990761  22.6896839  64.0028076
  24.6457787  21.9934292  63.1782875  24.1821899  23.5846252  63.9213982
  25.8532505  22.9152241  64.1639023  25.4331665  22.1305218  66.4876938
  26.4276123  21.9711800  66.0708160  25.3722858  23.0875359  67.0058823
  25.2037735  21.3783226  67.2424622  20.8159828  22.1798820  66.9131546
  19.9347591  22.1449394  66.0182571  20.6227608  22.8147507  68.0389099
  21.3981247  22.8365059  68.6857758  19.2838497  23.4166775  68.4139328
  18.5768223  22.5870953  68.4119720  19.4012108  23.9745293  69.8377914
  19.4129601  23.0950947  70.4816513  20.3396587  24.5115395  69.9757690
  18.4475250  24.8957520  70.1542892  18.8839054  25.4931889  70.7660446
  18.9792290  24.5501556  67.4002991  19.6868401  25.4933853  67.1525040
  17.7510662  24.4855022  66.8191910  17.2853031  23.6256466  67.0718002
  17.1514702  25.3031178  65.7505722  16.0808048  25.4192123  65.9187927
  17.5510426  26.3136692  65.8356400  17.4095860  24.8179131  64.2717896
  16.9162140  25.3832455  63.3264198  18.2289143  23.7801189  64.0996780
  18.6502037  23.2892342  64.8753357  18.6202183  23.3376732  62.7496300
  18.4325638  24.1950054  62.1032066  20.1203346  23.0623875  62.7735710
  20.3420162  22.3657742  63.5820808  20.4330406  22.6431618  61.8172417
  21.0022964  24.2746506  63.0715942  21.0716686  25.0162716  64.1555634
  20.4583855  24.9186382  65.0391693  21.8447247  26.1474857  63.9491119
  21.8808899  26.8754520  64.6482925  22.3822727  26.1679573  62.6647263
  23.2811584  27.0094776  62.0035324  23.6446991  27.9027920  62.4895706
  23.5282955  26.7543602  60.6580772  24.2669258  27.3289776  60.1189651
  23.0783577  25.5434380  60.0390434  23.4718761  25.2517376  59.0765190
  22.3010082  24.6289845  60.8011475  21.8979702  23.7430649  60.3330574
  21.8627472  24.9413433  62.0810204  17.7950764  22.1864338  62.0446548
  18.1592770  21.7691650  60.9708710  16.8061562  21.5812302  62.7249908
  16.5272732  21.8869495  63.6463318  16.2213478  20.3215218  62.2982559
  17.0043354  19.6028709  62.0562325  15.4356966  19.6808548  63.5300140
  15.0561228  18.7352829  63.1428223  15.9961128  19.3098335  64.3881378
  14.1951427  20.4925747  64.0813065  13.6869974  20.9222050  63.2179947
  13.4963436  19.8225708  64.5821838  14.4768105  21.7930145  64.8547592
  15.5994616  22.1693325  65.1679840  13.4280663  22.6179733  65.0567169
  12.5488548  22.4237347  64.5991516  13.5862389  23.4642963  65.5847473
  15.3315458  20.4294395  61.0734978  14.9253740  19.4128609  60.5857849
  15.0785799  21.6879177  60.6389389  15.2633162  22.4848118  61.2313347
  14.3631706  21.9882259  59.3421364  13.8619003  21.0826092  59.0005417
  13.1683025  22.9240608  59.6774712  13.6731701  23.8575382  59.9261246
  12.7169466  23.0845947  58.6983833  12.2893572  22.4853287  60.8308945
  11.7004395  21.2015667  60.8681450  11.8974972  20.5359230  60.0408096
  10.6623449  20.8597870  61.7367516  10.3162613  19.8367443  61.7328033
  10.3371201  21.7772274  62.7464943   9.4714508  21.5195770  63.7287598
   9.2895517  22.2649097  64.3058167  11.0230513  23.0480709  62.8414841
  10.7764788  23.7409172  63.6324120  11.9538584  23.4135857  61.8323174
  12.3540792  24.4165592  61.8160095  15.3190756  22.4226837  58.1986275
  14.8737221  22.6425819  57.1035805  16.6438446  22.4764442  58.3946533
  17.1249027  22.2741070  59.2593765  17.5278530  22.7745171  57.2148323
  17.1508427  23.6119766  56.6277847  18.9449635  23.0103931  57.7581329
  19.1980877  22.2856903  58.5319748  20.1325378  22.8607464  56.7418633
  20.1515560  21.8067226  56.4647903  19.9766827  23.5409031  55.9044838
  21.1249714  23.0376129  57.1564636  19.2314396  24.3962383  58.2805862
  19.3537006  25.1211166  57.4757843  18.3995590  24.7365837  58.8972244
  20.1909771  24.3181114  58.7917557  17.5227833  21.5093975  56.2292557
  17.8201904  20.4289360  56.8044014  17.1664906  21.6826725  54.9178810
  16.5336266  22.8126984  54.2397270  17.0132504  23.7572384  54.4964485
  15.4737101  22.8089161  54.4940186  16.8014145  22.4922581  52.7762871
  17.7482948  22.9244938  52.4527245  16.0214920  22.8997192  52.1330147
  16.6957817  20.9654007  52.6708336  17.1896439  20.6311283  51.7584419
  15.6443644  20.6910648  52.7566681  17.3345890  20.6025925  53.9735909
  16.8264465  19.7458572  54.4161911  18.8469105  20.3183594  53.6846848
  19.6693630  21.2175884  53.5913277  19.1852360  19.0362797  53.5464859
  18.4443588  18.3506241  53.5136681  20.5152893  18.4802036  53.6315155
  21.2289658  19.2752438  53.4154625  20.8444138  17.9047909  54.9979858
  20.0555267  17.1607952  55.1085663  22.2675819  17.2110748  54.9802589
  22.4123993  16.7128010  55.9388275  22.4602852  16.5942688  54.1024704
  23.0459480  17.9679527  54.8833351  20.9272308  18.8307629  56.2022133
  21.8785477  19.3511791  56.0914726  20.0745716  19.5092430  56.2293549
  20.8911152  18.2312317  57.1118050  20.5991936  17.4842987  52.5740509
  19.8151836  16.5043697  52.6720581  21.5994511  17.4851475  51.6683846
  22.3220959  18.1879616  51.7311325  21.9808865  16.3870754  50.7849197
  21.2298927  15.6234941  50.9875336  21.7526283  16.7140312  49.3124123
  22.0217266  15.8295774  48.7349777  20.3438625  17.1647472  48.8931847
  20.3433723  17.0534725  47.8088799  19.6417675  16.5075703  49.4062920
  20.2164688  18.1894073  49.2423668  22.5803280  17.7385368  48.9395447
  23.4075089  17.4040661  48.5852814  23.4001007  15.8788872  50.9507179
  24.1979923  16.6035366  51.5257950  23.6843281  14.7248573  50.4648705
  22.9613781  14.1449385  50.0634499  25.0031300  14.1016340  50.6536484
  25.7633801  14.8559532  50.8564339  24.7993355  13.1919270  51.8767166
  24.2279320  13.7169638  52.6421814  24.2054424  12.3033495  51.6626511
  26.3502464  12.6073847  52.4802475  26.5971794  11.8583803  51.4018631
  25.3977814  13.4092436  49.3849716  24.4928913  12.8749514  48.6923523
  26.6987133  13.2254896  49.0719643  27.4383278  13.5393400  49.6839867
  27.1740685  12.5603724  47.8296394  26.5219364  11.7296724  47.5598984
  27.1538200  13.6375513  46.7448692  27.2075672  13.0699625  45.8158607
  26.1348801  14.0245934  46.7525024  28.2410545  14.6859713  46.8821487
  28.1066284  15.1696749  47.8496513  29.2120609  14.1950541  46.9473000
  28.2133770  15.9876232  45.6443405  29.8980255  16.6318188  45.9388123
  30.7032967  15.8977032  45.9654274  30.1514530  17.3698483  45.1777687
  29.9360008  17.2498245  46.8358841  28.5159912  11.9552221  48.0821152
  28.9800434  11.8773355  49.2361145  29.0612335  11.4609137  46.9948616
  28.4660015  11.3928528  46.1817398  30.4168034  10.7886028  46.9535599
  30.8148193  10.4659824  47.9156418  30.3320446   9.4344769  46.0918961
  29.5334969   8.8131304  46.4972992  30.0542049   9.7963533  45.1019707
  31.6096878   8.6082945  46.0313187  31.4885597   7.9774261  45.1507339
  32.4133339   9.3321705  45.8961983  31.8508949   7.7222056  47.2664795
  31.5680408   6.5664024  47.2106361  32.2218323   8.2306461  48.4457474
  32.5428085   9.1846514  48.5291176  32.3082008   7.6371121  49.2583694
  31.4237022  11.7338791  46.2526588  31.1607227  12.1890202  45.1422806
  32.6622009  11.9703274  46.7656746  33.0764122  11.5178719  47.5680542
  33.5859985  12.8696089  46.0368767  33.0516510  13.7649612  45.7192001
  34.6180649  13.4230423  47.0951538  34.1506424  13.6173830  48.0604782
  35.2152557  12.5193329  47.2166901  35.3873825  14.6599741  46.5356674
  36.2518845  14.6919746  47.1987762  35.6748123  14.5137014  45.4944687
  34.6197510  16.0085220  46.6008759  35.2122192  17.0337963  46.2066498
  33.4643860  16.0260963  46.9663086  34.3178711  12.0728350  44.9520187
  34.4865532  10.8395176  45.1065483  34.7930298  12.7665911  43.9217491
  35.0848732  13.7172537  44.0982971  35.5686569  12.1370182  42.8124084
  34.9683075  11.3475380  42.3603058  36.0841103  13.1697216  41.7445183
  36.5816841  14.0294132  42.1933517  36.8556595  12.6353445  41.1902122
  34.9935989  13.5819664  40.7666664  34.4122467  12.6860390  40.5488472
  34.2880707  14.2852774  41.2090340  35.5219116  14.1741047  39.1295853
  36.6126900  12.9217691  38.5652351  36.1413536  11.9423361  38.6467934
  36.8483353  13.1227341  37.5201607  37.5144157  12.9569721  39.1765785
  36.8137245  11.5157881  43.3974648  37.5048790  12.0964460  44.2120247
  37.1563339  10.2861595  42.9949989  36.5198784   9.7965975  42.3823318
  38.5008392   9.6615276  43.2434692  38.9141083  10.0720043  44.1647835
  38.3523903   8.1823740  43.5158195  37.4521027   8.1320696  44.1282272
  38.0402031   7.6944695  42.5924568  39.5030708   7.5111060  44.1786880
  40.2913780   8.1834221  44.8481636  39.7535896   6.3148389  43.9825783
  39.5228691  10.0697803  42.1571884  39.4892197   9.6572046  41.0153694
  40.5134201  10.8170643  42.6260605  40.5360603  11.0414066  43.6105728
  41.5562172  11.4058189  41.7666931  41.2864380  11.0817842  40.7615471
  41.4955406  12.9054184  41.8331757  41.2298393  13.3081503  42.8105736
  42.7299347  13.7260122  41.2734146  42.8699989  13.5201540  40.2122345
  42.5859947  14.8033943  41.3548241  43.6260109  13.4218225  41.8143578
  40.3188248  13.3630123  40.9703217  39.3463707  13.1199331  41.3985176
  40.4291496  14.4466152  40.9286957  40.3139267  12.9721375  39.9528351
  42.9627495  10.8801098  42.0882988  43.1855049  10.5013418  43.2011833
  43.8952103  10.8902273  41.1169853  43.5067368  11.0354128  40.1960564
  45.2977867  10.5592651  41.3629646  45.4653435   9.5597544  41.7642212
  46.1215820  10.7445354  40.1240158  45.9058914  11.7135544  39.6739273
  47.6140938  10.5800161  40.3927841  47.7203751   9.6686726  40.9812202
  48.1688309  10.5983953  39.4546852  48.0408516  11.4096336  40.9564438
  45.6745110   9.8152466  39.1936722  44.7856979  10.1762085  39.1573677
  45.8234787  11.4740372  42.4695168  46.1063919  12.6589441  42.2336006
  46.1691666  10.9068184  43.6315956  45.9399948   9.9359293  43.7895660
  46.7951317  11.5913391  44.7638702  47.2239609  10.8362465  45.4226913
  47.5421295  12.2239532  44.2843933  45.8619461  12.4902658  45.6638260
  46.4138794  13.1457825  46.5507355  44.5549049  12.4263716  45.3823128
  44.1888618  12.0102291  44.5379562  43.6536713  13.1343298  46.3421516
  43.7339249  14.2213392  46.3337669  42.6293106  13.1000795  45.9711914
  43.5545959  12.5472298  47.8055573  43.8781853  11.3991671  48.0831757
  43.1955261  13.4252138  48.7174454  43.0772285  14.3790646  48.4071579
  43.3509140  13.2184420  50.2238045  44.3441620  12.8304968  50.4497604
  43.0826035  14.6068878  50.8875160  43.9046021  15.2790327  50.6412621
  42.1310272  14.9938421  50.5230026  42.9858284  14.5456791  52.4359589
  42.3121338  13.8137589  52.8815231  44.3247871  14.2016172  53.0733147
  44.2689171  14.3337831  54.1538277  44.5035744  13.1550617  52.8266258
  45.0789490  14.8829880  52.6795273  42.5776672  15.9347162  53.0090446
  43.3339958  16.6672611  53.2909088  41.7562027  16.3157120  52.4023018
  42.1017456  15.7074728  53.9629631  42.4300919  12.1068344  50.7197304
  41.2310562  12.2194805  50.5400581  43.0323944  11.0833521  51.3373032
  44.0404320  11.0578794  51.3948097  42.2392769   9.9266701  51.8829536
  41.5435715   9.6265030  51.0993729  43.2494316   8.9042130  52.2653198
  44.1350555   9.3155022  52.7496834  42.7010612   8.3007956  52.9886971
  43.7111855   8.1835175  50.9806366  42.8413467   7.7151160  50.5201225
  44.0725861   8.9123659  50.2551918  44.8299866   7.1733603  51.3051682
  45.5890656   7.7409172  51.8434792  44.4517937   6.3265147  51.8778191
  45.5064087   6.6249537  50.1055527  44.7715683   6.0566797  49.5353127
  45.8714600   7.4954453  49.5605011  46.6088600   5.6830583  50.4180717
  47.3702736   6.1042671  50.9308395  46.2768250   4.8596239  50.8995399
  47.0401268   5.4150581  49.5449829  41.4658508  10.3108234  53.1370697
  41.8947334  11.2123203  53.8498611  40.3295326   9.5862389  53.4007301
  40.0402870   8.8532362  52.7689514  39.4396591   9.6607370  54.6422729
  38.6811562   8.9217024  54.3841972  40.0639000   9.0127926  55.8741875
  40.8572922   9.6587973  56.2500992  39.2444267   8.9458780  56.5897980
  40.7476654   7.6343651  55.6370850  40.1190262   7.0182080  54.9942284
  41.6940689   7.9108744  55.1723633  41.0050545   6.8955932  56.9222412
  41.9519348   7.2071943  57.3631783  40.1751175   7.1201119  57.5922356
  41.0564919   5.4153714  56.5621567  40.0450058   5.1073070  56.2974014
  41.7553482   5.3188887  55.7312622  41.5682411   4.5803380  57.7124825
  42.4059601   5.0248876  58.0599098  40.8960381   4.3998713  58.4443817
  41.7891808   3.6573892  57.3668633  38.9207230  11.1019688  54.9163780
  38.9007950  11.5684910  56.1034126  38.4353065  11.8515320  53.8602142
  38.1054802  11.3498011  53.0480690  38.0587654  13.2078886  53.9758759
  38.3444633  13.4860992  54.9903107  38.9110870  14.0059433  52.9924240
  39.8483543  14.0754557  53.5445137  39.0988464  13.5462132  52.0221176
  38.5418930  15.7790308  52.7924614  38.5850487  16.1099110  54.0861168
  36.5497055  13.3524981  53.8677025  35.9261665  12.9185810  52.8919754
  36.0255852  14.1252518  54.7706795  36.6501846  14.5520458  55.4398727
  34.6624413  14.6702709  54.7487793  34.0040741  14.0581198  54.1324005
  34.0235634  14.6084805  56.2173119  34.7910652  14.8958073  56.9359818
  32.7859840  15.4275026  56.5180588  32.4882507  15.3362904  57.5626335
  32.7625504  16.5002651  56.3264084  31.9790630  15.0369558  55.8980141
  33.6758728  13.1498795  56.5450935  32.6146774  12.9362049  56.4173927
  34.3133659  12.5229750  55.9216309  34.0312080  12.7456636  57.9683037
  35.0531044  13.0127029  58.2375946  33.3186264  13.2255583  58.6391411
  33.8423233  11.6734819  58.0217400  34.6258583  16.1083221  54.2958717
  35.3510628  16.9574432  54.8490295  33.6898537  16.4161434  53.3606377
  33.0523567  15.6525707  53.1855507  33.5221901  17.7345963  52.7429390
  34.3167458  18.3449898  53.1721306  33.7759895  17.6519299  51.2479935
  33.2817345  16.7999439  50.7811584  33.3791428  18.5642681  50.8027382
  35.2622719  17.6697063  50.9684563  35.6428299  18.6729450  51.1602478
  35.8091087  16.9970951  51.6292648  35.4549561  17.2696667  49.5496101
  34.9942398  16.2988968  49.3667107  34.7902641  17.8540039  48.9133377
  36.8615646  17.3140984  49.1644173  37.2024040  18.2353401  48.9293900
  37.6887169  16.3322811  49.1165047  37.4663849  15.1146793  49.5129814
  36.6005249  14.9544058  50.0076523  38.1540070  14.3904018  49.3623199
  38.7709732  16.4609375  48.4730415  39.1174469  17.3204765  48.0714836
  39.3195915  15.6318674  48.2947922  32.1391411  18.2470989  52.9913940
  31.1786938  17.5125942  53.1801529  31.9857426  19.5666714  52.9376717
  32.7708359  20.1630077  52.7183342  30.7422771  20.2131882  53.2309570
  29.8919353  19.5857582  52.9638252  30.4976463  20.4475594  54.7486115
  30.4917126  19.4540691  55.1969872  31.5320168  21.3293381  55.4597435
  31.6187725  22.3609657  55.1186905  31.2198505  21.2920208  56.5034180
  32.4698982  20.7817974  55.3665543  29.1643200  21.0252190  55.1719933
  28.3027611  20.6076279  54.6510086  28.8774948  20.8663063  56.2115021
  29.2015209  22.0964661  54.9741249  30.6822872  21.4874077  52.4579697
  31.6445770  22.0344486  51.9966621  29.4632034  21.9234371  52.1580276
  28.6634579  21.3176174  52.2741623  29.1381474  23.1852913  51.4872704
  29.8365002  23.9233608  51.8818054  29.1147079  23.0766582  49.9286575
  30.0603485  22.7291336  49.5126152  28.3899460  22.3023090  49.6772461
  28.7859917  24.4226818  49.2056236  27.7062912  24.5111523  49.0851250
  29.1211491  25.3160877  49.7324982  29.4707432  24.6888676  47.5511780
  28.6527672  23.4458637  46.5699692  27.5860901  23.5230522  46.7805519
  28.7705288  23.7854176  45.5409203  29.0070419  22.4511299  46.8403282
  27.8043499  23.6339684  51.9793854  26.7780399  23.1154499  51.4678078
  27.7752533  24.6536598  52.8785019  28.5971050  25.1524448  53.1881409
  26.5229645  25.3597126  53.2773285  25.7074699  24.6390438  53.2164726
  26.8144627  25.7424736  54.7536392  27.2111950  24.8851967  55.2974968
  27.4766388  26.6080112  54.7320099  25.5000210  26.1057072  55.3337479
  25.1567478  27.0385151  54.8863869  24.7946911  25.3476448  54.9932175
  25.4111080  26.1115074  57.2055817  26.3631706  27.5850258  57.5217171
  26.3935146  27.6994934  58.6052666  27.4164181  27.6095676  57.2421379
  25.8915825  28.4640923  57.0824547  26.2190800  26.4547081  52.2890511
  27.1612206  26.9932632  51.7304573  25.0049095  26.9952106  52.1762772
  24.3116627  26.4636497  52.6831818  24.6304970  28.1945496  51.4357719
  25.4824486  28.7595768  51.0575867  23.9169960  27.7083721  50.1581345
  22.9416103  27.3302326  50.4642982  23.7968388  28.9192657  49.1415443
  23.0425911  29.6524334  49.4273262  24.7754345  29.3721428  48.9823227
  23.4748878  28.4846821  48.1951904  24.5223064  26.6926308  49.3837776
  25.2558804  26.9619579  48.8261681  23.7734356  29.0988579  52.2592735
  22.8773575  28.5119133  52.8963547  23.9607601  30.4866962  52.4029579
  24.8319511  30.8460121  52.0396156  23.1010056  31.4692326  53.1149406
  22.1327305  30.9854202  53.2432785  23.8224964  31.7604465  54.4439468
  23.1878166  32.3633041  55.0934448  24.2046299  30.4788399  55.2883644
  24.8874378  29.8648911  54.7010536  24.7413311  30.7606697  56.1942482
  23.2934017  29.9354744  55.5383987  25.0980854  32.6093979  54.2740898
  24.8651352  33.6733437  54.2310219  25.7594986  32.5011177  55.1336899
  25.5813427  32.2626877  53.3606567  22.9145260  32.7282906  52.3503265
  23.6899166  33.2052689  51.4850464  21.8493118  33.4731636  52.6852264
  21.2290382  33.0983658  53.3887062  21.7354908  34.8758354  52.5157242
  22.0919895  35.2002411  51.5380898  20.2789516  35.3680000  52.7335739
  20.0721397  36.3500900  52.3083344  19.5687599  34.7486572  52.1857262
  19.7159386  35.2817421  54.1751251  19.4741306  34.2283974  54.3168526
  20.4713097  35.5463066  54.9150772  18.5179443  36.1305847  54.4100037
  17.9546623  36.6094933  53.4313431  18.2953758  36.4814987  55.5905914
  18.7902164  35.9907646  56.3216286  17.4923820  37.0468559  55.8265419
  22.8375320  35.5658264  53.3677025  23.0079422  35.2719536  54.5893936
  23.6671925  36.4287491  52.7147102  23.4092636  36.6192932  51.7569695
  24.7180252  37.2546959  53.3533096  24.2319031  37.7754669  54.1782875
  25.8987293  36.4396286  53.9529037  25.6076813  35.7200699  54.7181625
  26.6624889  35.6820679  52.8808556  27.2892151  36.3504906  52.2904930
  27.3312263  34.9576225  53.3456917  25.9569569  35.1395645  52.2515602
  26.7329903  37.4158478  54.5340881  26.5248585  37.5131149  55.4661942
  25.2612362  38.3247147  52.3904037  25.3433609  38.2292213  51.1972885
  25.7232571  39.4296799  52.9838791  25.6309891  39.4785461  53.9884682
  26.2971535  40.5917969  52.3775177  25.7666206  40.7179832  51.4337349
  26.0163155  41.8498764  53.2443428  26.1616802  42.7532272  52.6519508
  24.9752731  41.7897987  53.5617256  26.7637482  41.9630013  54.5864830
  26.9683838  43.1115417  55.0739861  27.0673695  40.9606018  55.2261734
  27.7989235  40.4737358  52.1202049  28.3039722  41.3034096  51.3210793
  28.5265293  39.5880241  52.8032265  27.9160061  39.0334435  53.3861504
  30.0131302  39.6603851  53.0690002  30.2214832  40.6450157  53.4875603
  30.5204296  38.5571022  54.0956421  29.9587421  37.6721535  53.7965355
  31.9990654  38.3107834  54.1802139  32.3647423  37.9186592  53.2312050
  32.5623398  39.2322273  54.3277283  32.3256416  37.5779305  54.9180336
  30.1856155  38.8131866  55.5610313  30.7966003  39.6853867  55.7935715
  29.1145935  38.9862022  55.6662903  30.4570198  37.9939003  56.2267723
  30.7195053  39.4812050  51.7210350  30.3440113  38.5997772  50.9716415
  31.6936493  40.2790337  51.3255920  32.0314713  41.5522156  51.8663597
  32.6321640  41.4514961  52.7703133  31.1509132  42.0703583  52.2461586
  32.7176590  42.3004799  50.8025055  33.6036835  42.8162727  51.1726608
  32.0050049  42.9451332  50.2880630  33.2224274  41.3561478  49.8013458
  34.2890511  41.2106895  49.9723930  33.2207108  41.7896729  48.8012657
  32.3069038  40.1289177  49.9947128  31.5268936  40.0612068  49.2363586
  33.1101189  38.8320770  49.9154129  33.6069336  38.2968674  50.9171982
  33.0611992  38.2583351  48.7014580  32.6720886  38.7772865  47.9272575
  33.3830223  36.8447685  48.4255524  32.6286240  36.2767067  48.9698868
  33.0968285  36.5579948  46.8994865  32.0469284  36.8128357  46.7550201
  33.5681343  37.3295288  46.2906303  33.3861923  35.1809692  46.3285637
  34.4270287  34.8898430  46.4700203  32.8560371  34.3624077  46.8153801
  33.1902313  35.1904526  44.8267365  33.9851265  35.6324425  43.9960289
  32.0352287  34.8858757  44.3261795  31.3549881  34.5418854  44.9887848
  31.8886528  35.0900536  43.3479538  34.7438889  36.2937431  48.8745766
  34.8126106  35.1365204  49.2238083  35.7472343  37.1962357  48.8530350
  35.6515770  38.1254120  48.4688644  37.0576515  36.8036957  49.3225327
  37.0771141  35.7225990  49.1848679  38.1291733  37.5076561  48.4620781
  39.0674744  36.9529724  48.4664230  37.8276176  37.5830765  47.4173393
  38.4432755  38.9449463  48.8386459  37.5673447  39.6639519  49.3360214
  39.5897522  39.4366379  48.8064537  37.2450829  36.9251213  50.9316368
  38.3391418  36.6017952  51.5373116  36.2370529  37.5231094  51.5877266
  35.5175858  37.9380493  51.0130157  36.1299477  37.7374954  53.0250854
  37.1057587  37.6301422  53.4987640  35.7000122  39.1615143  53.3101082
  34.7009506  39.3984718  52.9442825  35.7562370  39.2872658  54.3913689
  36.5545235  40.3117447  52.6665382  37.5651245  40.2036667  53.0603676
  36.5796928  40.3247910  51.5769043  36.0908852  41.7429276  53.0918007
  35.1543236  41.8595238  53.8371773  36.7010918  42.7679253  52.4876747
  37.2745857  42.5823326  51.6772614  36.4712296  43.7289810  52.6965561
  35.1777458  36.7643127  53.7155113  35.2263184  36.5939941  54.9338074
  34.4313202  35.8237000  52.9587288  34.2264137  36.0615273  51.9987526
  33.7339287  34.6875572  53.5699005  33.0039139  35.0507011  54.2932968
  32.6799774  33.9222260  52.6068802  33.1694527  33.7219620  51.6537781
  32.1512566  32.6126404  53.2769890  32.8127556  31.7756596  53.0534439
  31.9730091  32.7992554  54.3359985  31.1579170  32.2584457  53.0014381
  31.5551968  34.9647942  52.3544960  31.0762119  35.1275291  53.3199959
  32.0908318  35.8600273  52.0386620  30.5639420  34.5316658  51.2876320
  29.7319374  33.9994507  51.7487297  30.1631241  35.4325676  50.8230667
  31.1013165  33.9239922  50.5595818  34.6856537  33.6699486  54.1900558
  35.5302162  33.1070900  53.4877701  34.5666046  33.4393806  55.5156441
  33.7992821  33.8744659  56.0075989  35.4084129  32.4707565  56.2685509
  36.4425583  32.5772705  55.9409714  35.4271660  32.8504601  57.7621880
  34.4159622  32.7189445  58.1472473  36.0938568  32.2345276  58.3657150
  35.9847145  34.2482567  58.0414124  36.8828354  34.4492722  57.4573975
  35.2670746  35.0013084  57.7158318  36.1626472  34.4775467  59.5480499
  35.1646881  34.4855881  59.9863548  36.6966782  33.6252441  59.9681625
  36.8722115  35.7246361  59.9662437  36.7360992  36.5447960  59.3927345
  37.8343773  35.8047523  60.8995857  38.0244827  34.9386482  61.8307915
  38.7790718  35.1574593  62.4654732  37.3445587  34.2241859  62.0483780
  38.5968132  36.8661728  60.8886566  39.2886848  37.0771675  61.5935631
  38.5053711  37.5572853  60.1578331  34.9299927  30.9935799  56.0408707
  34.3051491  30.4345036  56.9579544  35.3408585  30.3517399  54.9266090
  35.8918228  30.9378624  54.3158684  35.3512421  28.8629818  54.6079254
  34.3730965  28.4100342  54.7697067  35.7247124  28.5611019  53.1840248
  36.7838898  28.7799530  53.0485764  35.6338234  27.4966335  52.9678192
  35.0347748  29.4514599  52.1404877  33.7900467  29.2456646  51.5225868
  33.5764351  30.3873730  50.8774261  32.7602272  30.6156292  50.2080193
  34.6078758  31.1989899  50.9751778  34.5908737  32.1209335  50.5630760
  35.5750046  30.6544285  51.7162590  36.5230675  30.9996605  52.1014709
  36.3716354  28.2213192  55.5903778  37.3884354  28.8590431  55.8356819
  36.0989342  27.0498829  56.1355324  35.2807732  26.5137539  55.8839874
  36.7533493  26.5069103  57.2799377  37.7037277  26.9989376  57.4867859
  35.8405418  26.5684490  58.5344582  34.8244286  26.2485943  58.3035774
  36.3621902  25.7150288  59.6869240  36.6502190  24.7209473  59.3449593
  37.2196617  26.1987514  60.1547432  35.6280861  25.7110271  60.4926376
  35.7705956  28.0216675  59.1227036  34.9458923  28.0830612  59.8327751
  36.7326584  28.3266697  59.5344200  35.5750847  28.7720833  58.3567085
  37.2501755  25.0937519  56.9498177  36.5402336  24.2767334  56.3633385
  38.5248489  24.8233528  57.1988792  39.0456161  25.5250168  57.7054176
  39.2197647  23.5524750  56.9455338  38.4824104  22.7688980  56.7711411
  40.0711288  23.6575584  55.6794434  40.8524818  24.3961868  55.8583679
  40.7741280  22.8248463  55.6575050  39.3592110  23.7928085  54.3446236
  38.3674011  24.7577305  54.1001282  38.1609421  25.5653324  54.7868271
  37.6014099  24.6807728  52.9375687  36.7886162  25.3621635  52.7338905
  37.8365173  23.6552124  52.0408440  37.0107689  23.5572548  50.9045753
  37.5556908  23.1532860  50.2252579  38.7676125  22.6602974  52.2909508
  38.7435532  21.7825756  51.6621208  39.5853424  22.7687588  53.4304123
  40.3002434  21.9592609  53.4360237  40.0557060  23.1712494  58.2173615
  40.9276314  23.9625111  58.6394920  39.7877388  21.9307194  58.7132950
  39.1066437  21.4213219  58.1685753  40.1438904  21.3876991  60.0094566
  40.8045044  22.1151752  60.4811211  38.8546906  21.1485367  60.7792969
  38.1735840  20.5293655  60.1954918  39.0881653  20.6567554  61.7236176
  37.9989471  22.4268970  61.1844788  37.3356094  22.6892090  60.3602982
  37.0561523  22.1336460  62.3646011  37.5466423  21.9049454  63.3107567
  36.4176102  22.9919701  62.5735168  36.4278069  21.2764874  62.1226120
  38.7492180  23.5818863  61.6603661  39.4314423  23.9351883  60.8871613
  38.0816650  24.4054928  61.9136276  39.4577675  23.2888870  62.4350967
  40.8942413  20.0547962  59.8336906  40.9147873  19.4025116  58.8183327
  41.5312195  19.6281166  60.9624748  41.4093895  20.2087460  61.7798653
  42.3908272  18.3887043  61.0141563  43.1170197  18.4689445  61.8230515
  41.4935799  17.0675812  61.1473236  40.7880135  16.9718933  60.3220215
  42.0194130  16.1130466  61.1256447  40.6709747  17.1702843  62.4533501
  40.2469826  18.1675701  62.5705986  39.8223190  16.5039387  62.2988510
  41.5687294  16.7423687  63.6106224  41.9843750  15.5751228  63.6444511
  41.9894829  17.6459389  64.3768234  43.4277611  18.2838497  59.9763222
  44.0744629  19.3048916  59.7325516  43.5534286  17.1708889  59.1783295
  43.1111145  16.2895088  59.3965721  44.4681740  17.0990887  57.9853439
  45.5008430  17.3776894  58.1952858  44.7364960  15.6683369  57.5216980
  43.7618752  15.1812983  57.4898453  45.2113724  15.6876240  56.5407715
  45.5988731  14.8718433  58.5304871  46.5817833  15.3086491  58.3538895
  45.2731285  14.9997778  59.5627747  45.7104721  13.4174118  57.9634209
  44.7109108  12.9832010  57.9425163  46.1849174  13.5090094  56.9863777
  46.6256676  12.6666698  58.9465218  47.0079956  11.7631845  58.4715042
  47.4162292  13.3659277  59.2188263  45.9483719  12.2815237  60.1819725
  46.5722389  11.6083469  60.6035500  45.7877617  13.0680943  60.7948456
  45.0455704  11.8377018  60.0921440  44.0300064  17.9972172  56.8521080
  44.8133011  18.5140324  56.1169281  42.7183647  18.1581936  56.7183533
  42.1981926  17.9327240  57.5542297  42.1169395  18.7391415  55.5122643
  42.4949684  18.1268959  54.6935158  40.5545273  18.5187759  55.6245384
  40.0621681  19.1238327  56.3858490  40.1659546  18.8837166  54.6737862
  40.3197594  17.4646091  55.7719040  42.4780655  20.1967125  55.2510605
  42.4171448  20.5829563  54.0813560  42.9265785  20.9423428  56.2622528
  42.6467667  20.5795059  57.1623383  43.5420837  22.3003235  56.1006241
  42.7546082  22.9724598  55.7597237  43.9987335  22.8504868  57.4760895
  43.2713051  22.5411682  58.2266045  45.3269806  22.3722115  57.9399033
  45.4025803  22.5571880  59.0114288  45.3169746  21.2957878  57.7686996
  46.1959915  22.7597275  57.4081688  43.9477654  24.3101578  57.5388222
  44.3792343  24.7785110  56.6541862  42.9908371  24.8248501  57.4523277
  44.4030113  24.7335320  58.4341469  44.6280556  22.2930870  55.0311470
  44.9009399  23.3559666  54.4565086  45.1683388  21.1415157  54.6987572
  44.9324570  20.3813858  55.3205795  46.1359749  20.9618988  53.5503120
  46.9639053  21.6606979  53.6699257  46.8469162  19.5892849  53.5634155
  46.9366302  19.2780342  54.6041718  46.0219231  18.4770374  52.8157501
  46.0849609  18.6430321  51.7403030  46.4922905  17.5161629  53.0244942
  44.9733887  18.5001812  53.1126289  48.2204361  19.6987343  53.0468979
  48.1520157  19.8640079  51.9716721  48.8428116  20.4369831  53.5526047
  48.7259483  18.7429523  53.1848717  45.6245689  21.3583908  52.2124443
  46.3832016  21.8120594  51.3737373  44.3126068  21.1708317  51.9727058
  43.7040062  20.7605038  52.6664886  43.6720772  21.5356426  50.7052536
  44.1615639  21.0844154  49.8421745  42.1790123  21.1632080  50.7226448
  41.7551231  21.7256565  51.5545540  41.7374268  21.6383247  49.8466492
  42.0202065  19.6710415  50.8422356  42.5183144  19.3558235  51.7590904
  40.5039024  19.1765728  50.9722443  40.0041695  19.7666035  51.7405052
  39.9452019  19.2653008  50.0405350  40.4677124  18.1577015  51.3578529
  42.5644836  18.8361111  49.7335968  43.6543159  18.8442974  49.7161446
  42.2544861  17.8001537  49.8706856  42.1652260  19.1793709  48.7792053
  43.7571106  23.0634556  50.4306374  43.4040642  23.4262028  49.2904091
  43.9709206  23.9731331  51.4725418  44.1855698  23.5350304  52.3569031
  43.7596779  25.3950710  51.4088364  43.6894989  25.7112198  50.3680534
  42.4126434  25.8337898  51.9740028  42.4524460  25.5748234  53.0320473
  42.2585793  26.9125443  51.9484177  41.0545921  25.2191105  51.4215240
  41.1020699  24.1406364  51.5723228  40.1615028  25.4880943  51.9855614
  40.7958946  25.5291061  49.9277077  41.6441307  25.2042484  49.3251648
  39.8854866  24.9613342  49.7356224  40.5019684  26.9811840  49.8339996
  41.3288231  27.5608044  49.8553734  39.4175224  27.5989685  49.4096222
  38.3873672  26.9995213  48.9277267  37.7137184  27.5571766  48.4224396
  38.4613686  26.0214748  48.6867905  39.3343353  28.9006767  49.5370407
  38.5012436  29.3164539  49.1456451  40.1286888  29.4958496  49.7237816
  44.8966675  26.2392883  51.9113922  44.7595024  26.9568367  52.8617439
  46.1256752  26.0497150  51.3528137  46.4647598  25.3525047  50.0933876
  45.5634613  25.2142754  49.4961853  46.7407532  24.3491650  50.4178123
  47.6666908  25.9111004  49.4627457  47.2891121  26.6958046  48.8071747
  48.2931671  25.2069263  48.9152374  48.3761826  26.4483738  50.6941452
  49.0558319  27.2728596  50.4787445  48.9823418  25.7067623  51.2144203
  47.2348938  26.9022942  51.6185799  47.6230927  26.7047005  52.6177597
  46.9227219  28.4096012  51.3479767  47.6350632  29.2306442  51.9334946
  45.8650665  28.8117847  50.6300392  45.3186798  28.1646194  50.0798225
  45.4875717  30.2656116  50.6042557  46.3663635  30.8971272  50.4738045
  44.5458031  30.3470650  49.4259338  44.1621017  31.3622684  49.3247757
  45.1174545  30.0634251  48.5422707  43.2572975  29.5135536  49.5784798
  43.1906166  28.2614651  49.8177147  42.1920052  30.1522694  49.4530983
  44.7645378  30.8218651  51.8306732  44.6831093  32.0553856  51.9594307
  44.1194305  29.9695625  52.6421051  44.2899818  28.9831944  52.5076065
  43.2600822  30.3363266  53.7845688  43.0107574  31.3972740  53.8026314
  41.9583893  29.5595169  53.8307343  42.2097816  28.5063038  53.9558029
  41.4084129  29.8761692  54.7169418  41.0416718  29.6783066  52.6632156
  41.5186539  29.3645573  51.7346954  39.8861694  28.7075958  52.8636665
  40.2934723  27.7017307  52.9658852  39.4955902  28.9728069  53.8461189
  39.1165199  28.7703285  52.0943794  40.5252533  31.1198902  52.4701462
  39.9169426  31.0450668  51.5687828  39.8952103  31.4761868  53.2851295
  41.3344002  31.8501530  52.4799576  44.0475426  30.1328011  55.1264305
  43.8925438  30.9391651  56.0775070  44.9284554  29.1041012  55.2189026
  45.0053520  28.5626888  54.3697472  45.9848824  29.0066910  56.2171326
  45.5403481  28.6961212  57.1626663  46.9490013  27.8605957  55.8395119
  47.1105118  28.1494179  54.8009567  47.9268188  28.0011368  56.3002014
  46.4667969  26.5407047  56.0038795  45.6858444  26.5661507  55.4461441
  46.8237724  30.2597561  56.3077431  47.4664459  30.6349010  55.2925797
  46.9358368  30.9631748  57.4198608  46.5168037  30.5303974  58.2305489
  47.7720604  32.2781143  57.6300201  47.4578857  32.8827095  58.4808197
  49.2296104  31.9071541  57.9350662  49.6477013  31.4138374  57.0576019
  49.8385620  32.8111725  57.9299622  49.4761810  31.1788445  59.2400894
  48.6116028  30.7162781  59.7161560  50.6883240  30.2065163  59.1417732
  51.6005745  30.7971077  59.0575333  50.6924248  29.5788193  60.0328865
  50.5223465  29.6594601  58.2137222  49.9086723  32.2319221  60.3824883
  50.5558243  32.9904556  59.9421234  48.9250336  32.6832848  60.5122490
  50.3779831  31.7601395  61.2457771  47.6195259  33.2669907  56.4392738
  48.5897293  33.7980080  55.8794937  46.3782425  33.4716606  56.0175018
  45.6133308  32.9275551  56.3902702  46.0745888  34.2147598  54.7922974
  46.6419258  33.6414948  54.0590858  44.5708694  34.2035370  54.4316673
  44.2533913  33.1651840  54.3360748  43.6598434  34.8275757  55.4679718
  43.8895645  34.3871040  56.4381866  43.8551826  35.8968086  55.5497169
  42.6178474  34.8479385  55.1487122  44.4562531  34.9111595  53.1745567
  45.0076180  34.3111229  52.6670647  46.6105804  35.6652031  54.8702812
  46.6381111  36.3219337  55.9282227  47.1148949  36.2361488  53.7853355
  47.1887894  35.6773911  52.9472275  47.4981804  37.6855049  53.7150307
  48.2525024  37.9257088  54.4642944  48.1929626  38.0267220  52.3489494
  47.7182922  37.4106979  51.5852051  48.1164246  39.0426674  51.9615250
  49.7097626  37.8256950  52.4248734  50.1691399  38.6219673  53.0105553
  49.9939995  36.9507942  53.0095634  50.2454033  37.5994911  50.9695244
  49.7204018  36.7213478  50.5935745  50.0486183  38.4788437  50.3562393
  51.7243042  37.3592606  51.0788879  51.9823227  36.6912460  51.9006500
  51.9601364  36.7278481  50.2222672  52.5205803  38.6303711  51.0131111
  52.5708084  39.1521187  51.8764534  53.5024643  38.3998375  50.9595680
  52.2494316  39.2702293  50.2802010  46.3855705  38.6057129  53.9015617
  46.5993919  39.7591171  54.3840294  45.1374817  38.1325607  53.5928955
  45.1201897  37.1771812  53.2657089  43.8888969  38.9683723  53.5200920
  44.1261177  39.8618355  52.9425545  42.7149811  38.1959229  52.8988266
  43.0904541  37.4832001  52.1645622  42.3315048  37.4929848  53.6383705
  41.5650368  39.0297356  52.4903183  41.5011597  40.2432632  52.4838486
  40.5200539  38.4063911  52.0285110  40.5892830  37.4150352  51.8481674
  39.8346481  38.9957275  51.5779533  43.5026512  39.4582825  54.9639130
  42.8782005  38.7490997  55.7560234  43.9081688  40.6664200  55.3430519
  44.2720566  41.2900352  54.6367989  43.4854660  41.2636642  56.6374931
  43.7541084  40.5858841  57.4477692  44.3279343  42.5132751  56.9463196
  43.9940147  42.9793243  57.8733635  45.7880974  42.2519836  57.2513924
  46.3179779  41.5126572  56.6507912  46.3271408  43.1972275  57.3150101
  45.7821045  41.8371468  58.2593498  44.3048515  43.4437180  55.9367561
  43.5011139  43.9676743  55.9695358  41.9884949  41.6325722  56.5920296
  41.4334183  41.8020821  57.6668282  41.2501793  41.6688805  55.4744530
  41.6654930  41.5971069  54.5565987  39.8826180  42.0743523  55.4938087
  39.7650490  42.9104042  56.1832237  39.5684242  42.6307411  54.0866051
  39.7720032  41.9071426  53.2972641  38.5507545  43.0210915  54.0777473
  40.4934807  43.8061028  53.5987091  41.4792824  43.8921623  54.0557556
  40.6936836  43.7483101  52.5288124  39.7038612  45.0749474  53.8776436
  39.6244392  45.5114326  55.0253105  39.1758881  45.6518440  52.9109459
  38.8845711  40.9156380  55.8031578  37.6650505  41.1016121  55.9570465
  39.4642372  39.7704887  56.0127602  40.4651947  39.8327751  56.1323433
  38.7467537  38.5034561  56.3947906  37.7438698  38.5084229  55.9678345
  39.4658241  37.3478928  55.7553635  39.3653564  37.5819931  54.6955490
  40.5000305  37.3262482  56.0989571  38.8812561  35.8871422  55.8921814
  37.8331985  35.8927383  56.1916046  39.1177788  34.9304008  54.6911392
  39.9018555  35.3820839  54.0834274  39.2500877  33.8698730  54.9053154
  38.1707916  34.8855400  54.1532707  39.6359482  35.2722092  57.0498123
  40.6561699  34.9278297  56.8805733  39.6611481  35.9981995  57.8624649
  39.1472473  34.3701668  57.4180412  38.5685120  38.4595451  57.8769875
  39.5953636  38.5488853  58.6015511  37.4617119  38.2267876  58.4140282
  10.4081726  36.5699425  51.4166336  10.7833843  35.9973793  52.1592522
  10.8493376  37.4726562  51.5195274   9.4119301  36.6863480  51.5351677
  10.6732159  35.9325981  50.0612640  10.2967625  34.9115639  50.1234932
   9.8864651  36.6642380  48.9135590   8.8348188  36.4161720  49.0570946
   9.9031277  37.7463989  49.0430107  10.3345766  36.3894653  47.5444984
   9.6459465  37.0048256  46.9655151  11.3547955  36.7554932  47.4292412
  10.1769705  34.6345558  47.1922531   8.5005445  34.5602531  46.5228004
   8.1973009  33.5173302  46.4308052   7.8075643  35.0780754  47.1859283
   8.5097008  35.1544647  45.6090584  12.1482325  35.8122368  49.8409157
  12.8344927  36.8090782  49.7375259  12.6524916  34.5502777  49.7281456
  12.1183872  33.6948242  49.7832413  14.0483294  34.2927551  49.3739967
  14.3582535  35.1096764  48.7223206  14.9320812  34.2896118  50.6224289
  15.9343987  34.1696930  50.2112350  14.8594542  35.2735596  51.0857544
  14.6776390  33.1575012  51.6056786  13.7105350  33.4517250  52.0134048
  14.5438643  32.2152824  51.0742378  15.9736805  33.0730400  52.9134636
  17.0375271  31.7752209  52.3621368  16.5720596  30.7897224  52.3773270
  17.4573975  31.9328041  51.3686676  17.9701157  31.6637688  52.9152756
  14.0504799  32.9767647  48.5660400  13.0471382  32.3678055  48.2389107
  15.2342224  32.5080566  48.3212624  15.9623718  33.0265770  48.7914047
  15.5266104  31.2020378  47.6733932  14.6770611  30.9437599  47.0412064
  16.7398701  31.3663750  46.7758255  17.5577927  31.8118591  47.3420830
  17.1226959  30.0054474  46.1747055  16.2461395  29.4627438  45.8208389
  17.7840328  30.0932579  45.3127174  17.6061935  29.3911343  46.9342804
  16.4801941  32.3176689  45.5376472  16.0870266  31.6314487  44.7875633
  15.7480154  33.0866089  45.7841072  17.7181053  33.0508537  45.0014610
  17.4883842  33.6405716  44.1140175  18.1752167  33.6688385  45.7742767
  18.4755325  32.3106079  44.7437057  15.6872482  30.0667171  48.6356163
  16.5975628  30.1960850  49.4390068  14.9613295  28.9551601  48.5426331
  14.3094120  28.9238529  47.7718391  15.0850019  27.7884560  49.4822159
  16.0749931  27.8626270  49.9322319  13.9632797  27.8054867  50.5152893
  12.9851856  27.7815666  50.0348129  14.0941191  26.8430405  51.0099411
  14.0400572  28.9555435  51.4863167  15.0992231  28.9235363  51.7417488
  13.6944523  29.8706779  51.0055008  13.1597195  28.7262096  52.7115936
  12.1305180  28.5839710  52.3820305  13.3420153  27.8290768  53.3032188
  13.2981730  29.8322926  53.5773888  12.5599365  30.5215359  53.5844955
  14.2621212  30.1732750  54.4111900  15.3358517  29.4440060  54.4800415
  16.0859585  29.7117081  55.1011543  15.4172573  28.6277199  53.8908501
  14.2380171  31.3171082  54.9551430  13.4411793  31.9213409  54.8135414
  14.9406977  31.6511707  55.5991554  15.1629066  26.4237537  48.8427811
  14.3638058  26.1743259  47.9656219  15.9868832  25.5061302  49.3443565
  16.7208977  25.7853851  49.9794464  15.9190159  24.0780087  49.0307770
  16.0279446  24.0072460  47.9485435  16.6181965  23.5377541  49.6690331
  14.4930010  23.4742184  49.3241882  13.9158230  23.6533222  50.3303337
  14.2543297  22.3342018  48.6205330  14.7144070  22.2245121  47.7281227
  13.2206955  21.3924446  48.9201012  13.1312513  21.4120121  50.0062523
  11.8346405  21.6524162  48.2235298  11.9704847  21.5187855  47.1503143
  10.7384644  20.6700058  48.7566719  10.8933783  20.3169651  49.7762146
   9.7216406  21.0619869  48.7793350  10.6737661  19.7561359  48.1661224
  11.3959093  23.1339989  48.2293472  11.4780607  23.5140018  49.2476578
  12.0493326  23.6148720  47.5014038   9.9811373  23.4687424  47.6649513
   9.8933115  24.5330620  47.4467468   9.7391462  22.9422989  46.7416992
   9.1758461  23.2509804  48.3665047  13.6263523  19.8994846  48.4883461
  14.0675316  19.7055893  47.3872414  13.2925920  18.8446331  49.2544670
  12.8506393  19.0060272  50.1481819  13.6213388  17.4184017  49.0379524
  14.1318874  17.3153896  48.0804405  14.7571278  16.9325104  50.0300751
  14.4463854  16.9050522  51.0744820  14.9851246  15.8811646  49.8545914
  15.9794168  17.8483677  50.0690689  16.4207878  17.7977123  49.0737152
  15.8207741  18.8626823  50.4352646  17.1199837  17.3563347  50.9958649
  17.9614048  18.0384350  50.8740196  16.8251076  17.3922272  52.0446091
  17.5789604  16.0080395  50.5511627  17.9223366  15.8122101  49.6217308
  17.2772484  14.9343672  51.3082008  16.9394970  15.1080809  52.5199585
  17.1951122  15.9258547  53.0547523  16.7403088  14.2438545  53.0032120
  17.2916794  13.7443800  50.7642250  17.4657040  13.6925716  49.7706757
  17.3171387  12.9233093  51.3518448  12.4972944  16.4454765  48.7909546
  11.3779650  16.6494961  49.2204819  12.8085680  15.3026495  48.2018547
  13.7494564  15.2609558  47.8370399  12.1208754  14.0484610  48.4761810
  11.8457842  13.9570179  49.5269279  11.1927261  13.9568996  47.9120445
  13.0284967  12.8581572  48.2128410  14.0401220  12.9486151  47.4699402
  12.5049610  11.6977987  48.5939636  11.6207104  11.7322025  49.0808067
  13.1486959  10.4522715  48.1705475  13.7056303  10.5657120  47.2404633
  14.1809349  10.1094980  49.2437897  14.7709246   9.2544909  48.9136887
  14.8210688  10.9606514  49.4758835  13.6338911   9.7585526  50.1188202
  12.2259302   9.2605982  48.0261421  11.1544695   9.1808329  48.6097183
  12.7515936   8.2872934  47.2240295  13.6873426   8.4466400  46.8789482
  12.0485659   7.1700206  46.5851784  11.3398533   6.7523088  47.3002663
  11.2722244   7.6983886  45.3965950  10.6783762   8.4806166  45.8694229
  12.0350819   8.1162987  44.0959129  11.4147339   8.7028084  43.4182129
  12.9203472   8.6333046  44.4662018  12.3997622   7.1779118  43.6781349
  10.4433498   6.6357164  45.0979156   9.6877394   6.9972930  44.6289635
  12.9598322   5.9636497  46.2895966  14.1299515   6.1210217  46.0202370
  12.4486561   4.7255974  46.2335129  11.4485197   4.6583252  46.3572197
  13.2370329   3.5018935  45.8320732  14.1946421   3.8949864  45.4906464
  13.4037180   2.4797916  47.0456963  13.6362324   1.5136883  46.5977211
  14.4096994   2.8800740  48.0916367  14.2781868   3.9459007  48.2782288
  14.3676348   2.3282173  49.0306702  15.4291773   2.6541436  47.7790337
  12.1136761   2.2967181  47.6506424  11.6665392   1.5132707  47.3221970
  12.6300306   2.7007582  44.6329041  11.4312296   2.6859081  44.5057945
  13.5217075   2.1370556  43.8268394  14.4894657   2.0840230  44.1109734
  13.0676098   1.4162384  42.5392914  12.0464067   1.7532494  42.3613434
  13.8710899   1.7958137  41.2565727  13.6261883   1.0838996  40.4683456
  13.4340677   3.1681056  40.9112167  13.7017746   3.8600922  41.7097015
  13.8895235   3.4865944  39.9735451  12.3708649   3.2418833  40.6826172
  15.4060659   1.6853776  41.4007568  15.6717882   0.6322305  41.4922180
  15.8961535   2.1317065  40.5354767  15.8707228   2.1866863  42.2498055
  13.0755453  -0.1344235  42.7180290  14.0116262  -0.7314520  43.2655220
  12.1238708  -0.8349167  42.1954155  11.4647312  -0.4008956  41.5651283
  12.0655594  -2.2755017  42.1744385  12.1866760  -2.6539669  43.1894264
  10.6848011  -2.8236918  41.7015228  10.6128216  -2.6018054  40.6367760
  10.6458998  -3.8964763  41.8905220   9.4719849  -2.1199386  42.3732071
   9.2422190  -1.1455368  41.9421043   8.6632137  -2.8179693  42.1570053
   9.5090609  -2.1263540  43.8937111   9.7285128  -3.2258742  44.4998856
   9.1568136  -1.0649891  44.4629326  13.2259121  -2.9510722  41.3425941
  13.7221689  -3.9976590  41.7958221  13.6950035  -2.3092463  40.2411766
  13.2578430  -1.4440259  39.9576530  14.8617945  -2.6772614  39.4267464
  15.5168781  -3.1947644  40.1275787  14.5269070  -3.6664720  38.2704964
  13.7168674  -3.3242528  37.6264305  15.4368544  -3.8617673  37.7030869
  13.9538441  -5.0119934  38.7941666  14.5460958  -5.2834558  39.6680336
  12.9063778  -4.9259171  39.0831413  13.8659849  -6.1706152  37.8247032
  14.7511940  -6.2787070  37.1979485  13.7537241  -7.1099205  38.3661880
  12.7635565  -5.9279413  36.8195801  11.8404903  -6.3101726  36.9677277
  12.9247732  -5.4461699  35.6557159  13.9422426  -4.9480991  35.0771942
  14.8232841  -4.8113546  35.5517120  13.7105408  -4.3422961  34.3029747
  11.8700953  -5.4446955  34.8916969  11.0056429  -5.7478881  35.3170166
  11.8539171  -5.0662713  33.9554062  15.6023388  -1.4065691  38.9499474
  15.1360903  -0.2633224  38.9379768  16.8567600  -1.6371790  38.5027962
  17.1152477  -2.6084967  38.4036636  17.6228790  -0.7491710  37.6734505
  17.5257683   0.2901030  37.9874229  19.0922394  -1.0847520  37.6383667
  19.5041332  -1.1803789  38.6430054  19.0643311  -2.1200230  37.2984619
  19.8671436  -0.1169746  36.8152962  19.5607262   1.0938903  36.6665077
  21.0357075  -0.4629758  36.5136032  17.0199013  -0.7972932  36.2672958
  17.3537331  -1.7665029  35.5425110  16.0949516   0.0090778  35.9117470
  15.9029865   0.7538310  36.5664139  15.4226837   0.0219312  34.6058540
  16.2128067  -0.1599094  33.8773308  14.4500999  -1.1763492  34.4795113
  15.0007257  -2.1091006  34.3574867  13.3921776  -1.2873492  35.5321350
  12.5352240  -0.6172864  35.4632988  12.9364824  -2.2771602  35.5589333
  13.7522259  -1.0897895  36.5418053  13.5692387  -1.0577042  33.3330116
  13.9763155  -1.3664498  32.5202599  14.8465996   1.4256185  34.3741951
  14.3871765   2.0864310  35.3280678  14.8234367   1.8588320  33.1003914
  15.1514769   1.2994145  32.3260918  14.2126865   3.1568553  32.7528458
  14.7205858   3.9885399  33.2411499  14.3993101   3.3882349  31.2722645
  13.7076149   2.7939353  30.6752167  14.2027788   4.4197350  30.9798832
  15.8110876   3.1958525  30.5755558  15.9778242   3.8854041  29.7480183
  16.5387688   3.4855607  31.3336143  16.0123329   1.8151227  29.9541664
  16.1328449   1.8040910  28.6875668  15.8229322   0.7900557  30.7204399
  12.7059116   3.1726799  33.1535530  12.2404289   4.1494470  33.6899452
  12.0033836   2.0436487  33.0192490  12.4441681   1.1793560  32.7385216
  10.5389309   1.9959562  33.2750168  10.1388779   2.9326901  32.8869629
   9.8546343   0.8262158  32.5941086  10.3351803  -0.0782527  32.9670868
   8.8417625   0.8972514  32.9905281   9.7818413   0.9187897  31.0540428
   9.2238731   1.8043959  30.7499485  10.8187599   0.9015175  30.7184696
   9.0942497  -0.3571870  30.5451584   9.5638723  -0.9951917  29.5744896
   7.9988585  -0.7536498  31.1141663  10.2437792   1.9446347  34.8107986
   9.1050367   1.7532401  35.1742172  11.2559671   2.1398203  35.6817245
  12.1812992   2.2320502  35.2875671  11.2556181   2.2039874  37.1521378
  10.2515173   2.1205573  37.5679741  12.1699743   1.1253573  37.7700195
  12.9667788   0.9896930  37.0387192  12.6394968   1.4885002  38.6842270
  11.4375572  -0.2134622  38.0430145  10.9190264  -0.6126423  37.1713028
  12.1204271  -0.9072042  38.5334358  10.2603445   0.0137264  39.0699348
  10.5058603   0.6308503  40.0890617   9.1120453  -0.4142649  38.8561096
  11.8026638   3.5843983  37.5888634  11.1112289   4.2486959  38.3968277
  12.9190454   3.9852443  36.9774055  13.4267645   3.3478711  36.3806839
  13.6316204   5.2481813  37.2496185  13.6484928   5.3411722  38.3355141
  15.1110897   5.0967941  36.7518005  15.0350552   4.9579306  35.6733589
  15.9383116   6.3227115  36.9069710  16.2461586   6.4057903  37.9492912
  16.8838253   6.3313437  36.3647270  15.4735966   7.2501683  36.5723610
  15.8803473   3.8979115  37.4033241  16.0292816   4.2778091  38.4140625
  15.2967596   2.9810338  37.3205032  17.2672806   3.6177268  36.7439537
  17.1385803   3.0666254  35.8123856  17.8387566   4.5411835  36.6504555
  17.9290962   3.0587223  37.4054794  12.9284363   6.4567137  36.7177811
  12.4969349   7.3732181  37.4309425  12.4112911   6.3657355  35.4948502
  12.4568338   5.5710630  34.8731384  11.5244827   7.4651976  34.9901848
  11.9586115   8.4097853  35.3178825  11.6362057   7.3755760  33.4422646
  11.1795616   6.4470139  33.0997009  11.0891600   8.2708845  33.1468582
  13.0387363   7.3989506  32.8028603  13.5711012   6.4790955  33.0448380
  12.9288101   7.5250239  31.3009415  12.6753941   8.5481606  31.0233192
  13.9345903   7.2888150  30.9535046  12.3021498   6.7193246  30.9185066
  13.9420424   8.4516726  33.3150940  13.5961199   9.4597311  33.0865021
  14.0940371   8.3030205  34.3841591  14.9578056   8.2830687  32.9574661
  10.0716982   7.4277229  35.5742531   9.3947926   8.4851007  35.8118591
   9.5650263   6.2466612  35.9816895  10.0908365   5.4060597  35.7892990
   8.3284130   6.0495467  36.7218361   7.4596639   6.4543419  36.2026825
   8.0417223   4.5326433  36.7607803   7.9384232   4.1408691  35.7488785
   8.8786774   4.0264535  37.2417984   6.7216492   4.2038007  37.5691605
   6.6706629   4.7654529  38.5019226   5.8757825   4.3683586  36.9016800
   6.6797853   2.6940093  38.0288963   6.3146825   2.3792591  39.1269455
   7.1999483   1.7389002  37.2298889   7.5950961   2.0052793  36.3393822
   7.1810422   0.7609785  37.4817085   8.3982029   6.6493659  38.1265831
   7.6022100   7.4828815  38.5035934   9.4077063   6.2507071  38.9288292
  10.0689182   5.5701604  38.5827713   9.4685678   6.8452921  40.2969856
   8.5476828   6.7143650  40.8652534  10.5039797   6.1065164  41.1624641
  11.2545509   5.7517495  40.4561462  10.8999205   6.8548708  41.8489799
  10.0158806   4.8770781  41.8961601  10.8583326   4.5074840  42.4807739
   9.2532005   5.1493149  42.6257515   9.4179831   3.7246602  41.0899010
   8.8153296   4.0227079  40.2319489  10.2201681   3.2394383  40.5338783
   8.6028881   2.7228386  41.9913368   9.1045799   2.3420849  42.8809624
   7.7945008   3.2648032  42.4821358   8.0361261   1.6534338  41.1942863
   7.6010985   0.9061053  41.7161598   7.4051499   1.9992565  40.4854965
   8.7839069   1.2557570  40.6440353   9.8292017   8.3038578  40.3669319
   9.1784544   8.9535799  41.1957130  10.8760958   8.7965298  39.6779404
  11.3241806   8.2126064  38.9863091  11.2846127  10.2326431  39.7377129
  11.5534067  10.5474377  40.7460518  12.5203524  10.6203003  38.7632828
  12.1697865  10.5030766  37.7378731  12.8553133  12.0651741  38.9995651
  13.0551920  12.2549410  40.0541420  13.6379843  12.3564777  38.2990875
  11.9685726  12.6627464  38.7881508  13.6080275   9.7759209  39.2022667
  13.5033636   8.9341650  38.7527199  10.0493832  11.1055613  39.3602791
   9.7866945  12.1001482  40.0054092   9.2848940  10.7266226  38.3938560
   9.6260386  10.0049582  37.7750473   8.1402826  11.4769878  37.7693558
   8.4273672  12.5172243  37.6157570   7.6166873  10.8017111  36.4251137
   8.4729042  10.6611271  35.7653923   7.1515703   9.8541126  36.6968193
   6.7457623  11.6518965  35.4597473   7.1645064  12.6537895  35.3650703
   6.6911559  11.1972761  34.4705849   5.2462864  11.7423334  35.9084129
   4.8297234  10.7532816  36.0990715   5.2127810  12.0982552  36.9381256
   4.2480683  12.4360943  34.8941765   4.6223388  13.4461908  34.7276611
   4.3047342  11.9423294  33.9240799   2.8736739  12.4395723  35.4188728
   2.5119030  11.4965878  35.4182472   2.7825825  12.7923508  36.3608665
   2.2614932  12.9362650  34.7874985   7.0200973  11.6472616  38.7891159
   6.5184860  12.7580624  38.8623085   6.6223974  10.6026993  39.4356117
   7.0869012   9.7273455  39.2404099   5.5979390  10.5237560  40.5022240
   4.7300982  11.0978889  40.1776886   5.2680221   9.0818453  40.8859520
   6.1666455   8.5234451  41.1481857   4.5541506   9.1411285  41.7075195
   4.6429086   8.3269491  39.7179909   3.7170045   8.8175869  39.4178619
   5.3314271   8.3794270  38.8746109   4.4074965   6.8726034  39.9676437
   5.1229806   6.2086978  40.7249374   3.5156715   6.2236557  39.2043648
   2.8771110   6.5719948  38.5036507   3.4093413   5.2396884  39.4058762
   6.1423092  11.3292103  41.7117119   5.4511380  11.8525791  42.5679474
   7.4589992  11.2292805  42.0217972   8.0488358  10.7000599  41.3956032
   8.0924730  11.9613209  43.1098595   7.4912724  11.7997789  44.0046005
   9.5113716  11.5183926  43.4764290   9.6698475  10.4535189  43.6468124
  10.2056437  11.8311882  42.6965256  10.1426039  12.2145824  44.7067184
  10.0993586  13.2919378  44.5469208   9.3578596  11.9564476  45.9744415
   9.0825119  10.9117413  46.1189003   9.9665375  12.2605324  46.8259964
   8.4593487  12.5724087  46.0114326  11.5112877  11.7253857  44.9541168
  12.1612682  11.8240156  44.0846939  11.9231577  12.4519844  45.6544876
  11.4920673  10.7037878  45.3336792   8.0263472  13.4465752  42.9457283
   7.3973241  14.1356182  43.7055702   8.5657368  13.9393578  41.8241653
   8.9725218  13.3139353  41.1433754   8.6644506  15.3993759  41.5233917
   9.2533426  15.8815374  42.3036613   9.2166576  15.6629143  40.1220779
   8.8091154  14.9981918  39.3603973   8.9269056  16.6859455  39.8821754
  10.7562685  15.5696945  40.1729164  11.0320282  14.6166201  40.6242523
  11.3270826  15.4300776  38.7278481  12.2600975  14.8680649  38.6862679
  10.5916872  14.9049025  38.1183548  11.5492611  16.4581451  38.4418144
  11.4798527  16.7789955  40.8835487  12.5361710  16.5549088  41.0321426
  11.3591805  17.6914291  40.2995911  11.0292273  17.0022869  41.8505974
   7.3314228  16.1053219  41.6404953   7.1824374  17.0899696  42.4098053
   6.3723488  15.6475267  40.8464775   6.5616660  14.8557005  40.2487564
   5.0590296  16.2354145  40.7998657   5.1443677  17.2823372  40.5087166
   4.1717587  15.5345640  39.7542152   3.3483729  16.1765938  39.4412727
   4.7960377  15.4515457  38.8645630   3.6762116  14.1538935  40.0676384
   4.5178189  13.5812931  40.4574203   2.9662688  14.3164568  40.8785973
   3.1787388  13.3807936  38.8532944   2.6659677  13.9070339  37.8774567
   3.0841165  12.1724968  38.9032784   4.3743382  16.3097878  42.1750793
   3.5972936  17.2567444  42.4021034   4.5365057  15.2529135  43.0268669
   5.1365423  14.4876003  42.7541885   4.0026760  15.3595591  44.4400558
   2.9682589  15.6707573  44.2943230   4.0473599  13.9641972  45.0830383
   4.9866395  13.4627581  44.8497696   4.0076385  14.0398903  46.1696815
   2.7503004  13.2080574  44.6273575   1.8363262  13.6060419  45.0682220
   2.6665416  13.2733068  43.5425415   2.7070379  11.7222385  45.0294418
   3.5092623  11.2042370  44.5038834   2.9483473  11.6138668  46.0868568
   1.4403735  11.0103350  44.6540375   0.6033732  11.4082804  45.2277718
   1.0968244  11.2743626  43.6538582   1.6186159   9.5664635  44.7560883
   1.8410283   9.2037563  45.6721039   0.7602917   9.0751667  44.5511322
   2.2869992   9.2084465  44.0888672   4.6792574  16.4686432  45.3129921
   3.9796355  17.2782421  45.8871994   6.0194068  16.6196594  45.2131424
   6.5215712  16.0138626  44.5799408   6.7473826  17.7566299  45.8121605
   6.5699205  17.8453178  46.8839569   8.2962713  17.6697884  45.5146828
   8.5371981  17.6052704  44.4536018   9.0108395  18.9246273  45.7684364
  10.0813789  18.9215126  45.5634155   8.7012062  19.7398586  45.1145058
   8.6881618  19.1177502  46.7915115   8.9290361  16.3689499  46.0922699
   9.2849989  16.5191994  47.1114922   8.1874142  15.5752821  46.0017395
  10.1669760  15.9424505  45.2419548  10.8714514  16.7724991  45.1887436
  10.6633072  15.1369343  45.7831612   9.8454990  15.6752138  44.2353096
   6.2366524  19.1404610  45.3431702   6.0393467  20.0347099  46.1570816
   6.0263124  19.2537556  44.0311050   6.2571664  18.5074196  43.3909569
   5.5975971  20.5246696  43.4337654   6.1969585  21.3406181  43.8376122
   5.7888231  20.5087910  41.8991280   5.3368425  19.5975342  41.5074272
   5.1015134  21.6852913  41.1322098   4.0289254  21.5608997  40.9832497
   5.2948737  22.6299820  41.6404152   5.5753832  21.8704453  40.1682243
   7.2486658  20.3201485  41.4996223   7.7215619  21.2998333  41.4311600
   7.8931141  19.9165478  42.2805786   7.5832520  19.7250786  40.1512375
   6.9880190  20.1804295  39.3597488   8.6562834  19.7793674  39.9675064
   7.2318888  18.7088890  40.3301392   4.1354289  20.8227634  43.7669640
   3.8028669  21.9995899  43.9611168   3.2467945  19.7884216  43.9103737
   3.5589242  18.8342953  43.7993927   1.8881857  20.0438271  44.5371437
   1.4102204  20.8485470  43.9785042   0.9883862  18.8288250  44.2972488
   1.0080491  18.5212936  43.2517166   1.2864951  17.9271774  44.8322830
  -0.4371948  19.0749092  44.6487694  -1.0115246  18.1488991  44.6213722
  -0.5105481  19.3528805  45.7001801  -1.2318006  20.1269684  43.8109741
  -2.4023790  20.3847523  44.2059059  -0.7456145  20.5368958  42.7238884
   1.9917629  20.5259037  45.9779739   1.4687201  21.5079041  46.3299179
   2.5151012  19.7194958  46.8059616   2.9542050  18.8728657  46.4735413
   2.6843042  19.9441013  48.3518066   1.6496826  19.9422626  48.6948166
   3.5204868  18.7370090  48.9040680   3.3369610  17.8829842  48.2521057
   4.5889201  18.9284859  48.8046379   3.0960753  18.3083363  50.3544769
   3.7424457  17.4676819  50.6066856   3.0754552  19.1496716  51.0471764
   1.6888340  17.6225872  50.4787941   1.3149120  17.3419571  51.6415558
   0.9659833  17.4006710  49.4513474   3.3028347  21.3242435  48.7071991
   3.2200809  21.6746559  49.8654823   3.8901072  22.0740547  47.7162971
   4.0521035  21.5650234  46.8591232   4.5230579  23.4099121  47.8315125
   4.2740731  23.7492657  48.8369713   6.0695524  23.2437363  47.7882614
   6.3914480  22.6767254  46.9147758   6.5241675  24.2334690  47.8313789
   6.5515285  22.4999084  49.0362282   6.6492987  23.0906544  50.1038780
   6.8189793  21.1960201  48.9172325   7.1898623  20.7154655  49.7244644
   6.5814490  20.7361870  48.0499191   3.9556708  24.4917679  46.8666916
   4.3045573  25.6490993  46.9829559   3.0548637  24.0556889  45.9344597
   2.8638346  23.0749397  45.7870216   2.4663877  24.9133434  44.9181557
   1.9917299  24.2738495  44.1739464   1.3159990  25.7343788  45.5057678
   1.7230834  26.3894539  46.2760010   0.8969564  26.3930416  44.7450676
   0.1271599  24.9280300  46.0064278  -0.7529849  24.2579041  45.2405701
  -0.7626637  24.2468605  44.2306747  -1.5832648  23.5135193  46.0497627
  -2.3828022  22.8916569  45.6750259  -1.2095498  23.8224583  47.2730484
  -1.6127266  23.4220924  48.1080666  -0.1338221  24.6516171  47.3199425
   0.3406412  24.9999695  48.2254486   3.4883423  25.6945229  44.0918388
   3.3926823  26.8856010  44.0519829   4.5169959  24.9873180  43.5535583
   4.3194833  23.9971313  43.5286903   5.7448330  25.5320377  42.8886108
   5.9322348  26.5153599  43.3199539   6.8292656  24.5332680  43.2911758
   6.5002646  23.5095806  43.1125145   8.0603075  24.7232952  42.3564606
   8.8711538  24.0876465  42.7122459   7.8351440  24.2767143  41.3879738
   8.3257685  25.7589588  42.1442566   7.3997254  24.7628307  44.5368767
   7.5554781  25.6972790  44.6922760   5.3272829  25.6913319  41.4297333
   4.3981433  25.0492325  40.9778252   6.0349355  26.6097565  40.6969986
   6.7629666  27.1364956  41.1581001   6.1012373  26.6523533  39.2213631
   5.7082729  25.6669617  38.9709969   5.1959229  27.7575054  38.7384605
   5.1040401  27.6305809  37.6597824   4.2041850  27.6742153  39.1830025
   5.7933836  29.1552181  38.9797668   6.1990571  29.1644859  39.9914246
   6.5959663  29.4062386  38.2862625   4.6422057  30.2409725  38.8902130
   4.0987906  29.9152927  38.0032349   3.9481571  30.1169167  39.7214813
   5.1870637  31.6289139  38.6292610   5.9763532  31.5235367  37.8849373
   4.3972225  32.3219261  38.3394547   5.8208199  32.1150475  39.8766632
   6.2134838  33.0188980  39.6553688   5.1969900  32.1704254  40.6690483
   6.6192627  31.6079292  40.2308121   7.5322442  26.7126102  38.6738205
   8.3481922  27.2316418  39.4243507   7.8946438  26.1234074  37.4874611
   7.0649099  25.6600113  36.3487740   6.2313609  26.3362446  36.1590195
   6.6227612  24.7275887  36.6997566   7.9136572  25.5362320  35.0847778
   7.9887395  26.5126247  34.6061134   7.5034776  24.7836056  34.4114227
   9.3097200  25.2149086  35.7053719  10.1467524  25.6261044  35.1411057
   9.4000254  24.1402187  35.8634529   9.2543173  26.0181808  37.0299911
   9.8383503  25.3974152  37.7094421   9.9968910  27.2923470  36.8388863
  11.2028618  27.3248539  36.9623451   9.3429203  28.3826866  36.5087051
   8.3475714  28.2341976  36.4230576   9.8716202  29.8050842  36.2957764
  10.5762997  29.8653812  35.4663811   8.6801615  30.7100906  35.8710289
   8.1522207  31.0378628  36.7665405   9.1313515  31.5518379  35.3456726
   7.7345409  30.0574055  34.8293839   8.3765469  29.7442970  34.0060425
   7.2573719  29.1993313  35.3027992   6.6461039  30.9369850  34.3429947
   6.0451303  31.5725460  35.2256775   6.6093712  31.1874027  33.1008034
  10.5939579  30.4622517  37.4819298  11.4591846  31.3143768  37.3533096
  10.2282305  29.9597321  38.6867104   9.4558582  29.3109455  38.6355515
  10.9100876  30.2459602  40.0639191  11.2190504  31.2884274  39.9870148
   9.8592024  30.3525276  41.1896553   9.3685455  29.3816223  41.2581863
  10.4368439  30.5163269  42.0993805   8.7899361  31.4684277  41.0630798
   7.7548518  31.2681675  41.7250900   8.8714447  32.4984589  40.4213333
  12.0725183  29.3951511  40.4424133  12.8628035  29.7435036  41.3134995
  12.3273535  28.3088818  39.7585411  11.9197321  28.2355385  38.8373642
  13.3858633  27.3149147  40.0587082  13.3368006  27.1715508  41.1381264
  13.0693521  25.9304562  39.4124565  13.0237875  25.9538269  38.3236580
  14.1623888  24.9268246  39.9222069  13.7282267  23.9863415  39.5829544
  15.0561199  25.0725594  39.3154793  14.1319675  25.1023254  40.9975548
  11.6844368  25.3776226  39.8243294  10.9325771  26.1654720  39.7784424
  11.4427443  24.5812092  39.1204758  11.6838779  24.9506874  40.8272400
  14.7788773  27.8841667  39.7330971  14.9823904  28.4492855  38.5843239
  15.6985321  27.6665573  40.6079597  15.3244390  27.2941742  41.4690590
  17.1445332  28.0027447  40.4843903  17.1613560  28.8332462  39.7786407
  17.7747993  28.4939270  41.8130150  17.8003025  27.7204247  42.5805740
  19.2589073  28.8584862  41.5460510  19.8605003  28.0152779  41.2066498
  19.2700005  29.6275330  40.7736893  19.6526718  29.3610592  42.4294930
  17.1093407  29.6574001  42.4591408  17.7093639  30.2519722  43.1480179
  16.7117615  30.3957386  41.7628021  16.2203598  29.2768898  42.9621658
  17.9100742  26.7852249  40.0149117  18.5181007  26.8705502  38.9325676
  17.8171959  25.6030293  40.6069374  17.2803497  25.4934998  41.4554062
  18.5577660  24.3709850  40.0868034  18.4113636  24.2357864  39.0151749
  20.0536823  24.3746262  40.3578529  20.5057411  23.5152721  39.8626137
  20.5349483  25.2461796  39.9141464  20.4499054  24.1142101  41.8546906
  20.0669861  24.8487911  42.5631142  19.9022198  23.2339935  42.1913795
  21.8982868  23.8300362  42.2109985  22.8210163  24.3911476  41.5799484
  22.2679520  23.3249798  43.3468819  23.1935749  23.6299706  43.6120377
  21.5296230  22.9426880  43.9203148  17.9318314  23.1476307  40.6652870
  17.4351368  23.1748848  41.7654305  17.9453754  22.0949497  39.8216133
  18.3574371  22.3134995  38.9257660  17.6264095  20.7490292  40.1968460
  17.1686687  20.7858849  41.1853867  16.5078583  20.3009396  39.1756592
  15.6040688  20.9051609  39.2542763  16.8456936  20.5346832  38.1660347
  16.1538486  18.7819977  39.4454994  15.5421820  18.4397545  38.6107330
  17.0417995  18.1514702  39.4910698  15.2928801  18.5147953  40.8907814
  13.7136145  19.3599472  40.5003700  13.8184423  20.4418335  40.5818024
  13.4973698  19.0732670  39.4712181  12.9706430  18.9416084  41.1794090
  18.7535019  19.7512455  40.3387299  19.5066757  19.4290314  39.3868294
  19.0171375  19.1761723  41.5836143  18.4410000  19.4627151  42.3621140
  19.9851627  18.1523037  41.9228210  20.7230797  18.0607243  41.1258278
  20.7896976  18.5163479  43.2672119  20.0178871  18.6302071  44.0284233
  21.5345955  17.7427006  43.4534721  21.5996227  19.8409424  43.2147789
  20.9058018  20.6542530  43.0020714  22.3290749  19.9169559  44.6275635
  23.0640373  19.1149521  44.6963272  22.6803722  20.9270039  44.8385048
  21.5589466  19.7385654  45.3780174  22.6455040  19.9196186  42.1429253
  22.2112598  20.1673069  41.1743240  23.3616619  20.7276688  42.2921638
  23.2140236  18.9969463  42.0264320  19.2393856  16.8372345  42.0326958
  18.1531353  16.7564487  42.6581306  19.8154392  15.7859240  41.4280777
  20.7215862  15.9547958  41.0151863  19.3571110  14.3821211  41.5430183
  18.6344509  14.3053904  42.3554115  18.7084789  13.8700752  40.2750015
  19.2826805  14.0692425  39.3701668  18.5361729  12.8326635  40.5616875
  17.2550735  14.4956818  40.0368729  16.8227501  14.9825392  40.9110413
  17.2699833  15.5590353  38.9303360  18.1192379  16.2046680  39.1540070
  17.4895668  15.0648384  37.9839478  16.3489361  16.1362381  38.8490257
  16.3377323  13.4138975  39.5503311  15.3057718  13.7648125  39.5548172
  16.5807571  13.1575193  38.5191612  16.3926601  12.5157833  40.1655350
  20.5275421  13.3733120  41.9073143  21.6761456  13.5216265  41.5821266
  20.1486511  12.4173374  42.7124596  19.1521225  12.2770233  42.7981644
  21.1098251  11.4194002  43.3244858  22.1529446  11.6699772  43.1315765
  20.9816036  11.3641806  44.8106117  21.3686981  12.2894344  45.2374039
  19.9450989  11.3518038  45.1476631  21.6682110  10.2186852  45.3142014
  21.0090656   9.5367289  45.4627457  20.7419243   9.9953232  42.7013969
  19.5882511   9.6116247  42.6571198  21.7501640   9.2109995  42.3911819
  22.6896038   9.5494127  42.5429420  21.7312775   7.8032985  42.1455269
  20.6976242   7.4577599  42.1291199  22.2990742   7.5687027  40.7788467
  23.3115387   7.8412676  40.4809837  22.1761398   6.4983878  40.6132774
  21.7311192   8.1195230  40.0290947  22.5666084   6.9771833  43.1403999
  23.7166920   7.3528061  43.4575348  22.0842247   5.8433924  43.6426697
  21.1139259   5.6630263  43.4279823  22.7984333   4.7571540  44.2303276
  23.5089245   5.2784495  44.8718529  21.9163170   3.7953813  45.1590729
  22.5595188   2.9568927  45.4261475  21.5415077   4.4717054  46.4391060
  22.4337654   4.5241194  47.0629845  21.3391743   5.5164661  46.2032356
  20.5938168   4.0808315  46.8095093  20.8507748   3.3888543  44.3795776
  20.8908958   2.4855051  44.0571632  23.7125359   3.9359572  43.3974113
  23.3737297   3.7209156  42.1740074  24.8510246   3.4030893  43.9600410
  25.2772808   3.4263468  45.4351273  24.5346508   2.8527622  45.9897461
  25.3649845   4.4104557  45.8954964  26.5544567   2.6206789  45.4984512
  26.5074253   1.5486124  45.6896629  27.3048401   3.0465932  46.1645088
  27.1506844   2.6550393  44.0873260  27.7322826   1.7637143  43.8519859
  27.7917061   3.5277202  43.9623528  25.9388790   2.8850901  43.1519737
  26.3376064   3.6276817  42.4608307  25.5572071   1.6243957  42.3988800
  26.3269749   1.2681105  41.5019798  24.4626598   0.9629441  42.6826630
  23.9192486   1.3786800  43.4256096  23.9025650  -0.1530462  41.8731079
  24.7721901  -0.7362396  41.5702248  23.0605049  -0.9388568  42.8716011
  22.4145794  -1.4736408  42.1752625  23.7018547  -1.6103863  43.4424057
  22.0846405  -0.1478274  43.8050728  21.7563190   1.0339197  43.6811333
  21.5752735  -0.8588286  44.6787262  23.1185398   0.2850420  40.5915565
  22.9490452  -0.5325702  39.6676826  22.6635494   1.5239885  40.3876228
  22.9620686   2.2558432  41.0164108  21.7566891   1.9077386  39.2508659
  21.3243637   0.9506279  38.9590721  20.7085190   2.9133866  39.7942810
  21.2244492   3.8151069  40.1241608  20.0935993   3.1729658  38.9325447
  19.7340508   2.3491340  40.9091988  20.3500690   2.0542161  41.7586975
  18.8718472   3.5656724  41.3843384  18.2160969   3.9009707  40.5808029
  18.2086315   3.2291765  42.1812210  19.5367851   4.3575964  41.7290344
  18.8735237   1.2266819  40.3615570  18.4387665   1.7072881  39.4851456
  19.4365864   0.3035635  40.2240372  18.0248013   1.0205686  41.0136986
  22.4866123   2.4934196  38.0394402  23.2170792   3.4736981  38.1925049
  22.2792950   1.9512202  36.8442230  21.6059189   1.2162532  36.6814728
  23.0850239   2.0520532  35.6527061  23.5751381   3.0237510  35.7134705
  24.1155167   0.9412807  35.6307640  23.6056423  -0.0201823  35.6917229
  24.5872974   0.8136363  34.6564789  25.0972977   1.0250775  36.7497025
  25.7751522   2.1369369  37.2197380  25.8542137   2.9963949  36.6951599
  26.3411293   1.7252423  38.3742790  26.8205528   2.3950818  39.0727539
  26.0429153   0.4353685  38.6297569  26.2961559   0.0019613  39.5061836
  25.2656860  -0.0425677  37.5945358  24.7108555  -0.9689857  37.5768166
  22.3145523   2.1501176  34.2626114  22.9004364   2.4541643  33.2060623
  20.9662666   2.0745366  34.2600975  20.4338741   1.8070775  35.0756493
  20.1600990   2.0629103  32.9883156  20.5283718   1.3813127  32.2215691
  18.7805710   1.5480251  33.3920288  18.8545189   0.4626344  33.3244629
  18.4765301   1.9129233  34.3731079  18.0282021   1.8787339  32.6760178
  19.9835873   3.4513557  32.2861748  19.8924866   3.5906250  31.0450611
  19.9504261   4.4909825  33.0780334  20.3451405   4.4038916  34.0036240
  19.5994320   5.8234859  32.6710434  20.2184639   6.0603819  31.8057213
  18.2092590   5.9697475  32.0875244  17.9608593   5.0210056  31.6118279
  17.1235218   6.1910982  33.1311111  17.0688705   7.1493692  33.6476669
  16.1754818   6.1617312  32.5940399  17.0740681   5.4096284  33.8893700
  18.2152729   7.0516639  31.0121078  18.4818211   8.0259600  31.4217415
  18.9103756   6.9710546  30.1763802  17.2412319   7.1771803  30.5392551
  19.9336224   6.8735261  33.7691078  19.6114616   6.6549058  34.9252930
  20.4869137   8.0067425  33.4056969  20.6963463   8.1430016  32.4270897
  20.4529591   9.1786814  34.3093491  21.0110607   8.7879219  35.1601906
  21.0382385  10.4342051  33.6660194  20.5368595  10.6041460  32.7132187
  20.8231163  11.2950859  34.2990341  22.5858841  10.4636087  33.4885025
  23.4668808  10.6709328  34.5260582  23.0854893  10.9064980  35.5086327
  24.9423332  10.6568565  34.3867607  25.5460682  10.8324509  35.2648659
  25.4113941  10.5158129  33.0410767  26.4627399  10.5550747  32.7970963
  24.5310192  10.4401245  31.9757919  24.7808762  10.3198338  30.9319992
  23.1570625  10.2485380  32.1779175  22.4422779  10.0037594  31.4061852
  19.0589314   9.5465956  34.8010483  18.2784309   9.9260473  33.9353828
  18.7725239   9.7059422  36.0971336  19.4466953   9.1296797  37.2146835
  20.1834068   9.8986969  37.4469986  19.8680439   8.1457052  37.0088730
  18.4760208   9.0996609  38.3644066  19.0121918   9.1654119  39.3111343
  17.8826027   8.1900511  38.4569664  17.4953766  10.2455482  38.0618515
  17.9077377  11.2287683  38.2884369  16.5360126  10.0067482  38.5208664
  17.4534988  10.1668863  36.5404053  16.8161392   9.3433533  36.2184296
  17.0019493  11.4793034  35.9572029  15.8225775  11.6045151  35.5903282
  17.9448719  12.4395666  35.6657753  18.9103565  12.2284832  35.8740578
  17.6277390  13.7621250  35.0192604  17.2511692  14.4955244  35.7323036
  18.9856644  14.2442141  34.5488853  19.6633453  13.4452438  34.2480583
  18.9433498  14.6878195  33.5541344  19.4051876  15.0012197  35.2114868
  16.7264881  13.7902565  33.8216629  15.9804211  14.7755365  33.5875854
  16.7850246  12.6368494  33.1566696  17.2973747  11.8401604  33.5072174
  15.8222446  12.4266272  31.9342651  15.9764948  13.2938910  31.2922611
  16.0796661  11.0951414  31.2511005  17.1196003  10.8594980  31.4771690
  15.4587116  10.3438053  31.7389641  16.0900040  11.1317120  29.6905689
  15.0702724  11.3992577  29.4136772  16.6834488  11.9889307  29.3726082
  16.4776993   9.7929201  29.0812950  17.4687614   9.4537497  29.3827229
  15.7296171   9.0345097  29.3121452  16.3688755   9.9524927  27.5761795
  15.5391874   9.3763256  27.1666069  16.2952766  10.9905405  27.2519264
  17.5569572   9.4927092  26.7599201  17.6321850   8.4993639  26.9263706
  17.3774109   9.6840181  25.7845879  18.4440498   9.8519220  27.0826168
  14.3255663  12.5039682  32.3336220  13.5082073  12.7635956  31.4444580
  13.9710569  12.3442221  33.5485878  14.6287842  12.1751966  34.2962036
  12.6242943  12.4152508  34.0794334  11.9184084  11.9677906  33.3797150
  12.6668053  11.4559135  35.3128738  13.2810335  11.8944187  36.0993423
  11.6467094  11.1843100  35.5844231  13.2234497  10.5508509  35.0697517
  12.1813774  13.8261070  34.5144691  10.9940805  13.9660139  34.8546295
  13.0527725  14.8214931  34.4951134  13.9823942  14.8139219  34.1003380
  12.5546741  16.2396526  34.7753525  11.8902617  16.2609825  35.6391830
  13.6807909  17.2052593  35.0742798  14.4261274  17.0947590  34.2866478
  13.1150599  18.7146397  35.2333336  14.0307074  19.2574387  35.4679794
  12.8121452  19.0349789  34.2364731  12.3981171  18.6895218  36.0539818
  14.4886913  16.8221607  36.2556877  14.9915380  15.8740759  36.0649300
  15.2809858  17.5212154  36.5234413  13.7663317  16.6903267  37.0612411
  11.6591768  16.7920284  33.6581841  10.6782694  17.5931110  33.8059883
  11.9686308  16.2846718  32.4245186  12.6476727  15.5402155  32.4937210
  11.3065004  16.6977463  31.1518040  11.4030457  17.7832108  31.1751957
  11.9820948  16.1238041  29.9402199  11.7727938  15.0573854  29.8563194
  11.5188637  16.5144157  29.0341625  13.5039330  16.3297462  30.0480022
  13.6939144  17.4029160  30.0656738  13.7827930  15.7947817  30.9558315
  14.2730675  15.7160435  28.9335060  13.9085035  14.6929779  28.8411427
  14.0481176  16.1750259  27.9707851  15.7129145  15.7924862  29.1622696
  16.0167618  16.4502354  29.8659325  16.6737041  15.2355928  28.4941387
  16.3990498  14.5865860  27.4197025  15.5132885  14.6202488  26.9355621
  17.2022629  14.1419592  26.9986839  17.8903275  15.3432102  28.7626343
  18.4967690  14.7632627  28.2005062  18.3167210  15.6994600  29.6060638
   9.8583241  16.3151608  31.1578197   9.0752907  16.9359970  30.3951359
   9.4582443  15.3274899  31.9554615  10.1313257  14.8776340  32.5593567
   8.1255503  14.7065105  31.9191761   7.7779837  14.7534494  30.8871422
   8.1480541  13.2635450  32.4514656   8.5228586  13.3130465  33.4738007
   7.1779671  12.7675905  32.4187279   9.0602531  12.3676386  31.4739990
  10.0758772  12.5893946  31.8017712   8.8884754  11.3109770  31.6790829
   8.8291492  12.5843706  29.9906139   9.8328257  12.5779896  29.2529831
   7.6811061  12.6638250  29.5285645   7.1111288  15.5546093  32.7183571
   5.9392357  15.1454887  32.8429031   7.4261713  16.7648125  33.2377777
   8.2828188  17.2505474  33.0134697   6.3898139  17.7089787  33.7054977
   5.3624172  17.3466663  33.7413559   6.7165570  18.1981430  35.1629143
   7.7651334  18.4957237  35.1687622   6.1776915  19.1284752  35.3423691
   6.5482292  17.1501389  36.2625542   5.5002213  16.8696384  36.1571846
   7.5900288  16.0393829  36.2901306   8.5041876  16.3955879  35.8152351
   7.6990743  15.6433392  37.2997627   7.1069293  15.2743149  35.6823502
   6.5555744  17.9086056  37.5181885   7.5461187  18.3582973  37.5867348
   5.8335476  18.7242470  37.4793816   6.1970563  17.2681885  38.3240662
   6.2771606  18.8699188  32.7358513   7.2247272  19.2748737  32.0714035
   5.1431980  19.6335659  32.7099571   4.4018378  19.2434998  33.2741699
   4.9707112  20.6439800  31.6744118   5.4178252  20.1065388  30.8381424
   3.5518308  21.0555744  31.4591122   3.0152283  20.1146622  31.3372898
   3.1242194  21.5806904  32.3132210   3.3518038  21.8711624  30.3452873
   3.4507368  21.3253613  29.5617599   5.8514180  21.8846149  31.9612312
   5.6094594  22.6402397  32.9165878   6.8727260  22.1511097  31.1241226
   7.0055823  21.5315838  30.3375874   7.7127032  23.3497295  31.1421356
   7.8901567  23.6431923  30.1074905   7.2752938  24.1549664  31.7323627
   8.9803438  23.0753040  31.9358597   9.8577757  23.9422855  31.9023342
   9.2308788  21.8845139  32.5468674   8.5091619  21.1863575  32.4382286
  10.4271441  21.6481800  33.3944702  10.6706924  22.5420551  33.9687271
  10.0527697  20.5906258  34.4105148   9.6200733  19.6645222  34.0320854
  10.9919806  20.4760685  34.9516830   9.1306181  21.1397247  35.4754257
   7.8720188  21.5185318  35.2715874   7.3719306  21.4306889  34.3183823
   7.3401098  22.0734158  36.3844795   6.3354478  22.1764374  36.3963432
   8.2946777  22.2045517  37.3954620   8.2362499  22.7254848  38.6866951
   7.3687754  23.2047253  39.1159019   9.3958578  22.6407547  39.5032806
   9.4613810  23.0246162  40.5106316  10.5362616  22.2011242  38.8764877
  11.4741287  22.1526260  39.4098282  10.6446123  21.6718960  37.5538635
  11.5430136  21.1646576  37.2345161   9.5145588  21.6177120  36.7801323
  11.6238651  21.2378693  32.5600128  12.7458773  21.2122021  33.0963860
  11.4843502  20.9870110  31.2532635  10.5523462  20.9881363  30.8640747
  12.7058821  20.7666035  30.4098148  13.2204657  19.8539524  30.7104416
  12.3001480  20.5098362  28.9533672  13.0701056  20.1780930  28.2567959
  11.5236511  19.7492390  29.0348721  11.6842499  21.7631664  28.3367500
  10.9712219  22.2395573  29.0096111  12.5037470  22.4672089  28.1923141
  11.0365257  21.4597340  26.9258938  11.1197863  20.3667297  26.3807831
  10.4493408  22.3853359  26.2385654  10.2701111  23.2665539  26.6983852
  10.1151123  22.1514626  25.3146095  13.7520123  21.8625088  30.5335770
  14.9964123  21.5720844  30.3993378  13.3102655  23.0772324  30.7305202
  12.3222466  23.2006950  30.8998852  14.3011522  24.1821117  30.9248180
  15.1249390  24.0039768  30.2336273  13.5641909  25.5118942  30.6217136
  12.6071148  25.5245571  31.1431980  14.1418247  26.3565559  30.9972038
  13.4189920  25.6913033  29.0998268  14.5849047  26.0960083  28.4441013
  15.4152184  26.3569241  29.0835552  14.6211386  26.2274647  27.1003094
  15.4996004  26.5275154  26.5483360  13.4866924  25.9846153  26.3919258
  13.5168715  26.2988586  25.0895767  13.7530308  27.1900730  24.8220539
  12.3069706  25.5889893  26.9618912  11.5196075  25.4471893  26.2363911
  12.2575541  25.3880424  28.3717213  11.3684835  25.0320454  28.8709412
  14.9589500  24.2008629  32.2992630  15.9526901  24.9000015  32.4172974
  14.4214306  23.5520649  33.3300934  13.6428185  22.9536095  33.0940475
  15.0224791  23.5019474  34.6831779  15.2217875  24.5498466  34.9074173
  14.1224728  22.9341373  35.8099632  13.7376318  21.9533482  35.5305901
  14.9214821  22.7268848  37.1262360  14.2034206  22.4155731  37.8848991
  15.5790577  21.8797226  36.9312706  15.5073776  23.6052475  37.3969841
  12.9778776  23.8660698  36.1328430  12.3629522  23.9702110  35.2389069
  12.4011936  23.4820557  36.9743118  13.4750109  24.8144360  36.3367043
  16.4690590  22.9148617  34.5803947  16.6709728  21.7324657  34.2525597
  17.5064812  23.6821213  34.9626923  17.4210472  24.9747276  35.6214447
  16.9085274  24.8973713  36.5803223  16.9718494  25.7467155  34.9966621
  18.8833351  25.3906918  35.8721275  19.0551529  25.2070446  36.9327202
  19.0509663  26.4464989  35.6593513  19.7773285  24.4867172  35.0208549
  20.7209072  24.1968288  35.4831581  20.0541687  24.8882637  34.0460587
  18.9280720  23.2571163  34.8378372  19.0727997  22.7611656  33.8780518
  19.3423824  22.2011356  35.9215126  18.8388119  22.2208252  37.0929184
  20.1376801  21.2074280  35.5089569  20.4018612  21.3070698  34.5392227
  20.0788002  19.8117847  36.1189270  19.8832779  19.9320469  37.1844826
  18.8232708  19.0141087  35.6117630  17.9448299  19.6422215  35.7598076
  18.8492432  18.6027107  34.0837860  18.9207401  19.4697170  33.4270592
  19.7795486  18.0509415  33.9489365  18.0923672  17.8808250  33.7769928
  18.5183258  17.8222580  36.5018387  17.5656242  17.4077625  36.1722183
  19.3740673  17.1490803  36.5531960  18.4376564  18.0837326  37.5569305
  21.3233986  19.0248394  35.9531288  22.0680504  19.3675632  35.0921555
  21.5872078  18.1028385  36.8755302  20.9726906  18.0894375  37.6769638
  22.7535172  17.1710243  36.9753876  23.0834579  16.7741222  36.0153313
  23.9785309  17.9725304  37.4496956  24.2493534  18.6625710  36.6505699
  23.7457161  18.8383541  38.7514992  23.2604618  18.3871574  39.6169815
  24.7138577  19.1470718  39.1458282  23.3275795  19.7708683  38.3724480
  25.0790577  17.0867710  37.7546577  24.8937626  16.7760925  38.6438980
  22.3892212  16.0100193  37.9656830  21.7143764  16.2260342  38.9612885
  22.9400978  14.8470020  37.7032433  23.4857407  14.6214771  36.8837814
  22.9154282  13.7453775  38.6811447  22.0886250  13.8515368  39.3834419
  22.4940453  12.4745932  37.8741722  23.2287025  12.1858025  37.1225243
  22.4629669  11.5487862  38.4486465  20.9613132  12.6700459  36.9210930
  21.4687271  13.4866772  35.9934387  24.2235069  13.6210728  39.4144478
  25.2442589  14.1511583  38.9386787  24.3176250  12.9295053  40.5484657
  23.4879856  12.5914116  41.0148277  25.5750561  12.6457214  41.2472267
  26.3458538  12.5300188  40.4852638  26.0392208  13.7762308  42.2123451
  26.9641514  13.4703388  42.7012520  26.3522205  14.6696224  41.6719856
  24.9948177  14.2125711  43.3075027  24.1932049  13.4791737  43.3949509
  25.2712021  14.2921457  44.3588715  24.1831551  15.7784147  42.8094635
  25.3210258  16.9250698  43.6084518  26.2914104  16.8650112  43.1156540
  24.9796486  17.9449348  43.4311485  25.2850533  16.9139709  44.6978035
  25.5542717  11.3788347  42.0295868  24.5480862  11.0698690  42.6323166
  26.6645947  10.6843338  42.1158104  27.5096149  10.9956398  41.6585045
  26.7255840   9.3581181  42.7623367  25.8175125   8.8314705  42.4688187
  27.8652611   8.5561771  42.1640663  27.5990162   8.3180494  41.1342545
  28.7482510   9.1918640  42.2298737  28.1819820   7.2938805  42.8994675
  28.6354198   7.6441593  43.8267212  27.2362518   6.7565322  42.9698792
  29.2070045   6.4621096  42.1533127  29.2240791   6.3779025  40.9417267
  30.1366253   5.8213973  42.8360901  30.9209652   5.3952351  42.3635406
  30.2087860   5.8455610  43.8432198  26.6728878   9.4740648  44.3194389
  27.5065289  10.1496506  44.8945999  25.8170662   8.6716404  44.9359245
  25.0893707   8.2589083  44.3700523  25.6489601   8.5604362  46.4216537
  25.5370941   9.5753403  46.8031693  24.4425068   7.5575576  46.5985527
  23.5941048   7.9310794  46.0251465  24.7865124   6.6340947  46.1327477
  23.9715786   7.1657672  47.9986839  23.7098160   6.1110034  48.0826721
  24.7594433   7.3150525  48.7369843  22.7679749   7.9639678  48.3806534
  22.9306774   9.1076756  48.9243050  21.6487160   7.5970559  47.9740753
  26.9290066   8.0068798  47.1124954  27.7088127   7.2512617  46.5675354
  27.1807747   8.4824409  48.3304214  26.5300522   9.1272783  48.7556763
  28.2380238   7.8867292  49.2373085  29.2101135   7.9466538  48.7478676
  28.3071632   8.7362728  50.6316528  28.4377041   9.7956705  50.4108925
  27.3292503   8.6631670  51.1075211  29.4028530   8.3013735  51.6417274
  29.2755146   7.2338424  51.8213463  30.3737354   8.6021633  51.2480087
  29.3126125   9.1056957  53.2880440  30.6843452   8.4264565  54.2742615
  30.3383198   7.4545975  54.6261902  31.5614014   8.0514126  53.7467995
  30.9337864   9.1847115  55.0165024  28.1005993   6.3422804  49.3803596
  26.9563026   5.8542914  49.4176025  29.1651402   5.5355954  49.3350983
  30.0854511   5.9329534  49.2116661  29.1085587   4.1025925  49.5518265
  28.1644363   3.8156791  49.0887756  30.2871590   3.4832032  48.7898216
  30.2969131   3.9035454  47.7841759  31.1957512   3.7622917  49.3233643
  30.2949486   1.9522049  48.8289490  29.4385414   1.2861012  49.4925499
  31.2560310   1.2986203  48.2600479  28.9773369   3.7260616  51.0474701
  29.9203434   3.1372433  51.6889305  27.8176041   4.0763712  51.6650887
  27.1691322   4.5419612  51.0463715  27.3852711   3.5270252  53.0253792
  28.2996578   3.2742405  53.5621262  26.5185471   4.4876118  53.7954330
  25.6247883   4.6141634  53.1844673  26.3017426   4.0481195  55.2699623
  26.2804756   2.9629750  55.3704605  26.9768028   4.5355253  55.9734039
  25.3173485   4.4047604  55.5730743  27.0688553   5.8929744  53.8310204
  27.9194183   5.9628129  54.5090752  27.2838154   6.2131901  52.8115311
  26.3434868   6.5812774  54.2648163  26.5663643   2.2434328  52.8218689
  25.2974682   2.2312682  52.6370735  27.2709560   1.1536486  52.8534164
  28.2365932   1.1758517  53.1486359  26.7873783  -0.0662421  52.1652222
  26.3556156   0.2475759  51.2148552  27.9384995  -1.0130599  51.8930626
  28.1780796  -1.5646529  52.8021545  27.6601639  -2.0384474  50.7142181
  28.5558681  -2.5933089  50.4350357  26.9478893  -2.8171175  50.9870605
  27.3210011  -1.5567893  49.7971191  29.0379505  -0.2821982  51.4577217
  28.8812275   0.3346163  50.7389870  25.6539536  -0.6611236  52.8911743
  25.0289001  -1.5610552  52.3899460  25.4967747  -0.3674307  54.2335320
  26.2186413   0.1669863  54.6954918  24.3321037  -0.7939368  55.0516205
  24.2102165  -1.8591188  54.8550682  24.6342621  -0.4750566  56.0491753
  22.9692612  -0.1084351  54.8560143  21.8848686  -0.4190589  55.3572464
  23.0518551   0.9284113  54.0378914  23.9906731   1.1611341  53.7470970
  21.9186306   1.7669405  53.5989380  21.1003590   1.8428373  54.3150177
  22.2256584   2.7101471  53.1470490  20.9323711   1.0470921  52.5283165
  21.1958084  -0.0649946  52.1226387  19.9325790   1.8015959  52.1539917
  19.9296951   2.7107663  52.5938759  19.0178032   1.3850091  51.2078209
  18.6437645   0.4268728  51.5686264  17.8656731   2.3966045  50.9772644
  18.4298363   3.2441518  50.5880470  17.1558170   1.8670802  50.3418045
  17.1283798   2.8954215  52.1510620  17.6687126   3.1658862  53.0582542
  16.2555676   4.0255384  51.6847572  15.2611103   3.6784661  51.4042091
  16.1085300   4.5886855  52.6063576  16.7750664   4.6904259  50.9947243
  16.2356110   1.8251035  52.7586212  15.7568846   1.1675090  52.0330200
  16.8552704   1.0870521  53.2679367  15.5189209   2.1803555  53.4990616
  19.6350269   1.1027566  49.8152008  20.1969147   1.9784956  49.1938591
  19.4583721  -0.0672161  49.2888908  18.9157372  -0.7900313  49.7396622
  19.7249603  -0.2520473  47.8395729  20.6686974   0.1737295  47.4987297
  19.8027687  -1.8005408  47.6448135  18.8130322  -2.2338696  47.7888451
  20.1283512  -2.0068634  46.6252441  20.6181355  -2.5779667  48.6956024
  20.0505238  -2.4995611  49.6228409  20.6628933  -3.6119788  48.3536606
  22.0659733  -2.1305270  48.9067841  22.5201912  -2.1622999  47.9164429
  22.1826477  -1.0984889  49.2375183  22.8207340  -2.8910880  49.9164658
  22.5115585  -2.5489480  50.9041138  22.5249538  -3.9175613  49.6997490
  24.2568016  -2.6841540  49.7653236  24.7031078  -3.4959779  49.3630142
  24.5387592  -1.8694313  49.2391777  24.5967293  -2.4480314  50.6866264
  18.7056065   0.4369622  46.9366684  17.5735645   0.7548585  47.4434128
  19.0380287   0.5314750  45.6311226  19.9251747   0.1651172  45.3167114
  18.1022739   1.0044850  44.6242714  18.7480793   1.4397207  43.8616409
  17.3742046  -0.2377969  44.0193558  16.8798141  -0.6839087  44.8822937
  16.7583370   0.1363857  43.2015533  18.3199043  -1.3785170  43.4593811
  19.1221313  -0.9348785  42.8697052  18.8118000  -1.8900787  44.2866936
  17.6027813  -2.3716049  42.5239182  17.2648144  -1.7543569  41.6915245
  18.2183704  -3.2044463  42.1840172  16.3283081  -2.9625013  43.2073479
  15.8379230  -2.2188478  43.8355255  15.6250372  -3.2779057  42.4366150
  16.8147564  -4.1948009  44.0179558  17.6776371  -4.0448527  44.5209999
  16.1262703  -4.5318027  44.6756134  17.0401478  -4.9858661  43.4318542
  17.2227077   2.2054496  44.9525261  15.9875364   2.1167657  44.8581924
  17.8981266   3.2089648  45.4269676  18.9000492   3.0817935  45.4182320
  17.2758694   4.5376883  45.8249054  16.2056446   4.3642178  45.9372864
  17.7015114   4.7942653  47.3123169  17.2406654   4.0577450  47.9705429
  18.7575874   4.5413532  47.4063148  17.3669167   6.4504151  47.9751549
  16.2163773   6.6079073  47.3145828  17.5905819   5.7657886  44.9522133
  18.7334538   5.9739270  44.5019913  16.5758591   6.5913506  44.7704544
  15.6195774   6.3394537  44.9758148  16.7490158   7.8990812  44.0473976
  17.7877312   7.9650083  43.7236328  15.7576780   7.9868255  42.7979507
  14.8216496   7.6731005  43.2600403  15.7121382   9.4709940  42.2788391
  15.0652609   9.5642118  41.4065056  15.4391556  10.2054758  43.0365448
  16.6787434   9.7233601  41.8428535  16.2895374   6.9810300  41.6674919
  16.9937363   7.4150486  40.9576797  16.7935810   6.1071949  42.0803642
  15.0978928   6.5635300  40.8600807  15.3752632   5.8213434  40.1115265
  14.4204473   5.9513211  41.4553719  14.6068754   7.4031181  40.3680534
  16.5325832   8.9644823  45.0969048  15.5591030   8.9197197  45.8628845
  17.2897568  10.1044416  45.1862297  18.1282272  10.2637749  44.6461563
  16.8109646  11.3147936  45.8434715  15.8002529  11.1374617  46.2110558
  17.6330433  11.6384249  47.0856476  18.5053978  12.2119331  46.7722969
  16.9966831  12.1347504  47.8183174  18.1858311  10.3664474  47.7185326
  17.3479214   9.6948195  47.9054146  18.8580036   9.8569593  47.0280914
  18.8992767  10.4726505  49.0696564  19.5972404  11.3000107  48.9415054
  18.1159096  10.6972160  49.7935410  19.6419640   9.2492809  49.3659172
  20.2495937   8.9362469  48.6223488  19.5010624   8.5243816  50.3954811
  18.8182621   8.8184080  51.4500122  18.9555721   8.2687168  52.2861328
  18.3682804   9.7141457  51.5735779  20.1607475   7.3521194  50.2754936
  20.1975803   6.6923046  51.0392914  20.7158585   7.1019454  49.4696617
  16.7001534  12.4780512  44.9081535  17.3784313  12.5259075  43.8660545
  15.9494181  13.5148516  45.2784538  15.5149899  13.5579929  46.1892281
  15.8340893  14.7887354  44.4191284  16.6250782  14.9036903  43.6780319
  14.5061808  14.8621330  43.6321602  14.5908165  15.7170982  42.9613609
  14.2779703  13.5167999  42.8534317  15.1917877  13.2928476  42.3030777
  14.1173306  12.7227774  43.5826912  13.4411030  13.6096926  42.1612396
  13.2055273  15.0707397  44.4364548  13.2934303  15.9709921  45.0446587
  12.4325962  15.1818323  43.6759720  13.0857668  14.2689905  45.1651230
  15.9000397  16.0262375  45.4571304  15.5521240  15.8004475  46.6662827
  16.3478127  17.1586361  44.9226341  16.6010284  17.1362305  43.9451485
  16.6829872  18.3032646  45.7593842  16.0404797  18.2898254  46.6397858
  18.1058159  18.1044083  46.2812424  18.2331257  17.3714828  47.0779305
  18.7470875  17.7188568  45.4886322  18.8033504  19.3906918  46.8666687
  19.8126202  19.1830521  47.2221451  18.9400196  20.1828842  46.1305618
  17.7516174  20.0741577  48.2120895  18.8940067  21.2933216  48.8937187
  18.3067074  22.0792866  49.3685112  19.5157681  20.8006039  49.6412086
  19.5970821  21.6596489  48.1456604  16.5979061  19.5902996  44.9086418
  17.4406643  19.9262505  44.0998955  15.3972645  20.1202297  44.8642311
  14.7030077  19.8055267  45.5268555  15.0508938  21.3476353  44.1673660
  15.6149540  21.4738159  43.2432365  13.5633612  21.2685509  43.7487221
  13.5043783  20.4295197  43.0554352  13.0102072  21.1459751  44.6799088
  12.9350405  22.5263729  43.0972633  13.2078009  23.4417686  43.6223869
  13.4009647  22.5962543  42.1143379  11.2061968  22.5056324  42.7785530
  10.4946508  22.4307823  44.4129829   9.4305353  22.3483219  44.1917038
  10.7488651  21.4502525  44.8155251  10.7206478  23.3134422  45.0112610
  15.3023882  22.7214832  44.9429588  14.4504776  23.0481644  45.7756424
  16.1896133  23.6206856  44.5180092  16.6547375  23.3486042  43.6637688
  16.3535004  25.0547600  45.0225906  16.1091785  25.1220665  46.0827217
  17.8491573  25.4417915  44.9238091  18.2075615  25.6615047  43.9181366
  17.9570122  26.7051392  45.7423744  17.2501640  27.4210835  45.3229866
  17.7493935  26.4974308  46.7920685  18.9875336  27.0354214  45.6118393
  18.6302910  24.4272633  45.5717239  19.4172077  24.8745842  45.8915138
  15.4913149  26.0190582  44.1384430  15.6741343  26.0562534  42.9160385
  14.6485319  26.8539906  44.8373795  14.5380068  26.7717876  45.8379402
  13.4674120  27.6278172  44.2936096  13.7769594  27.9747124  43.3077393
  12.2801332  26.7020473  44.1228218  12.6946650  25.8138008  43.6460838
  11.6842442  26.2646255  45.4394302  12.3969040  25.9720592  46.2105484
  11.0583982  27.0531521  45.8573341  11.0084953  25.4380722  45.2197075
  11.1065388  27.0348454  43.1279678  10.5783243  27.8961182  43.5369873
  11.4493876  27.2069340  42.1077003  10.3454199  26.2643623  43.2510414
  13.0828447  28.8460350  45.0190315  13.1628332  28.8886452  46.2641907
  12.5190763  29.8651695  44.3487015  12.6708174  29.9554577  43.3542557
  11.9653130  31.0974121  44.9931259  12.7487698  31.3439102  45.7097397
  11.7088232  32.1729698  43.9760590  12.1458397  32.0088921  42.9910736
  10.6346874  32.3444595  43.9058838  12.4374352  33.3797607  44.6951790
  12.2629309  33.4437790  45.7692146  13.5140829  33.2538338  44.5808487
  12.0224981  34.7337837  44.0606537  11.6123533  34.8084602  42.8802719
  12.2847614  35.7987366  44.7154922  11.8768396  36.6443481  44.3431435
  12.7132444  35.8085327  45.6300430  10.6625013  30.6830559  45.8179779
   9.7859697  29.9315281  45.3379250  10.6186676  31.1123505  47.0843239
  11.3883219  31.5946045  47.5260963   9.3656845  31.0312786  47.9104729
   8.5322371  31.2838287  47.2549667   9.0398617  29.5885296  48.4004822
   9.2608480  28.9248962  47.5645103   9.8407669  29.0460377  49.6225586
   9.5855923  27.9877892  49.6781464  10.9066734  29.1198349  49.4069252
   9.5660944  29.6049252  50.5171509   7.6980901  29.3921871  48.7824402
   7.3239865  28.5860348  48.4194450   9.2976608  31.9758835  49.1343346
  10.3336716  32.2633057  49.7284050   8.0736732  32.3237991  49.4830170
   7.3338718  32.2763710  48.7970543   7.7503223  33.1077461  50.6301651
   8.6567068  33.5830154  51.0052414   6.7437453  34.2314796  50.3027191
   6.9371409  34.5170059  49.2687111   5.7478256  33.7989883  50.3986015
   6.7894611  35.4666061  51.2684364   5.7470241  36.1287842  51.4027748
   7.8658524  35.7246704  51.8341331   7.2878146  32.2304878  51.8527603
   7.0027156  32.7538605  52.9695206   7.1020570  30.9217663  51.5708466
   7.2608428  30.7406788  50.5899811   6.9632759  29.8796902  52.5961990
   6.1650982  30.1202240  53.2984505   6.5301228  28.5557270  51.9684982
   7.3503304  28.2114449  51.3385544   6.3697233  27.5466499  53.0652962
   6.2094884  26.5330696  52.6977615   7.2520390  27.4355907  53.6955910
   5.5355325  27.8767529  53.6843719   5.2100573  28.7452469  51.1918488
   5.2826080  29.5368042  50.4460068   5.0080976  27.7569790  50.7787628
   4.3309512  29.0121002  51.7784195   8.2321806  29.7818813  53.4708443
   9.3576365  29.6350060  53.0137672   8.0890703  29.7660847  54.8430710
   7.0294933  30.3676529  55.5636101   6.2912612  29.5912113  55.7642479
   6.6506181  31.0999870  54.8507042   7.6257491  31.0544758  56.7386589
   6.8941464  31.0682755  57.5465393   8.1146870  31.9815006  56.4392166
   8.7931347  30.0956287  57.0981674   8.3681583  29.3273544  57.7441177
   9.5875139  30.6644211  57.5814247   9.2130575  29.5534077  55.7087212
  10.0582361  30.1628380  55.3887672   9.8211784  28.0648117  55.8293266
   9.1518745  27.0592079  55.3953629  11.0554590  27.9303284  56.3651161
  11.5311375  28.7580490  56.6948280  11.8073683  26.6602821  56.2729721
  12.0546598  26.4360332  55.2353516  13.2341366  27.0880108  56.7881126
  13.7345915  27.7479305  56.0794868  13.2238512  27.6657829  57.7123337
  14.2357998  25.8865433  57.0003471  13.9418430  25.1238251  57.7214241
  14.5545712  25.4025002  56.0772095  15.4317474  26.4230652  57.7640839
  15.3860378  26.5648327  58.9967232  16.5323105  26.6614170  57.1017456
  17.2932777  27.0345287  57.6511230  16.4948902  26.4656086  56.1116104
  11.2775221  25.5382309  57.1161880  11.3311110  24.3819141  56.7524757
  10.5515471  25.8190918  58.2155113  10.5383892  26.7713928  58.5517426
   9.6945982  24.8345509  58.9343262  10.2430077  23.9147739  59.1376915
   9.2927723  25.4617710  60.3106194   8.7359877  24.6697617  60.8114319
  10.2698488  25.6211224  60.7667198   8.5411272  26.7507629  60.1792831
   9.1215620  27.7245598  59.6854439   7.3904009  26.8087654  60.5667572
   8.3724575  24.4463654  58.1337509   8.0073757  23.2773304  58.2268753
   7.6930823  25.4451218  57.4311714   8.2345171  26.2928925  57.3404198
   6.4487133  25.2227535  56.6982155   5.8749824  24.5612316  57.3473167
   5.6070628  26.5483017  56.5898476   5.6531119  27.0304718  57.5663147
   6.1558466  27.3263130  56.0591507   4.1942887  26.4678307  55.9993706
   4.2306118  26.0855312  54.9792595   3.4915559  25.9008636  56.6099586
   3.4971900  27.8742352  56.0274429   3.5899217  28.7156601  56.8586922
   2.5609014  28.0594692  55.0896912   2.2480624  27.2806778  54.5278053
   1.9553030  28.8593292  55.2062073   6.6246653  24.4589844  55.3885880
   5.7109585  23.7515793  55.0554695   7.7588682  24.5175114  54.7384682
   8.4102030  25.2091122  55.0813293   8.1514587  23.7305336  53.5369797
   7.4709926  24.0437412  52.7451668   9.5546465  24.0068855  52.8883972
  10.3351841  24.0064068  53.6492233   9.8732119  23.0764713  51.7992592
  10.8164825  23.4132996  51.3692703   9.8664780  22.0974178  52.2783279
   9.0759449  23.1756935  51.0626297   9.4870548  25.4628296  52.3619804
   8.8303680  25.5458107  51.4959679   9.1384668  26.1178341  53.1604500
  10.8617659  25.9628773  51.8191605  10.7944479  27.0394936  51.6627274
  11.5816469  25.8614559  52.6313095  11.1427021  25.5220947  50.8626633
   7.8640237  22.2106380  53.8362541   8.2122717  21.8074226  54.9035988
   7.3240633  21.3978844  52.8667412   6.9736605  21.8397083  52.0288200
   6.8767028  20.0060253  53.0875092   6.9665842  19.6206608  54.1031456
   5.3539124  20.0449390  52.8248062   5.1477652  20.6967354  51.9758263
   5.0346003  19.0394478  52.5507126   4.6068568  20.3481960  54.0853424
   4.8881078  19.6529846  54.8763390   4.9640698  21.3100338  54.4532700
   3.0580859  20.3487892  53.9802322   2.6730530  20.7064190  54.9351959
   2.7926950  21.0658436  53.2033806   2.5833955  18.9763050  53.7282486
   2.2352195  18.6617107  52.8338776   2.2507877  18.0290413  54.6020088
   2.4133594  18.0867634  55.8464203   2.2656574  17.2129555  56.3309250
   2.7616425  18.8867683  56.3551331   1.6465799  16.9133644  54.2707748
   1.5847499  16.1098537  54.8795853   1.2263206  16.8392849  53.3553581
   7.6214552  19.0876732  52.1608658   7.2919183  19.0992031  50.9360352
   8.7077732  18.4174633  52.5925827   8.8779402  18.4581432  53.5873108
   9.5744076  17.4155197  51.8370476   9.7841110  17.7099628  50.8087349
  10.9863768  17.1712513  52.4908867  10.7051458  16.5875244  53.3673973
  11.6575327  16.7103004  51.7661972  11.5672922  18.4776478  52.9292984
  12.2222242  19.3228321  52.0406342  12.3119488  20.5217705  52.6571388
  12.6354609  21.4400539  52.1897049  11.7524328  20.3893986  53.8988495
  11.8734274  21.1500244  54.5522308  11.2768488  19.1263943  54.0993958
  10.6411552  18.7999020  54.9091454   8.7983751  16.0450001  51.7230186
   8.2115164  15.5724745  52.7291603   8.8258791  15.4375248  50.5711250
   9.4796419  15.8709869  49.9348831   7.9205585  14.3431168  50.1691132
   7.1621714  14.1093168  50.9163017   7.1058321  14.6954527  48.8677483
   7.8361487  15.0544558  48.1425896   6.3055773  13.5401058  48.3628387
   5.9054575  13.8216934  47.3888206   6.9278469  12.6709137  48.1497955
   5.5176816  13.1948299  49.0322418   6.1947432  15.8998260  49.1367950
   5.5812440  16.0227509  48.2442665   5.5978699  15.6803856  50.0220566
   6.8037114  16.7762661  49.3583984   8.5934429  12.9676142  49.9090691
   9.5951166  12.8311577  49.1947746   8.0448723  11.9285984  50.4609108
   7.2780089  12.2376699  51.0409889   8.6038780  10.5726118  50.5974846
   9.3579149  10.4335928  49.8227539   9.3757763  10.4051275  51.9483948
   8.6664772  10.6451902  52.7404556   9.6231213   9.3436327  51.9357185
  10.6098871  11.1627073  52.1225815  10.4823952  12.5085621  52.5048637
   9.5164146  12.9726791  52.6385689  11.6265554  13.2696238  52.7719040
  11.4485579  14.3083315  53.0081367  12.9614201  12.7641754  52.5726051
  14.0867710  13.5083818  52.7363930  14.8316221  12.9250040  52.8990860
  13.0908909  11.4113321  52.2584686  14.0224133  10.8730183  52.1642151
  11.9013710  10.5896397  52.0702515  12.0299664   9.5289125  51.9130173
   7.5760078   9.4659872  50.3133049   6.4245782   9.4919529  50.7661171
   7.9860969   8.5223217  49.4915047   8.9524355   8.6683760  49.2366333
   7.1697278   7.5688744  48.6647530   6.2429132   7.3882627  49.2092743
   6.8761649   8.1617451  47.2577515   7.7804294   8.1061964  46.6516800
   6.1100049   7.5660286  46.7615471   6.3688593   9.6237545  47.1500359
   7.0101519  10.3605232  47.6337929   6.3333192  10.1369839  45.7065392
   7.3380175   9.9826784  45.3129883   5.7540665   9.4808903  45.0568390
   5.9776855  11.1669207  45.7357826   4.9192014   9.7284222  47.6200256
   4.8330069   9.5493851  48.6917610   4.5930543  10.7615147  47.4998245
   4.3969650   8.9702415  47.0364799   7.9208035   6.2619877  48.5659866
   9.1742144   6.2517943  48.7074127   7.2009525   5.2334571  48.0585098
   6.2111936   5.3249116  47.8793106   7.7380810   3.8532259  47.9798965
   6.8629441   3.2748740  47.6836777   8.6883812   3.7110081  46.7632332
   9.5524092   4.3753982  46.7513351   8.9430952   2.6520617  46.7201805
   8.0182447   4.0337429  45.3921471   7.8456082   5.1097999  45.4121017
   8.6666365   3.8331697  44.5392303   6.6712246   3.3764827  45.0674667
   6.5258021   2.2903464  45.5595665   5.9410396   3.8215091  44.1527901
   8.3870583   3.2590163  49.2781715   8.1437950   3.6825185  50.3781319
   9.4384212   2.4226031  49.2041855   9.9053469   2.1917634  48.3388557
  10.0799541   1.8024588  50.4123764   9.2372570   1.7118288  51.0977554
  10.5893221   0.3546552  50.0732651  11.1722479   0.4269318  49.1550751
  11.2585402   0.0061666  50.8599052   9.4460812  -0.6977592  49.9104919
   8.9740314  -0.9252651  50.8662682   8.7038040  -0.1534947  49.3266144
   9.7387171  -2.0332730  49.2188187  10.6680765  -2.4434931  49.6139297
   8.8633814  -2.6416857  49.4462433   9.9242010  -1.9042087  47.7088776
  10.4565134  -0.9961183  47.4258270  10.5745478  -2.7536638  47.5001297
   8.6449385  -1.8871700  47.0204201   7.9893565  -1.1577872  47.2619019
   8.8923426  -1.8718345  46.0413094   8.1215410  -2.7338824  47.1913986
  11.0611944   2.7093370  51.1326828  11.6995783   2.3373816  52.1395798
  11.2155962   3.9271760  50.5867386  10.6299162   4.1518750  49.7951660
  12.0968399   4.9671097  51.0910797  12.9441423   4.5345559  51.6231270
  12.5532465   5.8160353  49.9658470  11.7659578   6.4031391  49.4930000
  13.3359604   6.4685135  50.3528023  12.8443317   5.2404847  49.0871506
  11.3188038   5.8224163  52.0867920  11.9757423   6.6943955  52.7189751
  10.0273809   5.4719663  52.3639565   9.5815687   4.8977470  51.6627960
   9.1107826   6.3330703  53.0829430   9.2009630   7.3088999  52.6057396
   7.6077123   5.8210468  52.8706017   7.3914847   5.6888461  51.8104744
   7.4678702   4.5810423  53.6863670   6.5416150   4.0765204  53.4113770
   8.3616934   3.9876010  53.4939880   7.4609294   4.8113852  54.7517281
   6.5193372   6.8198690  53.4062500   6.7191095   7.0080957  54.4611244
   6.7375951   7.7840877  52.9471741   5.5736041   6.4219027  53.0383987
   9.5359821   6.6514831  54.5328484   9.3312159   7.7236524  55.0491867
  10.3667774   5.7339978  55.0736198  10.6508188   4.9359741  54.5235481
  10.8664103   5.7558956  56.4085617  10.0727291   5.9748988  57.1228561
  11.5250788   4.4095907  56.8202858  11.8593245   4.6308846  57.8338966
  10.4095964   3.4210134  56.8903618   9.6093168   3.7455716  57.5554314
   9.9865847   3.2755570  55.8963776  10.7333536   2.4677241  57.3081169
  12.7445421   4.0265279  55.8938293  13.4657764   4.8409104  55.8252525
  13.3955688   3.1736333  56.0857506  12.3844213   3.8279238  54.8843842
  11.7686100   6.9622803  56.7052040  12.0893993   7.3013558  57.8590469
  12.2227449   7.6429505  55.6464157  12.0133333   7.1931763  54.7666702
  13.2500544   8.8185263  55.6241226  13.9190435   8.6364326  56.4651909
  14.1006699   8.8036928  54.3183098  13.3253889   8.8427353  53.5531158
  14.7831430   9.6534033  54.3362427  14.8469028   7.5125813  53.9355087
  14.0619497   6.7563109  53.9388084  15.4766140   7.7979927  52.5042496
  16.0247669   8.7390852  52.4597549  16.0440845   6.9329062  52.1611710
  14.6449642   7.8350968  51.8006287  15.8792572   7.1229053  55.0396843
  15.4372387   7.1463490  56.0357590  16.3189373   6.1493354  54.8230209
  16.6730232   7.8650932  54.9549179  12.7163677  10.2695704  55.9497833
  13.4464931  11.2701702  56.0088196  11.3868437  10.4335337  55.9991112
  10.8258982   9.6407824  55.7216492  10.6618509  11.7088766  56.0685463
  10.8821850  12.3526106  55.2169800   9.1472464  11.4206533  55.9634819
   8.7220793  12.3893633  56.2260361   8.8130779  11.3403702  54.9290810
   8.3873377  10.4650068  56.8847313   8.8769331   9.4911861  56.8931351
   8.3694267  10.7458029  57.9377899   6.9698205  10.1856775  56.4678612
   7.0407310  10.1477556  55.3808289   6.6569066   9.2138004  56.8494873
   6.0248160  11.2507238  56.9338646   6.4842477  11.9836922  57.4551888
   4.7128820  11.2961102  56.8700905   4.0553112  10.4256334  56.2087975
   4.6456776   9.8553944  55.6202431   3.0513654  10.5285625  56.1688194
   4.1145759  12.2521210  57.5636406   3.1259859  12.4574308  57.5382843
   4.6525350  12.8257475  58.1974030  11.0962820  12.4485912  57.3458977
  11.2331762  11.7853775  58.4039192  11.4339666  13.7607069  57.2053719
  11.2660456  14.7013998  56.1013641  10.3648748  14.5102835  55.5187263
  12.0874405  14.6202183  55.3894501  11.3889256  16.0932865  56.7514992
  10.4029341  16.3544884  57.1358109  11.7189407  16.9020023  56.0994492
  12.3501806  15.8497305  57.9485092  12.2760725  16.6069431  58.7290421
  13.3708181  15.7747650  57.5732956  11.9675531  14.4662209  58.3784981
  12.8887291  13.9493465  58.6475372  11.0458050  14.5918102  59.5616608
  11.5779982  14.8530283  60.6337433   9.6931849  14.5001268  59.4633980
   9.2510853  14.3602848  58.5661278   8.8112755  14.7424679  60.6048927
   9.1750917  15.6057568  61.1620903   7.4035807  15.0855551  60.1594810
   6.7669778  15.1212492  61.0435448   7.4481707  16.0507584  59.6550064
   6.8150039  13.9701395  59.2074356   5.6277924  13.6455011  59.3725014
   7.4988632  13.3915462  58.3177834   8.8643894  13.5443764  61.4850540
   8.7251234  13.5750866  62.6648674   9.0615425  12.3583975  60.8443565
   9.1534386  12.3111620  59.8396530   9.2300253  11.1099062  61.5844231
   8.5425072  11.0120468  62.4245682   9.0518560   9.8754482  60.6785049
   8.0429049   9.7864103  60.2757759   9.7271128   9.9412909  59.8253975
   9.3349133   8.5388346  61.4122887  10.3328896   8.5067749  61.8494568
   8.4154682   8.2382145  62.5590363   7.3704333   8.3690805  62.2782021
   8.6611023   7.2583203  62.9683952   8.5659018   8.9473677  63.3730240
   9.2722263   7.3884492  60.4599113   8.2714329   7.2836232  60.0409660
  10.0677443   7.6547327  59.7639618   9.5084715   6.4027815  60.8608513
  10.5971384  11.1411381  62.2974968  10.6803226  10.6830158  63.4823494
  11.6834927  11.7338104  61.6662598  11.5946846  12.0528822  60.7121086
  12.9727526  11.9053907  62.2614326  13.3638878  10.9444599  62.5956917
  13.9717588  12.3734064  61.2719116  14.0053806  11.7268047  60.3950539
  13.6735964  13.3604841  60.9185219  15.2841072  12.4253902  61.8536911
  15.8723068  12.3034592  61.1048546  12.8603134  12.7389345  63.5228348
  13.5379229  12.4647884  64.5117950  11.9628935  13.7361221  63.6014366
  11.5614834  14.0677013  62.7359734  11.6571999  14.5033960  64.8251114
  12.5747213  14.8294907  65.3149261  10.8150330  15.7266979  64.3519669
  11.2432709  16.1767540  63.4563332   9.8286343  15.4057341  64.0171509
  10.5877762  16.7877846  65.3061905  10.2453890  16.4633217  66.2888412
  11.9412889  17.6140785  65.5170059  12.7410955  16.9952297  65.9237518
  12.1826735  17.9929085  64.5238647  11.8025179  18.4860992  66.1560898
   9.5502396  17.7261143  64.7078552   8.6422043  17.1330910  64.8169479
   9.4269075  18.6182632  65.3218231   9.8149395  18.0400505  63.6981583
  10.8953199  13.6076231  65.8006897  11.3475313  13.5188723  66.9109879
   9.8405514  12.9070654  65.2818756   9.6369705  12.9048615  64.2926102
   8.9834785  12.0773010  66.1887436   8.4727135  12.6876717  66.9335022
   7.8497705  11.5685539  65.2947769   8.2189169  10.8445015  64.5684280
   6.8230758  10.8278055  66.0692062   5.9472966  10.5378752  65.4886475
   7.0977917   9.9503765  66.6546555   6.3891120  11.4429092  66.8575134
   7.1878262  12.6217394  64.6891403   7.6859674  12.8686762  63.9065323
   9.7162228  10.9455471  66.8791351   9.5211449  10.8058863  68.0819702
  10.7850552  10.4022961  66.2882614  10.8931446  10.5252142  65.2916107
  11.7326698   9.3929777  66.8528061  11.1742649   8.7402935  67.5238419
  12.4087658   8.5793285  65.7008896  12.7692919   9.2820978  64.9497299
  13.2548437   8.0847626  66.1780243  11.3988256   7.6659427  65.0943146
  11.2691526   6.8397837  65.7934189  10.4202566   8.1310282  64.9751511
  11.8851824   7.1398726  63.7787590  11.0986586   6.4797635  63.4130592
  12.2328558   7.8714609  63.0493736  13.0734243   6.2682033  64.0507507
  13.7743111   6.9258208  64.5649490  12.7200775   5.4615469  64.6930542
  13.7386341   5.8023481  62.8105240  13.9332581   6.5454483  62.1547623
  14.5926628   5.2875471  62.9708939  13.0849333   5.2324743  62.2928162
  12.8059883   9.9586325  67.8558044  13.6490231   9.1745911  68.2959824
  12.7479820  11.2954979  68.0890656  11.9980659  11.8138027  67.6542282
  13.4400921  12.0970936  69.1025085  14.1942434  11.4382877  69.5330048
  14.1739664  13.2007294  68.2520065  13.5131645  13.6278858  67.4976959
  14.4241228  14.0413933  68.8991623  15.4865007  12.6789646  67.6783142
  16.4729424  12.6082935  68.3219376  15.5436049  12.3647556  66.3774567
  14.6931782  12.2499819  65.8448181  16.4228668  12.1460047  65.9311981
  12.5185947  12.7108183  70.2506638  13.0410814  13.2302656  71.2096710
  11.1612396  12.6536999  70.1236496  10.8988523  12.3824444  69.1868057
  10.1509342  13.3115082  70.9484024  10.6142054  13.6725187  71.8666382
   9.8464661  14.6212721  70.2245178   9.0680971  15.1913223  70.7317581
  11.0322151  15.5879097  70.1644745  10.6438627  16.5624866  69.8686981
  11.4342728  15.7382116  71.1663971  11.7923050  15.2890682  69.4426270
   9.2802057  14.3578291  68.9142609  10.0447769  14.1978273  68.3562012
   8.8460283  12.4766445  71.2052994   7.9877987  12.9729729  71.8873901
   8.7148533  11.1816893  70.8288193   9.5329199  10.8386211  70.3459396
   7.4293289  10.4062710  71.0121765   6.9005842  10.5931234  71.9468536
   6.4107356  10.8905268  69.9643936   6.2020602  11.9580002  70.0354996
   6.8733048  10.6427650  69.0090179   5.1315475  10.0850277  69.8282471
   4.7395644  10.1776934  68.8153992   5.4138603   9.0333738  69.8774872
   4.0669274  10.4202480  70.8980026   4.2685838  11.3590803  71.7048645
   3.0466807   9.7274084  70.8252258   7.7185874   8.8967028  71.0593338
   7.1359792   8.1464319  71.7895432   8.6529398   8.4781656  70.2141571
   9.1098423   9.2036581  69.6802979   8.8994246   7.0374107  69.9211578
   8.0720119   6.4672198  70.3434982   8.7669897   6.7966719  68.3930359
   9.3583813   7.5942664  67.9433670   9.1733494   5.8371959  68.0730667
   7.3599496   6.9613504  67.7828445   6.8914533   7.8355231  68.2350006
   7.4144688   7.0190392  66.2564316   7.7414689   6.0848684  65.7998199
   6.3569102   7.2335029  66.1025620   8.1194611   7.7693152  65.8984222
   6.4618917   5.7551751  68.1351929   5.5184350   5.6715517  67.5957489
   7.0233507   4.8271699  68.0271606   6.1147480   5.8786840  69.1610260
  10.1335106   6.3512726  70.5257950  11.2094259   6.9852028  70.5105820
  10.1050787   5.1744666  70.8992386  24.7208366  15.3814878  30.3184032
  24.9822598  14.3380203  30.1560421  25.4903412  16.1149750  30.5494766
  23.5199318  15.7236185  29.8190250  23.0288696  17.1468334  29.9474602
  21.7897911  17.4818649  29.9236469  23.8434772  18.0360718  30.2966328
  22.6040249  14.8292904  29.2236328  22.1766109  13.6430664  29.8859673
  22.9935474  13.2468405  30.5014496  22.0104179  12.5840740  28.8303852
  22.8023300  12.4849892  28.0910721  21.0032139  11.6687155  28.8468170
  19.9900665  11.6779718  29.9179459  19.1975384  10.9489737  30.0756092
  19.8977814  12.7786665  30.6612720  19.0378876  12.7900677  31.3275890
  20.8621635  13.9451246  30.6341686  20.3275223  14.7012529  30.0462723
  21.1873016  14.5073938  31.9174252  21.8544025  15.1655416  31.6556072
  20.8769894  10.7172079  27.7129898  21.7204533  10.7572565  26.8174210
  20.0716991   9.8004198  27.8208256  40.2921677  21.2938747  47.5331001
  41.2526054  21.0030842  47.1129456  40.2343254  22.3421345  47.8183060
  39.3458557  20.3725052  47.7846489  38.1413116  20.8302479  48.6467743
  37.9735527  21.9946804  48.9545937  37.3910294  20.0113964  49.1511841
  39.3148766  19.0696259  47.4835091  38.9255219  18.7031364  46.1003075
  38.9831810  17.6132870  45.9903412  39.9447289  19.3534737  45.1136208
  40.9204330  18.8754082  45.1682243  39.7545586  20.5891647  44.4656639
  38.4898796  21.2690163  44.5887184  38.4678154  22.3208904  44.3103828
  37.5114555  20.6681881  45.2697449  36.5677071  21.1649590  45.4844093
  37.5163765  19.2244873  45.7493172  36.9174347  19.1066399  46.6606750
  36.9151649  18.4794998  44.7644501  36.3318481  17.8297844  45.1938019
  40.8823700  21.2892380  43.7475700  42.0172310  20.9223080  43.8152924
  40.6748734  22.3803616  43.2418365  17.7868748  11.3081760  55.7124100
  16.8970089  11.9138451  55.8699799  18.4012737  11.0421476  56.5698929
  18.1301632  11.0905914  54.3896103  17.2524281  11.5842237  53.2342567
  16.3962040  12.4359398  53.3588562  17.5727730  11.2591457  52.0828972
  19.2910023  10.3827314  53.9893990  20.3145981   9.8522787  54.9164467
  20.9540253   9.1735649  54.3388023  19.6913757   8.8273869  55.8514442
  18.9096069   8.2183304  55.4026413  20.1550426   8.6298399  57.1070328
  21.1927738   9.5037365  57.6482430  21.4850082   9.1645994  58.6402054
  21.6837673  10.5830793  56.9723473  22.3648300  11.2916145  57.4388924
  21.1531734  10.9757509  55.6106148  20.3859482  11.7285204  55.8294601
  22.2555370  11.3776350  54.7492256  22.6666832  10.5938950  54.3449478
  19.5973186   7.5660930  58.0464554  20.0103664   7.3456445  59.1432343
  18.6321754   6.9741302  57.5871506  74.9016037  53.5134697  71.4557953
  77.3947830  70.1084900  19.0607052   3.1155584  29.8641052  82.9314499
   5.8276863  11.3038187  76.5252762  35.9621849  45.7395477  57.3374557
   0.3840888   7.9385705   7.3914080   0.9423368  16.4355278  70.8184738
  30.1630878  38.5354691   7.8752751  74.6774750  59.5682831  57.3208733
   5.5924740  13.8099747  72.0482178   5.2478137  12.9617043  71.7691498
   6.5429878  13.7131853  71.9900208  80.7798691  43.4103661  22.7908497
  81.4780045  42.8627892  23.1500130  81.2209930  44.2173080  22.5253525
  53.6656609  34.0959892  74.6632233  54.3717079  34.5003548  75.1674271
  52.9044342  34.1363335  75.2421341  30.2627506  41.9794273  11.1593676
  30.3008404  42.7874794  10.6476736  29.6353455  42.1673241  11.8574286
  78.2303085   0.6790407  34.9914093  77.3796158   0.2514917  34.8926888
  78.7090683   0.4463593  34.1958694  62.3707352  42.1587486  78.1348343
  62.5239944  41.3281555  77.6844330  61.4226875  42.2834206  78.0913467
  78.9894180  33.2216911  17.6374950  78.6771393  33.3911476  16.7486782
  78.6127396  33.9279442  18.1624279  86.5551453  36.5027237  40.4158440
  86.3986053  35.9670219  39.6381874  85.7434464  36.4375305  40.9189606
  27.6752167  62.2163277  30.4195232  26.8168392  61.7930145  30.4345455
  27.6951809  62.7457199  31.2167549   0.5112894  30.8019276  75.7915039
   0.9660432  30.3063393  75.1104584   0.0318088  31.4795418  75.3148804
  35.3713722  68.0610275  65.6667709  35.2212296  67.1430435  65.8925858
  34.9023514  68.1844864  64.8415375  71.8574829  20.5130157  28.5588684
  72.0287552  21.3094254  28.0562496  72.3006668  20.6574650  29.3949032
   4.6085634  49.4631500  60.1118774   4.6170721  50.3776398  60.3944817
   4.2806463  49.4932518  59.2131004  50.0157814  47.9454002  66.9619675
  50.2418251  48.0237923  66.0351486  50.5253983  47.1960716  67.2702408
  53.8033028  45.4592094  34.4561310  53.5829468  44.8765068  33.7294006
  54.3610535  44.9302979  35.0265694  57.7276497  29.6725655  88.8796616
  58.5762939  29.2331715  88.8251877  57.9325027  30.6022987  88.7803650
   8.3103542  27.9465504   9.6303740   7.3959222  27.7854366   9.8629427
   8.7431269  27.1029453   9.7617922  12.4864473  46.9631653  28.6719055
  11.9618740  47.0894241  27.8812637  13.3913298  46.9533577  28.3599377
  45.3849373  25.1048203  34.6850471  45.4861641  26.0500336  34.7970924
  44.8318825  25.0134754  33.9091492  17.4447079  52.4365082  34.3378525
  16.5571365  52.1693916  34.5767975  17.7262058  51.7849464  33.6956253
  45.3861847  27.8446541   7.1442919  45.5312881  28.3843956   7.9213738
  46.2339478  27.4329224   6.9769406  38.3765297  28.9032269  22.0390434
  38.4027519  29.7631588  22.4586411  37.5820961  28.4936771  22.3816471
  63.6023827  35.0650139  65.8622665  64.3016739  35.5745773  66.2716141
  64.0555344  34.3429680  65.4269028  17.8331394  39.6934853  53.6189308
  18.3390369  40.2767029  54.1847534  18.0943966  38.8127937  53.8879280
  68.1390305  11.6192980  46.1483459  69.0655136  11.7016125  45.9223251
  67.7915573  10.9952660  45.5111008  33.0906715  39.0294418   4.0693526
  34.0463371  38.9802856   4.0466828  32.8894043  39.9170876   3.7730258
  75.0292282  27.2189140  56.0077934  75.3113632  27.3386898  55.1009941
  75.8441925  27.1463966  56.5045967  74.7339859  23.0005684  23.4602318
  74.3485260  23.7670326  23.8847122  75.3851166  23.3619652  22.8588562
  55.4594803  32.9863853  24.0070648  55.7043877  33.3936005  23.1761456
  55.7201233  33.6236000  24.6720848  25.8648834  31.3525543  81.0087280
  26.6767883  31.4949265  81.4953156  25.6647186  32.2050285  80.6221313
  41.1319542  40.0495148  68.8218765  40.6558838  39.4155083  69.3581772
  40.6475220  40.0769196  67.9967651  69.1207275  33.4452477  80.1626282
  69.3066254  34.3299561  79.8480377  69.4459991  32.8711815  79.4691772
  22.1841030   6.3073802   2.0157106  22.0659790   5.6896834   2.7373264
  21.3014088   6.4464951   1.6725942  25.0523205  14.7807121  10.7317858
  24.7246761  13.9838839  11.1488514  25.0155544  14.5926809   9.7939558
   6.7699261  38.6208496  21.1565647   6.7734647  39.5768242  21.2048492
   5.8446765  38.3884048  21.0783710  19.8541107  41.0184441   4.8878555
  19.7435036  41.4835205   4.0585775  18.9742146  40.9856339   5.2632713
  70.6178665  70.3583374  30.6754456  70.8108444  70.8958130  29.9072571
  71.4501114  70.3043976  31.1452198  23.6817245  25.7167816   9.1765490
  23.3117008  25.8798923   8.3089609  22.9448280  25.8313503   9.7766228
  10.4865227  71.3695755  74.6538773  10.5466604  71.1664352  75.5873337
  11.3248243  71.7811050  74.4438248  83.8324432  54.4918404  18.7228851
  83.9995270  54.0123749  17.9114494  83.9403763  53.8382645  19.4138393
   0.9421585   1.1940014   2.3507733   1.0775833   0.5064543   1.6987220
   0.4989032   0.7528732   3.0754545  72.6210175  62.1797829  81.6615524
  72.6670837  61.9934387  82.5993118  72.1967316  61.4089241  81.2847366
  69.5447083  38.5872688  52.5872498  69.9166565  39.3378525  53.0504036
  68.7881851  38.3311844  53.1148109  52.7801857  19.7440910  70.9360199
  52.9284706  18.8085938  70.7978516  53.0741005  19.9032688  71.8329620
  64.1010361   4.9157176  50.5988960  64.0134354   4.2826118  51.3114510
  63.2042046   5.1955066  50.4154854  21.8602715  66.3867188  77.9360352
  22.6713810  66.7912903  78.2436981  22.0637341  65.4529343  77.8823776
  10.1199884   4.6025906   3.0525129   9.2987156   4.5710673   3.5431757
  10.7407246   4.1137600   3.5928493  62.7656326  26.7612724  50.0394859
  62.4279556  26.5804234  50.9166946  62.9030914  25.8965263  49.6527672
  49.6233711  16.8492107  87.2323227  50.1683655  16.1790180  87.6447067
  48.8724709  16.3673515  86.8856430  25.6806908  17.3986263  86.3290176
  24.9069824  17.5664959  85.7910385  26.3731747  17.2023296  85.6980133
  16.2265320  38.3222542  77.9971924  15.6976614  38.9586182  78.4784164
  16.6438560  38.8332520  77.3036880  49.8191185  17.1039639  71.6138382
  49.9420395  18.0526791  71.5812531  48.8704453  16.9869652  71.6644669
  73.6442337  39.5577698  66.0065460  73.9990387  38.8941727  66.5981445
  72.8471603  39.1624031  65.6535721   2.9165871   8.4087915  64.8119965
   3.4877090   8.7992773  64.1505051   2.5081580   9.1569176  65.2475739
  23.6019592  70.9323578  18.4796867  24.3959694  71.4556580  18.3704376
  23.3462143  71.0726318  19.3913612  51.6745338  56.6836777  67.8164062
  51.2072983  56.6370926  66.9822922  51.3695602  57.4979591  68.2166214
  33.7762299  38.2758942  64.3125534  34.2890587  38.2196503  63.5062790
  34.1742477  38.9973297  64.7997284  34.0534134  69.0988617   1.0483534
  34.5156670  69.9218597   0.8895167  33.1999207  69.2193375   0.6320959
  44.1224632  32.6460762  63.4911194  44.9431381  32.3639412  63.0872307
  44.3124313  32.6686020  64.4290085  17.4859219  26.9083004  18.2836456
  17.3078899  27.3157406  17.4359837  16.7797699  26.2720394  18.3965893
  34.1311569  56.2109070  43.4144783  33.9233170  55.7073402  44.2015343
  33.9787292  57.1218681  43.6657829  13.2774181  59.0227852  49.7329979
  13.0475206  58.0947533  49.6867523  14.1523972  59.0722542  49.3480377
   8.6954412  43.2737465  35.3840179   8.9669199  44.1693497  35.1829643
   8.4218636  42.9115105  34.5412979  73.2021332  45.7341118   7.9210844
  72.5191498  45.2341461   7.4740849  73.0450363  45.5751228   8.8518238
  61.5545921  58.0729370  55.1063385  61.2367706  57.2192535  54.8123131
  61.9091873  58.4814606  54.3166504  49.8374786  44.8324280  17.3248405
  50.3854599  45.6127853  17.4084225  49.1591072  45.0822029  16.6974182
  67.1035309  37.3169632  70.0977631  66.5543594  36.6531944  69.6805649
  66.6282959  37.5552330  70.8937607  40.1930733  13.0841684  74.3131561
  39.9691963  12.1547928  74.2644806  39.3981552  13.5052013  74.6403732
  53.8597984  50.1908989  78.6065216  53.7884712  50.8249397  79.3200607
  53.2625427  50.5187531  77.9341965  75.7504959  69.2575302  12.9207439
  76.6847610  69.2658844  12.7126541  75.4528503  68.3886108  12.6512737
  74.3882828  36.7222824  65.7148361  73.6580734  36.9268875  65.1307449
  74.4815979  35.7713623  65.6575851  38.0719910  13.4955730   2.5227759
  38.2412605  13.5791645   1.5843775  38.8960152  13.1721306   2.8869152
  35.7207985  17.0757408  12.6459608  35.5055428  16.5963764  11.8458929
  34.8970375  17.1125946  13.1320601  31.9044762  46.4057846  33.1706161
  31.2608891  45.8924637  33.6590157  31.4551296  47.2274513  32.9726677
  78.9971161  57.4038353  47.2829857  78.9300079  58.1040726  47.9321327
  79.2428131  56.6299896  47.7899628  26.9983025  40.0394402  11.0793018
  27.3168926  39.1859474  11.3730392  26.0447674  39.9658089  11.1190767
  70.4246140  62.1033211  39.6591377  70.2174683  61.8001595  40.5431137
  70.1278229  61.3953094  39.0874176  76.9272461  27.6493568  24.2120781
  76.0349350  27.9868736  24.1340466  77.4762421  28.3325253  23.8272133
  53.6546936  44.2397461  29.3687534  53.2218399  43.3907471  29.4585915
  53.6865730  44.3936157  28.4245396  76.3855591  32.3710938   9.5066605
  77.2927780  32.2355499   9.7801876  75.8687897  32.1862679  10.2908945
  54.4353943  31.4051666  40.3487968  54.4707375  32.0076599  39.6058388
  53.7266312  31.7420692  40.8968658  39.1714325  52.8571777  21.5714531
  38.9175301  52.0134048  21.1975422  39.3895340  53.3992386  20.8132744
  59.9419708  59.7530441  58.2677116  60.5088539  58.9838257  58.2113075
  59.3676529  59.6837578  57.5050926  39.5783920  63.3530998  48.3669357
  39.5562820  62.8770981  47.5367775  39.8720932  62.7048073  49.0070000
  67.4179230  41.2292061  39.9558334  67.0727997  41.7319794  39.2180367
  68.2755432  40.9254684  39.6584167  55.7820778  11.0881090  86.0440140
  55.8661461  12.0120478  85.8084259  55.1884842  11.0854540  86.7949295
   1.6137278   5.4338889  20.6639290   2.2957127   5.5450573  20.0015316
   1.2631706   4.5580130  20.5021172  72.7084351  39.9035912  18.8404560
  73.2486572  40.6500435  19.0996857  73.0512772  39.6454735  17.9848480
  44.2467880  13.5995131  16.8332138  44.9491997  13.9061613  17.4066391
  43.7603378  12.9702530  17.3657818  78.4507904  41.7399673  22.1162605
  79.1578217  42.2391243  22.5251446  78.8358612  41.3952141  21.3105927
  35.7739258  64.4710922  51.1031685  35.8382568  63.7352409  51.7119484
  35.7628365  64.0647430  50.2365761  54.1004639  63.4980202  35.9583282
  55.0377083  63.6638832  36.0597916  54.0477066  62.8350182  35.2699432
  61.3770638  67.7075577  46.1891823  62.1265259  68.2641449  46.4007225
  61.2236023  67.1995239  46.9857903  21.1881599  25.9005375  85.2827759
  20.4901886  26.1248302  84.6673431  21.8578167  25.4807186  84.7428284
  41.8104858  11.5143375  64.7784195  41.6161957  12.2115288  64.1520004
  42.3582115  10.8995562  64.2902908  65.9452896  29.8605633  48.2733078
  65.3380966  30.3243237  48.8499107  65.3872375  29.4759846  47.5973587
  59.5736580   3.4579959  -0.0000990  59.6779442   2.5187640  -0.1524132
  59.9064903   3.5952153   0.8868195  61.9627686  31.6571026  43.6483727
  61.6308136  30.8192596  43.9709511  62.6702919  31.4196434  43.0489922
   1.0358020  10.0869818  40.8477516   1.3212204  10.1149073  39.9345207
   1.2226102  10.9634991  41.1839828  33.0985107   2.4639556  87.4047623
  33.2168655   2.5546157  88.3502808  32.4388313   1.7767737  87.3107529
  63.5199242  33.6468964  10.3557196  63.7043610  33.0030823   9.6718206
  63.8210335  34.4783859   9.9893999  82.3886414   7.0875506  58.3281288
  83.3144989   7.2685318  58.4902191  82.1145401   7.7708826  57.7164459
  46.8163109  28.2864513  24.4736404  47.2109871  27.4391975  24.2671928
  47.2260170  28.8971901  23.8609676  58.4707336  42.0283394  42.4124413
  59.1269035  41.8096390  41.7507401  57.7256927  41.4636917  42.2067223
  53.5775223   7.5014286  72.3257370  53.8850479   8.4072828  72.3587418
  52.8259430   7.5250735  71.7334442  85.5110016  12.1696491  78.0844421
  85.7087250  11.4795923  78.7176590  86.1784515  12.8374758  78.2417526
  82.5247116  24.6212292  15.7599564  82.9224396  24.1769981  15.0111570
  81.6161118  24.3201046  15.7621613  79.6665421  23.2743931  75.0900650
  79.3907013  24.0786934  74.6504669  79.5478821  23.4579887  76.0219650
  54.0930672  40.0943947   2.2622430  53.6137238  40.6229286   1.6241870
  54.7485504  39.6284447   1.7431475  37.6554718   5.5523238  27.6246510
  37.9733047   4.8337770  28.1713715  36.8180809   5.7994871  28.0169697
  12.9840422  33.0103874  79.4688950  12.7864895  32.1303177  79.1484528
  12.4644861  33.5902557  78.9120789  48.1258659  18.0036602  83.2855225
  49.0354309  18.2979927  83.3333969  47.9577751  17.8964577  82.3493118
   7.1548653   0.4402319  43.6752014   7.9872918   0.1054473  44.0086899
   6.8667884   1.0684462  44.3374634  66.6694717  15.4598551  14.3706369
  66.6719971  15.4288292  15.3273306  65.8837585  14.9753685  14.1173582
  46.7856827  31.4571419  25.3030930  46.2535896  30.9213161  25.8913078
  46.8645248  30.9322643  24.5065269   7.1482439  43.2737541  47.5912361
   6.2194510  43.4656067  47.4617462   7.4578557  43.9692688  48.1714363
  19.3596458  69.8519745   2.2301736  18.4148178  69.9872513   2.3025138
  19.5218468  69.0364990   2.7044275  20.6003113  23.1738682  83.8024292
  19.7357941  23.2858543  84.1977768  20.7573414  23.9935589  83.3337250
  64.4864960  41.1848450  87.1562347  64.7848053  40.9988976  88.0465546
  65.0806732  40.6861076  86.5954819  15.9657784  59.6148872  86.0129013
  15.7682123  59.1854172  85.1805878  15.4959278  60.4477386  85.9701385
  78.3578568  45.1885262  51.8009682  78.6061554  44.5496101  51.1328659
  79.1730042  45.3785553  52.2653503  42.4270096  34.6590996  59.0355949
  41.9552078  35.4248886  58.7081795  41.8540878  34.2953644  59.7106400
  86.6853027  15.8854208  60.4617615  85.7487717  16.0687370  60.5361748
  86.7294540  15.0468636  60.0023003  64.3387070  10.5519724  47.6757469
  63.5682640  10.4938049  48.2407799  65.0591812  10.7528477  48.2730751
  25.2904625  58.1974373  64.2274780  25.4723454  58.4953194  65.1187820
  26.1511917  57.9889145  63.8643036  35.8688622  24.2172680  11.2978868
  36.5253372  24.6950951  10.7909765  36.0933266  24.3975315  12.2107687
  48.2144203  21.8730278  87.8593140  47.7003326  21.6949062  88.6468506
  49.1241455  21.7708950  88.1389465  34.5146523   2.4148750  70.5681229
  34.6480789   3.3105431  70.2579498  35.1057510   1.8854709  70.0327988
  81.3135147  33.4497299   9.6052933  82.0908203  33.4519501  10.1638813
  80.8853836  34.2862778   9.7872963  28.5336666  65.6206589  18.5756702
  28.0985813  64.8989105  18.1217880  28.3365879  66.3916397  18.0437088
  41.0492630   6.9142299  20.5358944  40.4948044   7.3650298  21.1727505
  41.0114288   7.4644094  19.7535229  55.6243286  33.8268776  42.8843613
  55.9644661  32.9464798  43.0438423  56.0051155  34.0821877  42.0440903
  23.0419025  15.8465786   3.7188385  22.7665958  15.4736681   2.8813570
  22.8863106  16.7863998   3.6252575  53.5689697  16.7302437  73.7904358
  53.1296768  17.4687824  74.2121124  52.8838043  16.0693474  73.6904755
  25.0094337  21.0912495  85.5026093  24.2652359  21.5761166  85.1458130
  25.7292500  21.2802486  84.9006348  55.7497711  69.8808670  68.8185425
  56.6207199  69.7333298  68.4498825  55.4440117  69.0085526  69.0671616
  18.8193035  12.8492966  64.6954422  19.6020088  13.3704376  64.8743744
  18.9391289  12.5373955  63.7984505  33.4613380  43.9275780  45.9570389
  32.7171097  44.0328827  45.3643608  33.4819412  44.7402534  46.4623756
  82.8844757  35.9054413  39.8167000  82.0268707  36.0471611  40.2175179
  83.5092392  36.2188644  40.4706688   0.4397233  43.4390030  79.7277527
   0.7691232  44.3316727  79.6235199   0.6803212  43.1978493  80.6222839
   2.7479076  37.0634155  66.0716019   2.5281894  37.9131775  66.4535217
   1.9390888  36.7743759  65.6491089  69.0977783  24.9545860  48.5245209
  68.5885696  25.7600040  48.4337387  69.5931320  24.8910751  47.7079315
  80.6440887  17.5300903  34.5765038  80.2225647  18.3108425  34.9356346
  81.3762817  17.8687439  34.0612946  77.8704529  65.2136230  49.1897469
  76.9172516  65.1318512  49.1587486  78.0950546  65.6998596  48.3964233
  43.3652344   3.9621954  81.2642975  44.2436676   4.0429416  80.8927231
  42.8141479   4.4995155  80.6952438  66.4961853  12.3401604  56.9204636
  66.6865463  12.4089823  55.9849129  65.5926819  12.6449804  57.0041008
   4.5388336  34.6371002  79.8713074   4.5418210  34.7013855  78.9162750
   3.6436980  34.8634071  80.1238022  85.1058350  38.3983612  86.3332672
  85.8229828  38.3263588  85.7033844  84.3589020  38.6943817  85.8129807
  46.6665802  38.2909164  28.2716732  47.3083267  38.8140678  28.7519932
  46.8899918  38.4243584  27.3505268  26.9599571  43.6630592  85.6549454
  27.4274063  43.1549263  84.9919739  26.4690666  44.3151169  85.1548615
  40.9760780  18.1305447  11.7530632  41.7379723  17.9761181  11.1945829
  41.1924286  18.9265785  12.2386093  78.2105865  35.7275505   8.4313440
  78.1076813  36.2795639   7.6561522  79.1114044  35.8806381   8.7165184
  59.9659309  27.5595322  15.5043707  60.3059349  28.3631458  15.1108789
  60.5036621  27.4291973  16.2854538  47.5824394  52.2224121  20.0113964
  47.6551208  52.8371353  19.2812862  47.7263680  51.3627052  19.6158943
  75.3935318  28.2301121  18.9849930  76.2554703  27.9089642  19.2498608
  75.1669235  28.8824501  19.6478176  27.4054642  37.6221085  12.8736725
  27.7420025  36.8413734  13.3134699  26.8972607  38.0755577  13.5462399
  22.2690907  48.3594170  73.8916016  21.4684372  48.7493668  73.5407104
  22.9707203  48.7309380  73.3568878  84.5034866  50.4204102  80.1479721
  83.9726639  50.6596336  79.3882141  84.3395004  51.1170273  80.7836380
   3.4656353   0.7381672   6.7694712   3.0528078   1.5993645   6.7050910
   3.3410985   0.4805420   7.6828995  69.3149872  41.8627586  33.2126656
  69.5247269  42.1090660  34.1135406  69.2781525  42.6940079  32.7394867
  28.8674755  56.1108322   1.9405822  28.1681404  56.2309036   1.2981293
  28.7237377  56.8051109   2.5836585   5.3573017  37.9799423  26.0251045
   6.1891398  37.5075226  25.9920139   5.1371279  38.1418037  25.1077404
  14.8326206  43.1996231  78.6009369  14.6786032  43.8317680  79.3030090
  14.9478092  43.7360992  77.8166199  37.7401505  65.0990219  58.9570618
  38.2860069  65.2048721  58.1779175  37.1271935  64.4007416  58.7270203
  64.9949341  60.9143410  43.9540215  65.6562119  60.3979378  43.4932861
  65.2621307  60.8809357  44.8725624  63.5122871  20.1264305  56.3234406
  63.8295441  20.7613735  56.9656448  63.4591179  19.3023491  56.8074837
  73.0018692  27.9711475  10.1317301  72.5065689  28.5899620   9.5950956
  72.3624115  27.3031158  10.3788252  29.4321804  41.5841866  73.4749451
  30.1145592  42.2530899  73.5311050  29.6215611  41.1165428  72.6615143
  69.6717148  52.4965248  56.6778679  69.7444687  51.5982819  57.0004997
  69.3758469  53.0001640  57.4361801  19.6359215  44.0650711  73.8453903
  20.3186073  44.7303009  73.7579727  19.6131973  43.6316452  72.9922485
  69.8896637  28.0119457  46.2321396  70.3260345  28.7060051  46.7262001
  70.6052933  27.4899063  45.8694000  10.8086023   8.5893421   2.6895430
  11.2383251   8.5623312   3.5444353  11.5276194   8.5522490   2.0587733
  44.1220360  11.2195120  55.2991409  43.7207794  11.2455082  56.1677895
  43.3858070  11.2998276  54.6927223   2.1800728  60.3871307  11.4190521
   1.3103787  60.6322212  11.1031494   2.6384785  61.2201881  11.5290928
  41.8017006  17.5388641  22.1412220  42.2756577  17.1099682  22.8537159
  40.8889885  17.2816963  22.2717838  67.9081345  51.2757912  30.7334557
  68.0608673  50.3513565  30.9292259  68.5725861  51.7411728  31.2415447
  18.9542465  41.8453407  75.4315796  19.1367493  42.0654411  76.3450775
  19.3784237  42.5404053  74.9283981  23.2400398  18.6056519  78.2254715
  23.8761940  18.0145454  78.6281204  23.7472382  19.1015511  77.5827637
  26.3201561  25.5743256  10.2069826  26.4983540  24.6393986  10.1050701
  25.4207287  25.6818352   9.8976221  43.2211304  34.0858498  39.4732323
  42.8174210  33.4428558  38.8903046  42.4894295  34.4503479  39.9712143
  75.1430511  50.4254799  87.5361862  74.7795868  50.6470299  88.3935318
  74.3825912  50.1772614  87.0105286  28.6364632  54.9197311  55.3957024
  29.5480289  55.2109261  55.4176750  28.6902714  53.9747353  55.2531433
  74.2614975  18.7338619  75.3582077  75.0918655  18.4243679  75.7200546
  73.6590271  18.0000038  75.4794998  73.8112335  25.5727596   4.2378659
  73.7219315  26.3897038   3.7470932  74.4878693  25.7574120   4.8892517
  85.3152695  42.2113037   6.3361850  85.5028458  41.7948418   5.4949913
  85.3353577  43.1497307   6.1486063  54.7454567  10.4239120  82.7555542
  55.6692009  10.6746778  82.7490463  54.6968842   9.7049437  83.3855972
  49.1470490   0.8936052  82.8702927  48.7734947   0.0179363  82.9697571
  48.9822998   1.3211523  83.7107086  59.9755936  31.8461418   4.9053531
  60.2948303  31.4588242   4.0903034  59.8992729  31.1065578   5.5081983
  83.4280777  11.5486708  32.5343819  83.0135956  12.4099236  32.5861626
  82.7990952  10.9551115  32.9446220  85.9835968  52.8997612  20.2177048
  85.2539368  52.3124886  20.0203800  86.4332657  52.4842262  20.9534760
  21.6698399  64.7453995  38.7909889  22.1726131  64.0428467  38.3788376
  21.8400497  65.5134430  38.2456665  72.9960709  38.1128044  75.0260010
  73.6197205  37.8484497  75.7023239  73.0637512  37.4306183  74.3579636
   9.0580559  65.0652771  50.9190636   8.4347467  65.7383957  51.1922379
   8.5112934  64.3236694  50.6596260  41.9553299   4.9577560  85.5982590
  42.6094398   4.5331817  85.0431824  41.2212257   4.3437405  85.6158600
  66.1188736  18.8320103  86.4880981  65.8957062  19.6331596  86.0141907
  65.2796249  18.5017414  86.8087540  38.1445198  55.2747612  22.1545696
  38.7427216  55.2546844  22.9015522  38.2074242  54.3988419  21.7737350
  83.1565094  46.3800812  36.4970131  82.3449783  46.5449028  36.0169296
  82.8893051  46.3491898  37.4156418   1.7392092  40.6308975   0.5223910
   1.3177028  41.3467102   0.0468074   1.0786595  40.3390884   1.1506848
  14.8966999  53.3216553  40.1336174  14.1112814  53.3926735  39.5911179
  14.6516600  52.7140121  40.8314400  24.4741287   8.9499502  22.3432388
  23.8593407   8.2174120  22.3025665  23.9178009   9.7285357  22.3663883
  76.7348633   5.8414397  74.2536545  76.6014252   6.4215322  73.5040359
  75.9075699   5.8764515  74.7338562  66.7707977   9.3193493  23.4116001
  66.3260269  10.1653671  23.4632263  66.2680359   8.7485857  23.9927101
  60.9598770  14.0537872   2.2395349  60.5601997  13.3758755   2.7844429
  61.8160248  13.6970434   2.0029492  26.9297676  55.1440315  48.2422714
  26.3715706  54.5587921  47.7302704  26.3717461  55.8966942  48.4380875
   1.0020988  10.2746334  55.7556801   1.1357077  10.3362141  54.8098526
   0.1741961   9.8036489  55.8504562  61.5326309  23.3789825  74.5074692
  61.6301460  24.3187580  74.3540268  60.6416359  23.1804581  74.2194672
  48.0311661  10.5400820  17.4734249  48.9176254  10.1844978  17.4103508
  48.1012421  11.2454090  18.1167259  40.1255302   1.1129658  47.7910652
  40.6262360   1.8582504  48.1228447  40.3241539   1.0886127  46.8550186
  20.0347748  44.6869240  40.4980545  20.9124546  44.4343376  40.2115135
  19.5383854  44.7907028  39.6862297  57.8642159  53.2148285  50.4975700
  58.0942802  53.6415291  49.6722031  57.4068489  52.4160500  50.2348976
  77.1211166   4.1891174  31.4066353  77.8317642   4.7471428  31.0906811
  77.2653503   4.1293106  32.3510170  42.9808540  48.9400826  43.0537605
  42.8792915  49.7376328  43.5732117  43.8389549  48.5983047  43.3049355
  68.1306000  34.7820816  56.7480927  68.0859756  34.8968163  57.6973419
  67.7800751  33.9044189  56.5961800  63.8532791  26.2235603  30.1631851
  63.3486061  25.6733284  29.5642014  64.3653412  25.6043167  30.6833401
  75.8485336  16.2384300  73.3460846  75.5186005  16.1062946  74.2348633
  76.7853928  16.0522804  73.4082413   2.7065668  15.9601784  88.8791275
   2.7535467  15.8068714  87.9354477   2.8913126  16.8939953  88.9795609
  72.0747910  59.4113884  26.6119404  71.5717697  58.9656830  25.9303627
  71.7119827  60.2968140  26.6370583  10.3350906  16.3042126  83.4031143
  10.8445902  16.4315701  84.2033768   9.5640154  15.8125181  83.6857986
  60.9697723   5.4052234  21.8504829  61.1359596   6.1763406  21.3082733
  60.1295776   5.0693984  21.5381832  44.7506027  68.0051956  65.5890579
  44.0687904  68.4941254  65.1282883  45.1967506  67.5105972  64.9016342
  68.0666428  45.3325958   7.9134274  67.7798615  44.5474739   7.4469762
  67.6463165  46.0551720   7.4471226  84.5807266  46.0158806  66.0422668
  84.7488708  45.1038284  65.8053665  84.3402328  46.4372368  65.2171326
  12.1129627  48.7526398  22.5876961  12.4243727  49.1437836  23.4039440
  12.0881586  49.4810829  21.9672203  74.3983765  18.5113430  44.7544174
  73.8337860  17.7781887  44.5095558  73.8427200  19.0706615  45.2972260
   8.7150402  56.6518173  87.8956985   7.9859147  57.2719727  87.9001541
   8.3170061  55.8159027  87.6527023  18.3379784   8.5609083  85.1301346
  18.2669048   8.8381300  86.0435562  18.8613720   7.7601480  85.1629028
  23.5213184  29.4818535  88.8166275  22.9074707  29.8535461  88.1831741
  23.9286728  30.2428627  89.2303467  80.6513214  43.6311378  65.8987274
  81.4294434  43.0905762  66.0349274  79.9260101  43.0896378  66.2100754
  25.9455242  25.8697491  66.7111359  25.2874126  25.6398487  67.3670883
  26.7638092  25.5143833  67.0580597  35.9652634  59.7009125  59.6512909
  36.9087791  59.8621788  59.6497192  35.6461067  60.1388893  58.8622742
  53.1281509   1.0835794  72.5723724  53.9168968   0.6402065  72.2600708
  53.1950111   1.9698746  72.2170639  28.1754322  44.0575867  25.7453938
  27.7248478  43.6517487  25.0047836  28.3052902  43.3421974  26.3679600
  39.3004227  41.4739418  46.8582802  39.3310928  40.6444893  47.3350334
  40.2169685  41.6764183  46.6707077  64.5807495  51.3990288  52.3725319
  64.4642487  52.3462524  52.4462318  64.2228622  51.0494804  53.1885986
  48.9157257  44.5801086  44.0763969  48.7428970  43.6556625  44.2546234
  49.6371880  44.8063889  44.6633492   7.8451943  62.6175766  81.0148087
   7.8919592  62.3918610  80.0857773   8.3007193  61.9020386  81.4583588
  57.7266464  14.3587160  14.5695887  58.5939636  14.0737877  14.2818251
  57.8741417  14.7367744  15.4365072  13.3806419  59.2208557  12.7624722
  13.4823122  59.1800766  13.7133827  12.5870724  58.7160492  12.5845747
  48.6090012   1.1971354  80.3650742  48.7126427   1.0458877  81.3045502
  49.5001335   1.3384714  80.0454941  50.6836929  56.2119446  44.3174286
  51.1833115  55.6926460  43.6873932  49.9600677  55.6418381  44.5773811
  47.8113213  21.3661804  78.8399506  47.0802193  21.5906715  78.2643433
  47.4387360  21.3913536  79.7212982  67.0450363  70.0166626   9.0847311
  66.9492950  70.1202011   8.1379757  66.4804382  69.2751389   9.3028908
  37.2867622  54.9675674  72.4720001  36.9041100  54.2815933  71.9249649
  38.2315903  54.8320694  72.4001083  50.8204041  66.0789261  18.3153591
  49.8930779  65.8883743  18.4567375  51.0233612  66.7656479  18.9505348
  29.4124088  12.8097057  83.8265305  28.7497234  13.5003347  83.8159409
  29.7032547  12.7428789  82.9170380  72.9770660  62.8568993  30.0216904
  72.0727463  62.6155853  29.8211727  72.9584808  63.8106155  30.1011105
  68.1058578  34.0975800  76.8078995  68.8238144  33.9866066  76.1846390
  68.5369568  34.3237190  77.6320648  18.9501801  19.1761627  73.0979004
  19.8418255  19.2698879  73.4331894  19.0283031  18.5445366  72.3829346
  54.2561913   1.0819463  56.5886536  54.3035889   0.3379726  57.1890602
  54.4506149   0.7086790  55.7289429  14.3129587  70.5602570  53.3612289
  15.1054621  70.3798828  52.8556252  13.7548094  69.7970734  53.2120667
  66.7307892  50.3052788  77.8768234  66.0293884  50.1673050  77.2402496
  66.9907303  51.2181091  77.7527084  67.6463470   7.5614886  48.9920807
  67.4297104   6.9913158  49.7297821  67.9060287   8.3889723  49.3971291
  79.2668991  20.4418430  80.5634155  78.9934387  21.3214111  80.3030014
  80.2234497  20.4745865  80.5499115   2.9082944  25.7708378  49.7429237
   3.2724159  25.0936546  50.3130722   2.4270253  26.3489742  50.3348427
  46.1583290   5.1921763  13.7239695  45.7842216   4.3866601  14.0809250
  46.5218811   4.9327717  12.8773460  55.6861877  15.4552116  25.8894939
  55.3093529  15.1472664  26.7137508  56.4859734  15.9131470  26.1480865
  36.4441338  33.0750618  11.5965834  37.0979576  32.4615669  11.2613668
  35.6055450  32.6415367  11.4382877  14.7986870  42.0807953  31.8048267
  14.4448385  42.9578094  31.9526997  14.3533611  41.5310059  32.4495354
  72.2646942  47.8234520  51.3691521  71.6982956  47.3986931  50.7249413
  71.9309387  48.7186317  51.4282341   1.7498381  71.2705765  35.0167007
   2.6880584  71.0813446  35.0296783   1.3625779  70.6006851  35.5801773
  26.8668423   7.4123559  73.1471786  27.1931114   7.4009018  74.0469818
  25.9250450   7.2638407  73.2319870   8.7593441  25.3507252  86.8327332
   8.9829760  25.0274105  85.9599838   8.8369303  24.5833359  87.3995819
  79.2550507  47.6198273  70.9171371  79.7196121  46.7984428  71.0775757
  79.2154846  48.0439873  71.7743149  33.0184746  71.5045700  85.3411331
  33.5613632  71.5990601  84.5584641  32.7423630  70.5881042  85.3318939
  61.7530403  20.7711182  75.5682373  61.2228737  20.9010830  76.3545380
  61.6416512  21.5795307  75.0679474  81.8555603  30.2886848  32.7438927
  82.7906418  30.1147861  32.8516579  81.4266357  29.4884415  33.0469780
  49.5210876  68.0896378  75.1192245  50.4334984  68.3249130  75.2877045
  49.0408745  68.9127045  75.2097092  40.4763412  64.3554840  85.7351837
  40.0286293  64.5144272  86.5661621  39.7697487  64.2664719  85.0956268
  72.2857513  50.9500465  39.8836479  73.1107941  50.9759636  40.3682709
  71.7174911  50.3859634  40.4081688  77.7472916  52.4992065  55.3786621
  78.4898071  52.0562782  55.7894096  78.0018997  53.4216156  55.3549271
  68.8430328  41.0321846  36.2555923  68.9682846  40.1204071  35.9925232
  67.9268112  41.2172585  36.0493927  34.1736145  64.6141663  88.1049728
  33.5619011  64.1415024  88.6694412  34.2490883  65.4801407  88.5057526
  78.2587509   2.6393805  60.6521111  78.2167358   3.5763986  60.4611588
  77.5634079   2.4942808  61.2937279   3.4162085  23.8396969  53.9530716
   4.1627250  23.5874863  54.4965172   3.7702913  23.8827877  53.0648117
  43.0328522  64.8875809  84.5372009  43.2374573  64.0986252  84.0352859
  42.0768776  64.9005814  84.5838394  43.5346680  31.2229195  72.0154419
  43.4192734  31.3428745  71.0728226  42.7479744  30.7549915  72.2954178
  43.2091446  17.9151344  72.5433884  43.5880165  17.7385540  73.4044952
  42.5146523  18.5515842  72.7132263  44.8845177  55.8843575  18.1676064
  44.8551140  55.2084885  17.4904270  44.3778152  56.6103020  17.8036194
  31.9608555  34.9727211  56.5230026  31.1114330  35.0243378  56.0847664
  32.0796814  34.0407295  56.7060471  78.5143204  15.5910149  46.9664116
  78.9219894  15.7115955  46.1088028  77.7343445  16.1452942  46.9409065
  77.9596863  69.6549454  33.4268417  78.6567688  70.2918091  33.5840149
  78.3101807  68.8290176  33.7603531  48.9688301  56.6730194  81.1257019
  48.3990440  56.3691597  80.4191284  49.8552551  56.4914284  80.8134384
  80.3357162   6.2792368  51.7691002  81.2160645   6.6500196  51.8302002
  79.8325424   6.9351172  51.2865295  71.6025238  29.8513546  83.6704559
  71.1728897  29.0499496  83.9694519  71.0342636  30.1826324  82.9750671
  75.9634094  23.7831364  49.3291588  75.7926712  23.0387249  49.9061623
  75.7382126  24.5504856  49.8551788  69.0177994  34.4166489  42.8051338
  69.1075287  34.8610039  43.6481857  68.8336563  33.5054092  43.0330887
  85.0586243  33.6244774   8.8362236  85.8106461  33.7766304   8.2639112
  85.2415848  34.1479988   9.6164026  81.2102127  50.5323372  59.0899010
  81.3458862  51.4566345  58.8813171  81.4694519  50.4534187  60.0079422
  34.1471863  52.8963394  16.7888584  33.2891579  53.0772629  16.4050789
  34.7127037  53.5897064  16.4487591  80.6595840  11.0976095   5.9609733
  81.1050873  11.8657637   5.6036172  80.4895477  10.5434141   5.1992736
  80.5560455   2.3995543  38.4969368  81.4862595   2.5512655  38.3298607
  80.5049820   2.2391789  39.4392242  64.3625946  20.5587654  12.5491486
  64.6307526  21.3536911  13.0100336  63.7270889  20.1457748  13.1337929
  51.3163109  36.0341835  10.4706373  50.4905853  36.0882416  10.9517670
  51.1864357  35.3153954   9.8520041  14.7710247  50.7488480  77.7402802
  13.9557638  51.1806221  77.4850311  15.2781410  51.4333878  78.1767044
  26.1649094  29.8095150  20.3003464  26.7569447  30.1573944  20.9672108
  26.0867710  28.8791218  20.5112801  16.8862171  56.7410278  78.9129181
  16.1053143  56.5901871  78.3803101  16.6174812  56.5113411  79.8024368
   0.6145121  67.9857101  45.3459091   0.5237854  68.2604446  46.2583351
  -0.1899306  68.2873077  44.9238396  15.6050224  50.9558868  48.6363678
  15.0559006  51.6484566  49.0038528  16.0865250  51.3826714  47.9276733
  20.9823875  64.8555145  34.5146446  20.3109570  65.5268326  34.6361084
  21.8070774  65.3412552  34.5013084  12.5050678   8.1728697   4.9569497
  12.7963247   8.2682991   5.8637547  12.2829370   7.2455878   4.8730578
  68.2154846  67.8825455  47.9964828  67.5904007  68.1113586  47.3086281
  68.2628937  66.9269180  47.9688110   2.8866117  19.4683495  36.2100296
   2.7857981  18.9130745  35.4368973   3.4140024  20.2074356  35.9069748
  28.9711227  44.4937134  74.9148331  28.8117085  44.4407387  73.9724884
  28.1104527  44.6724968  75.2936707  33.2876511   0.7743567  59.2861137
  33.5289307   1.1973624  58.4620476  33.6890450   1.3203673  59.9621201
  63.1002159  42.8255043  11.9717474  63.1681404  43.4454346  11.2455893
  63.9707184  42.4321938  12.0331182  36.6626205  66.2406921  77.9463043
  37.0388718  67.0544205  77.6108780  36.8458557  66.2613983  78.8855743
  23.4749718  51.8877792   7.1576662  23.0702915  52.7552185   7.1542668
  24.4160786  52.0625153   7.1536407  83.1198883  42.9399338  55.7670860
  83.9600830  42.4870186  55.8390350  82.4782562  42.2382812  55.6565399
  54.9256592  17.1685658  57.8067551  55.7461205  16.7027950  57.9684105
  54.2431259  16.5412521  58.0452003   9.7814054  30.8738842  65.9419403
  10.1633396  30.6265221  65.0998230   9.7386694  30.0547943  66.4354019
  77.4546738  40.7409630  82.4244614  76.5492477  40.4680672  82.5726852
  77.8309402  40.8092766  83.3019485  83.6107101  29.4329205   4.5833983
  84.1875076  29.9100285   5.1799774  83.7963028  28.5101871   4.7576180
   0.6778137  59.1786804  71.0075684   0.6736425  59.9872437  71.5198593
   0.5866138  59.4695511  70.1002045  23.4325809  67.2398300  72.1396866
  24.0737724  67.5208817  71.4869080  22.7703667  66.7660599  71.6364517
  28.0921555  52.3751144  53.6769562  28.7803879  52.8208618  53.1831169
  28.4687786  52.2431946  54.5470047  28.2415981  63.3979645  53.0863800
  28.6084080  63.7967186  53.8754807  27.6404610  62.7287254  53.4134674
  69.0378876   1.3012940   6.5565190  68.5671997   1.1583083   5.7353983
  68.3598022   1.5650971   7.1784835  75.8931656  46.0144997  27.8139076
  76.7741394  45.8326759  27.4867191  75.8468933  45.5487289  28.6488628
  85.2819977   5.0342331  59.0224380  84.9483948   5.1495075  59.9121857
  85.4554138   4.0955567  58.9514008  12.6196451  26.8017120   8.3539677
  12.1423588  26.7256203   7.5277476  13.2648926  27.4906940   8.1952534
  75.4451294  70.7639999  44.1045990  75.0973511  70.2951126  43.3460312
  75.1004868  71.6525574  44.0155983  31.9184036  50.2934074   1.9743342
  32.7003365  50.8185921   1.8040596  31.2061214  50.7846603   1.5649972
  12.0515671  63.5977440  81.1605988  12.4497690  64.1712341  81.8154144
  11.3476801  64.1223526  80.7790756  57.1304817  70.8260651   5.8175874
  57.1500168  70.8617325   4.8612518  56.9610596  71.7286453   6.0875225
  53.1548958   1.5922458  78.2058487  53.2311134   2.0365896  77.3614655
  54.0005493   1.7374861  78.6301193  44.8693047   0.5032758  37.8301315
  45.4211044   1.1273736  37.3586960  45.4850693  -0.1303429  38.1983643
  26.5630150  42.9546661  88.3505859  26.8129845  42.0349808  88.4396286
  26.5553894  43.1104393  87.4061737  84.0618515  27.9053993  30.5356789
  84.3963242  28.3033733  29.7319508  84.1064377  28.6059895  31.1863823
  67.8109055  40.7820435  24.1592407  67.3852158  40.2893333  23.4576283
  68.4917297  40.1938629  24.4859791  30.5903759  47.8780975  52.5737686
  30.7436085  47.3903313  51.7645493  29.9737453  47.3367233  53.0666313
  48.0315399   2.2499926  26.8161945  48.0660172   1.3203911  27.0417709
  48.8812523   2.4305804  26.4141903  58.3905563  56.2557907   7.9166975
  58.3912544  55.3227272   8.1303062  57.4771233  56.4534492   7.7098107
  25.1958427  30.4862328  71.7774658  25.9472351  30.0289993  72.1550674
  25.4484100  31.4094734  71.7856750  69.6540756  17.1844044  12.1802797
  69.0408478  17.8759613  12.4291496  69.0994110  16.4864750  11.8317528
  21.5446701   9.3136339  86.3508835  21.8785534   9.7461576  85.5649567
  22.3296642   9.0517797  86.8319702  22.1073189  61.6585922  78.6251678
  22.4368439  61.1677933  77.8723297  22.1613522  61.0419998  79.3553238
  79.0200424  68.1314316  68.0238571  78.7544861  68.4989166  67.1808472
  79.9385681  68.3842697  68.1166840  34.0204430  44.6388130  66.5241165
  33.7801628  44.7621193  67.4424210  34.8165436  45.1585274  66.4129791
  14.7208357  30.1420670   5.7108474  15.6561213  29.9594536   5.8009863
  14.4952116  29.8125496   4.8409376  38.5487022  47.4312248  48.4582443
  38.0610542  47.0320778  47.7377472  38.2243958  46.9873543  49.2418442
  58.6142769  40.6953545  34.2310066  57.9896507  41.4206619  34.2331085
  58.1377640  39.9677391  34.6306877   3.5549006  24.0678558  15.0598345
   3.1631651  23.5995770  15.7970533   4.0727649  24.7630997  15.4656467
  53.4902229  23.1480503  58.5360641  52.5526886  23.3394756  58.5609436
  53.5873566  22.5190449  57.8211174  54.6746483  40.7043152  57.5656433
  55.3111038  40.7645493  56.8532333  54.0741806  40.0107803  57.2923622
  85.3223038  53.7896957  61.6462708  84.6136093  53.3154488  61.2114410
  84.8818893  54.3291054  62.3030090  69.9918365  25.9884624  15.7325258
  69.4794693  25.8625317  14.9338684  70.0267410  26.9380970  15.8474560
   2.0486243  32.4330101  42.1100655   2.1297691  33.3372726  41.8068275
   1.1077740  32.2577934  42.0918427  17.0340385  11.7073088  81.0753784
  17.5555115  11.3331957  80.3652115  17.6441612  11.7766991  81.8096619
  65.2655334  53.3279228   2.2115791  65.6489868  52.4510803   2.1930020
  66.0009766  53.9067459   2.4123778  66.7272644   0.5264258  65.3514481
  67.6300964   0.6863711  65.0765915  66.7812424  -0.2470485  65.9127502
  10.8985310   6.9661598  88.1174240  10.8563156   6.2524724  88.7538986
  10.0331821   7.3734379  88.1565170  56.4542656  53.9629745  14.4057140
  55.9761353  54.2167625  15.1951532  57.3435211  53.7840691  14.7114058
  18.6439266  26.4513702  77.5707703  18.3761406  25.6498756  77.1211853
  19.0927982  26.9643803  76.8987885  74.1361084  51.8334579   7.7714787
  74.9596024  52.3212585   7.7596002  73.5200119  52.4144096   8.2177467
  19.2624969  44.9273949  79.5783463  18.7529316  45.6700935  79.2543488
  20.1455040  45.2768784  79.6983185  69.0406418  52.7869072  70.6688766
  68.6856232  51.9874535  70.2802048  69.2879333  52.5317459  71.5576859
  65.1439514  22.5031853  60.4533043  64.4150620  22.0054436  60.8237267
  65.5813904  22.8882961  61.2126236  49.6298370  39.9900322  27.0897102
  49.4264259  39.6319427  27.9537849  48.7811050  40.0565376  26.6521454
  59.6447601   1.7636625  85.6336441  59.8592682   1.5837421  86.5489807
  59.0654640   1.0458775  85.3778458  42.0707550  29.2636089   0.5735152
  41.8573341  28.4002018   0.9273639  42.9994583  29.2074051   0.3486096
  82.9469070  30.8582420  15.1600847  82.4701996  30.7182674  14.3419218
  82.2647018  31.0378265  15.8070631  15.0683403  35.9986076   2.2310717
  14.1576729  36.0791054   1.9474587  15.4532995  36.8553314   2.0465131
  57.5511322  43.5037422  26.1445961  57.8252563  44.3771782  26.4242325
  57.8079071  42.9296455  26.8661995  83.3760757   2.3759336  27.7541504
  83.4372864   3.2647552  27.4041767  82.5957947   2.3899686  28.3084068
  41.1360588  67.9017181  69.2518463  40.9161453  68.8111877  69.4536819
  42.0636787  67.8244247  69.4749527  73.2749329  30.1536484  51.0224266
  73.3259430  29.7893085  50.1387520  72.7064819  30.9186363  50.9336472
  76.5549240  30.4933681  57.3122139  76.7300110  31.0481071  56.5520554
  76.6080322  31.0882912  58.0601959  32.8813705  46.3502007  79.3891678
  32.1411285  46.0453110  78.8644638  33.5959816  45.7544518  79.1641159
   7.9147406  71.8495560   5.8648391   7.7499375  71.1750641   5.2059512
   7.4437017  71.5463486   6.6409960   0.0524362  48.1011543   9.7064886
   0.9252265  48.2617455   9.3477697   0.1445086  48.2683487  10.6444654
  86.1342545   1.9259028  55.7883568  85.5421906   1.5672247  55.1272621
  86.2119064   2.8528700  55.5626717  64.7304001  48.4614983  15.1981440
  65.1072845  47.6167259  15.4442272  64.2200546  48.7279625  15.9628468
  42.9438820  51.8298340  47.5919113  42.9779396  51.1764832  48.2906227
  42.0204468  52.0762558  47.5392227  77.7638931  60.8336296  24.6359768
  77.0810318  61.4697533  24.4231815  78.5122986  61.3664932  24.9046402
   1.9517300  14.9494553  69.2196350   2.5673728  14.2866116  69.5324478
   2.1199198  15.0076885  68.2791290  44.8132095  35.5399132  44.4771118
  44.7227020  36.2045937  45.1599312  44.6911354  34.7081566  44.9348373
  82.8024597  32.3832626  24.9521618  82.4298401  31.5037556  25.0142517
  82.2392044  32.9217987  25.5080013   3.8343790  33.2240105  10.4668560
   4.3257451  32.4373055  10.2304602   3.6228070  33.1050568  11.3927717
   1.0183630   3.7576900  75.8738022   0.5035088   3.4398906  75.1320724
   0.6015317   3.3646622  76.6406174  32.0950279   0.8631439  15.1800127
  31.2086983   1.1428959  15.4089098  32.6495590   1.6063973  15.4172859
  18.3146400  60.6025925  31.2832432  17.5388527  60.1211929  31.5707245
  19.0416183  60.1808701  31.7413769  72.7509003  11.6162119  63.1229057
  73.6020432  11.9740372  63.3753891  72.1273346  12.3120165  63.3308716
  82.3537750  60.7900810  26.5784187  81.4722443  60.7704315  26.2059193
  82.2669067  60.3476677  27.4227886  73.0564957  48.4947701  60.2859497
  72.9380722  48.4628258  61.2352600  73.0970764  49.4288750  60.0809441
   7.0838943  68.8746185  67.3869553   6.3479929  68.9595032  67.9931488
   7.2034945  69.7549515  67.0306702  53.8657646  69.9382706  24.3447418
  54.2691879  69.3339920  23.7215843  53.1072807  70.2910767  23.8794899
  27.0179520  71.1777191  79.1118317  27.3946323  71.8348541  79.6970901
  27.3595524  71.4035721  78.2466583  49.6712456  16.8492126  11.1719151
  49.6700668  17.2552338  10.3050938  48.8201180  17.0786018  11.5450039
  19.9026642  25.6902313  15.3486710  20.6255665  25.4846611  14.7558937
  19.2554798  26.1267948  14.7947788  13.9441261  53.0093956  45.0089798
  14.4458952  53.7447929  44.6573410  14.5939970  52.3203545  45.1472702
  21.3659706   9.9087858  13.8447351  20.5839424   9.6035500  14.3046207
  21.8661861  10.3810673  14.5102921  82.9421310  49.7582054  37.5606422
  82.9085846  48.8745384  37.1942558  82.3580399  49.7256927  38.3182755
  53.3513680  14.7519922  37.4079170  53.4281197  13.7982407  37.4343452
  52.4278488  14.9231634  37.5924187  83.7399826  34.4215622  30.4897366
  83.8797607  34.7140427  29.5890980  84.0238724  33.5074310  30.4914856
  -0.0650243  50.5738182  13.9192896  -0.0017185  50.8750381  13.0129290
   0.7302693  50.9037895  14.3374481  81.1732864  25.3888836  64.2429428
  82.0560532  25.5813217  63.9268303  80.6220932  26.0572071  63.8358040
  54.8204613  12.2242737  56.3822250  53.8961792  12.2005548  56.1344986
  54.9517212  11.4263258  56.8943596   5.2574120   0.6711939  18.0805111
   5.0962057  -0.2546869  18.2621403   4.6484880   1.1372213  18.6534538
  39.4880829   6.7406268   7.4603424  39.8391800   5.8514752   7.5090408
  40.0220413   7.1728034   6.7937517  38.2019119   0.4125554  32.7172966
  38.1859016   0.4744667  33.6723595  37.5208015   1.0189912  32.4265175
  12.5743866  65.4985580  42.6925354  12.2567234  65.2796402  41.8165245
  13.3408060  66.0508652  42.5382996   4.7640281  29.9533634  18.3185062
   4.0984588  30.0705929  18.9963760   4.8237624  30.8077984  17.8911858
  58.6238327  68.2706528  37.8516350  58.0370026  69.0046234  38.0337143
  59.4553909  68.5237045  38.2525215  70.9057541   9.1722193  63.1576118
  71.3492050  10.0169563  63.2351036  71.0034561   8.9341116  62.2356606
  74.2158051  34.5665321  55.9827461  74.1228867  34.3950844  55.0456200
  75.0356903  35.0549393  56.0567398  22.9053650  63.9017105  80.1718369
  22.4825077  63.7347221  81.0141754  22.5521049  63.2295265  79.5890732
  10.5251608  68.9576187  26.6968517   9.7008619  69.3905182  26.4746742
  10.4289856  68.7179413  27.6185551  82.2289963  11.8793087   1.7121774
  82.3344116  11.9402676   0.7627548  83.0488205  12.2233753   2.0667691
  40.1274681  24.2165833  85.9147339  39.2956581  24.6754494  86.0320740
  40.7732925  24.7779942  86.3436356   0.9290310  62.4839401  49.2338905
   0.0108637  62.4106941  49.4943428   1.3314126  63.0146446  49.9214020
  45.8621712   1.0461822  80.8478699  46.7638512   1.1508411  80.5441437
  45.5495110   1.9407673  80.9827499  38.1006508  67.7130203  29.4916153
  37.9149437  68.3713837  30.1611671  37.2389069  67.4522247  29.1666336
  47.5945663  28.1759777  79.4893265  47.6328583  28.3976574  80.4197159
  46.6812019  28.3252201  79.2449493  45.5211716  68.1277084   9.9787893
  44.7218628  68.0086212  10.4917736  45.3299332  68.8706665   9.4063625
  51.1579742  27.4584770  85.7566605  51.0537758  27.6420498  86.6902924
  52.1014023  27.3484783  85.6380234  68.4914017  23.1315746  77.3577423
  68.9406357  23.7017250  77.9817200  67.8481979  23.6999283  76.9340744
  82.8210068  62.2669373  82.8910217  82.0835266  61.7104034  83.1412888
  83.2731171  61.7723846  82.2074661  58.7563744  57.4841461  53.8349571
  58.7355385  58.1323280  54.5389824  58.2637825  57.8896408  53.1214027
  58.6364594  66.2816772  33.3315811  58.1104584  66.7524185  33.9780769
  58.2555161  66.5269699  32.4884071  84.9109344  64.0823975  32.3248863
  85.3074265  64.5574265  31.5945625  84.0072861  63.9294472  32.0487251
  72.9939041  31.4158955  66.9269485  72.1358719  31.6532249  67.2786407
  73.1851807  30.5630646  67.3172302   5.3375812  16.7630253  66.8798828
   5.2879987  15.8981285  66.4727859   5.6481271  17.3390865  66.1813507
  28.4176445  42.3546600  23.2092247  28.8673763  41.9606476  23.9567051
  29.0922871  42.8718567  22.7692318  85.1787338  23.5755291   6.8679619
  85.9694366  24.0136662   6.5532203  85.5031586  22.8505402   7.4021654
  27.3015366  57.3135300  68.2650070  28.1871719  57.5248680  68.5603333
  27.0247707  56.5946083  68.8331528  38.3980484  57.3202782  79.8467865
  38.6157951  56.9569702  78.9884033  37.7183533  57.9697189  79.6665802
  56.0664444  55.7373886  23.8732777  56.6849670  56.4678688  23.8811493
  55.2373886  56.1284981  23.5977173  62.5452805  53.4117165  65.3817215
  62.8392754  52.7977867  66.0546951  62.9489403  54.2449036  65.6248016
  71.3870544  68.2204742  84.4190216  71.2227631  68.8583984  83.7245483
  72.0495605  67.6340485  84.0537415  16.5166264  59.5953484  51.5386429
  16.9329796  58.9040527  52.0534134  16.2573624  59.1643829  50.7242203
  69.7864456  18.5135269   9.3098354  70.5823898  18.5211983   8.7781944
  69.8916702  17.7577248   9.8876963  25.7643375   3.3706431  88.0898132
  24.9129219   2.9365449  88.1435165  25.9873009   3.5738356  88.9982376
  10.5615416  14.3073502  16.4176903   9.7531662  14.3137169  16.9302540
  11.1166620  14.9643373  16.8377399  52.3606071  50.9726677  62.7152138
  51.9080925  51.2352180  61.9136353  53.2830963  50.9239006  62.4644814
  75.3292236   4.0170283  20.9908791  75.9634323   4.3206706  21.6403503
  74.8679428   4.8099790  20.7176018   0.6753196  71.2210922  26.2397099
  -0.0909059  71.7671356  26.0637569   1.4120349  71.8321609  26.2308693
  34.6350327  65.7552643  75.8821106  34.3200684  66.6587906  75.9082489
  35.2642632  65.7000732  76.6013184  33.1938324  48.4240074  53.2741089
  32.3413467  48.3978271  52.8395844  33.0341034  48.0439644  54.1379852
  36.4678993  44.2161560  70.1383743  35.5627251  44.3200645  69.8449554
  36.9168053  44.9955635  69.8108978  57.0634117  41.8039474  82.3739624
  56.6926498  41.2363510  81.6982422  57.9817886  41.9055672  82.1239853
  34.3415222  25.3589973  73.1158981  34.1723671  25.3544044  72.1737747
  33.5747147  25.7887154  73.4948273  57.5223389  45.2716980  37.3324966
  57.5723114  45.5480499  36.4174194  57.0203209  45.9628639  37.7643509
  64.2790146  25.6136074  67.5158615  64.7783890  25.7936726  66.7193527
  64.7166977  24.8576202  67.9071960  79.9615936   1.8874468   8.0207052
  80.2577896   2.3244581   7.2222562  79.0988312   1.5385288   7.7968116
  18.3558140  57.4055595  38.5087891  18.0685940  56.9402161  39.2944069
  18.9369030  56.7885628  38.0639496  61.1258316  58.8826790  71.2507553
  60.9162369  59.2722282  70.4019012  60.9660873  57.9465714  71.1306915
   1.5951675  26.6901722  15.1128826   1.3018892  26.7943897  14.2076988
   2.5503681  26.7229500  15.0604477  37.1969872  14.5063047  80.5360336
  37.1883659  14.1710176  81.4325485  38.0357971  14.2142887  80.1791687
  44.2827682  60.6399689  56.3205872  44.0396996  61.4844322  55.9410782
  45.1313057  60.7985954  56.7341728  46.0987091  11.2896767  51.0975952
  46.7208862  10.5753632  50.9601822  46.3004494  11.9194717  50.4055748
  73.4794693  51.6238861  76.5659485  73.5968552  51.2163162  77.4240494
  74.0072250  52.4214745  76.6054077  82.2277069  59.2165260  71.5128632
  82.8466110  59.7699814  71.0365524  81.3697662  59.5930939  71.3169708
  57.6040840  13.1748486  25.2414551  56.9614525  12.8780031  25.8857651
  57.4430771  14.1147165  25.1580544  58.4049454  50.9910469  71.7033463
  59.2010384  50.6251793  71.3178482  58.4484940  50.7402039  72.6260681
  10.3282595  28.7321072   5.1110950  10.3178968  28.2243671   4.2997227
  10.4663744  28.0812149   5.7992048  63.7606049  46.7330627   5.2276278
  63.3730202  46.1610985   5.8900971  63.3823853  47.5944977   5.4040222
  83.2067490  60.8358879  85.9839706  83.4608459  60.4895973  86.8393936
  83.7755737  60.3810349  85.3628616  18.5356312   9.5492983  65.5776215
  17.8928261   8.9784880  65.9985886  18.0386810  10.0140553  64.9043732
  81.1547775   0.6422527  18.9913120  80.5259781  -0.0021111  19.3163204
  81.4792862   1.0786799  19.7790031  36.5408516  62.1642151  19.9713306
  36.3427582  61.5565453  19.2587795  36.2037888  61.7315102  20.7557964
  52.3488579  57.3477936  45.9576874  51.7536850  56.8074608  45.4380302
  52.7133751  56.7462158  46.6068878  83.8368378   4.5455604  15.4294062
  84.0353394   4.6547275  16.3594112  84.0703430   3.6368670  15.2397156
   6.9795465   9.4084272   7.6733809   6.3800344  10.1020632   7.9484901
   6.5812826   8.6028976   8.0031395  50.4503632  42.3008957  16.9132500
  50.1755371  43.2138405  16.9983273  50.0148888  41.8512001  17.6373825
  27.3990173  18.5895214  15.5890312  27.8538227  17.8507824  15.9935637
  28.0079212  19.3228359  15.6768751  75.5598450  17.4772682  81.4432068
  76.0008926  17.9344254  82.1592484  74.6270752  17.5806217  81.6315918
  63.8915672  52.3823547   8.7591295  64.3822327  51.8692284   8.1171198
  62.9730759  52.2100983   8.5519285  58.3053322  68.6397705  13.2579565
  59.1198120  68.6405182  12.7551107  58.0312042  67.7227249  13.2685080
  80.3080673  26.5459423  47.7346802  81.2272186  26.2828846  47.6878967
  79.8437347  25.8868008  47.2187691  38.9655228  13.2475500  18.3951168
  39.3738403  13.5776415  19.1954594  39.5384789  13.5513144  17.6910706
  22.6668663  16.1578560  80.1474380  22.5353718  15.7815380  81.0176849
  22.0798645  16.9135132  80.1220703  86.0381546  65.3979034  88.1239853
  85.8627014  64.4991608  87.8452301  86.0851288  65.8967819  87.3084183
  78.0764618  11.8540907   7.2198286  78.7433777  11.2595234   6.8763947
  78.0555496  11.6734066   8.1595879  41.0593987  39.9507980  40.3090820
  40.3038330  40.5103798  40.1295929  41.8162270  40.4874802  40.0736656
  68.6929550  13.3726263  15.4495974  68.0088730  13.8798847  15.8865871
  69.4291382  13.9795694  15.3728590  54.7623749  37.4611130  62.0065918
  54.6483078  37.5005074  62.9561539  54.9582710  38.3625984  61.7512856
  51.0367126  14.2827015   3.7227221  51.7139320  13.8240566   3.2254789
  50.4474945  13.5896349   4.0205655   4.4954739  30.2220783  58.9099998
   4.6728163  30.9737663  58.3445358   4.4298882  29.4802189  58.3086891
  19.5162544  30.5687103  85.1247406  19.8577538  30.6017456  84.2311401
  18.6797638  30.1103382  85.0446777  28.1339340  47.7368088  50.6324768
  28.1866360  48.4011116  51.3196144  28.9650860  47.8108482  50.1635017
  41.5638847  46.6322670  42.2846069  41.7875633  47.5525970  42.4231377
  40.6615524  46.5557823  42.5947304  57.4118156  70.6204071  29.9515381
  57.1636810  71.4582596  29.5608025  56.6904411  70.0307770  29.7320423
  53.3922920  35.0123482  20.3164158  53.1609573  35.7268333  19.7229290
  53.5554276  35.4418221  21.1561604  72.1167603  30.1024933  59.6508942
  72.9980011  29.7877140  59.8522911  72.2482224  30.9960995  59.3340073
  83.2103806  65.1609955  51.0233421  83.3035965  64.8416595  50.1258049
  82.5432281  64.5945587  51.4110146  37.8649101  26.9355431  70.3713455
  37.3724060  26.8754845  71.1899261  37.6252670  27.7887783  70.0096970
  80.2297363  20.1958923  35.6480026  79.9993973  20.8594437  34.9977150
  79.9453049  20.5692120  36.4822464   9.4412155  45.4796753   1.0338722
   9.1625080  45.5836411   1.9436772  10.3945951  45.4090919   1.0820057
  46.4644165  50.4783554  16.1752911  46.9002190  50.7038231  15.3534212
  45.7137527  49.9468002  15.9103699  60.7430458  55.6867104  16.3355503
  60.4192009  55.5103111  15.4522390  60.6245842  56.6296043  16.4502277
  80.6294022  63.7143364  84.1692963  80.2564621  64.4253082  83.6480789
  81.4511185  63.4993477  83.7279434  80.2168198  54.5028000  76.4142456
  81.0273666  54.9814453  76.5878525  80.4934616  53.7389641  75.9080276
  76.3832779   9.1563807   0.8265333  76.0540237   8.2682495   0.6885133
  76.6184845   9.1831894   1.7539979  34.4358139  59.0846748  67.2358932
  34.4450684  58.7554207  66.3371506  35.0815887  59.7912140  67.2387924
  34.1526985   9.1661320  78.1481094  33.9637985  10.0599451  77.8623734
  35.0879173   9.0530262  77.9783859  64.3935013  45.4660187  70.9403305
  64.6721954  46.2706909  71.3774414  65.2038574  44.9757919  70.8016434
  78.5438156   4.1130762  24.0368195  79.1043167   3.6129882  23.4435387
  78.9793549   4.9614148  24.1196423  13.9303083  36.3679771  84.3405685
  14.5221100  36.3216743  83.5896606  13.7949314  35.4553261  84.5954590
  83.0686874  45.9121971   8.7137222  83.8463516  45.6690178   9.2160482
  83.3172684  46.7193642   8.2632542  67.3780289  59.1992149  11.5883722
  66.7613220  58.6784134  11.0739050  66.8616943  59.9421844  11.9008255
  21.1087017  43.1850548  64.6367645  20.6352348  43.8579941  64.1476669
  21.0967026  42.4189415  64.0630417  79.3986664  33.0440025  58.2597160
  78.8193130  33.7072372  58.6348190  80.1548080  33.0270309  58.8463974
  30.0084686  33.2516289   2.8479300  29.9146500  32.7080879   2.0656285
  30.7232971  32.8450356   3.3377619  48.8659935  34.4273949  89.2293930
  48.8449936  33.5957947  88.7558670  49.7925720  34.6664391  89.2526550
  49.4733772  70.4240494  40.5401535  50.3558311  70.0848236  40.3903694
  49.6115723  71.2862015  40.9323616  72.6338501   4.8746862  72.7173004
  71.8918915   4.2769089  72.6256943  73.3855667   4.3736715  72.4008560
  43.7823601  40.1533508  60.9696693  44.0172348  39.3277550  60.5460472
  42.8254700  40.1467590  60.9931602  68.2311401  32.6756058  69.6031647
  67.2956772  32.8257790  69.4668198  68.2802811  31.7969646  69.9797287
  31.0672989  60.4574127  35.5936546  31.8451405  60.7784004  36.0499039
  30.7773762  59.7074776  36.1130524  23.7266064  25.4876976  18.7887230
  23.0086670  25.3788414  19.4123783  23.3043098  25.8045197  17.9902744
  52.8665161  37.8093262  15.2951012  53.4266281  37.1436539  14.8958778
  53.4533501  38.5465736  15.4634037  72.4398956  61.9990120  44.4745293
  71.8635635  61.3022842  44.1604500  72.5689240  62.5645676  43.7131271
  58.7945786  19.9682808  62.4554062  58.5583649  19.2782097  61.8355331
  58.1658401  19.8730679  63.1708450  41.9399605  31.7637672  68.1618042
  42.3952904  30.9306335  68.0401840  41.0126762  31.5459576  68.0672913
  45.9479904   0.8128029   6.1921630  46.3972778   0.2135766   6.7882357
  45.9544563   1.6541921   6.6485114  18.3481026  43.8491554  33.6759071
  18.6576118  43.0733223  34.1433640  19.0902786  44.1130638  33.1320686
  19.9190044  61.7908783  76.4581070  19.2533875  61.9540787  75.7898636
  20.4081001  62.6117554  76.5144882  59.9311562  36.9938965  80.6279297
  60.5483971  37.7249794  80.6556549  59.3770180  37.1189384  81.3983383
  59.4890709  18.4053459  74.6541443  59.6072197  19.3412323  74.8165894
  60.0362129  17.9770355  75.3124847  49.1171684   4.9568515  68.9821548
  48.7490082   4.3803744  68.3125534  50.0050850   5.1424470  68.6765594
  84.0911331  60.5668564   2.0074689  84.2591171  59.7708054   2.5117660
  84.9067383  61.0643806   2.0665364  12.3182869  59.1634407  36.2519569
  12.4327984  58.6618881  35.4447632  11.9691210  60.0064240  35.9626579
  55.7225723  69.8573990  50.1912346  55.6041260  69.2932129  49.4271049
  54.8412132  70.1679535  50.3985863  62.8738213   0.9927455  41.9571991
  63.5075798   0.8825576  41.2483711  62.2418976   1.6262146  41.6171646
  12.7411089  46.3407059  42.4854088  12.3919306  45.4552727  42.3838730
  13.4532652  46.2462463  43.1179771  42.3053818  51.0172501  30.8183231
  42.0984497  51.5994873  31.5493584  43.1629982  51.3124199  30.5123882
  85.1124496  16.1305752  71.1279678  84.2006912  15.9489241  70.9000778
  85.0584335  16.7318363  71.8708038  49.7185402  70.1334152  87.8793640
  50.0864906  69.5641479  87.2035065  50.4202042  70.7533035  88.0784607
  34.9803238  41.8684273  70.9997711  34.2154427  41.7502213  71.5629883
  35.6192703  42.3160629  71.5543900  69.9323578   4.5148225  81.0336151
  70.3659439   3.7044702  80.7660980  69.2114029   4.2270966  81.5936737
  16.8059311   3.1523242   2.6956675  16.9307709   3.5582790   3.5534830
  17.5071907   2.5038073   2.6332569   7.1273317  44.9115105  19.2515030
   6.7581139  44.0573502  19.0271778   7.4738326  44.7977142  20.1364994
  50.2820511  30.2780209  25.4212360  51.0553932  30.1563435  24.8704491
  49.6760025  30.7794266  24.8757763  80.3499298  54.6689873  43.2028542
  80.0516510  55.1272049  43.9885368  80.4127960  53.7519073  43.4697762
  24.0560760  35.8592072  60.8331985  25.0027161  35.7947083  60.9594727
  23.7222366  36.1650963  61.6765327  69.2141418  12.1796675  66.9004822
  69.9183655  12.6933155  66.5049286  68.6441345  12.8303747  67.3102417
  85.1503677  62.1595917  49.3139000  84.8235703  63.0526390  49.4229774
  85.2135696  62.0417671  48.3660851  53.2909088  39.7315559  31.3043842
  52.9429398  38.8400269  31.2864571  52.7474327  40.1879158  31.9467239
   6.3473849  63.6227112  67.8684006   6.2269096  62.8158836  68.3691483
   5.4735456  63.8329811  67.5391235  45.6329880  28.5701351  59.9616508
  46.0240898  28.8165703  60.7998276  45.0006943  29.2651253  59.7788277
  49.1708984  11.6616421   0.5764455  49.0450821  12.2027502  -0.2030443
  48.8720665  10.7908802   0.3143276  14.0596828  57.9659424   1.3427362
  13.6374817  58.7054253   0.9055385  13.9959040  57.2474709   0.7134794
  62.3638115  15.4618139  47.3400574  62.0369568  14.7043114  47.8254318
  61.5767593  15.9527121  47.1038399  40.2044067  10.3247805  74.4981918
  40.1176224  10.2736282  75.4500732  40.0913124   9.4227486  74.1985626
  67.2726974  19.3951054  43.3975945  66.8915482  18.6681023  43.8899612
  67.4013290  19.0457802  42.5157471  33.7020111  68.5170364  19.1703434
  34.0824509  68.8109131  18.3426132  32.7649765  68.6891479  19.0777454
  14.8912439  27.3464031  15.1205235  14.9848862  28.1532059  15.6270132
  15.3685913  26.6890488  15.6267414   9.6158485  33.1597099  18.5732040
   9.0024023  32.7523727  19.1847534   9.2739410  34.0444717  18.4446678
  28.4224300  40.8961258  46.6799965  29.2371769  41.2767067  46.3520088
  28.2334385  41.3873405  47.4795074  84.7832108  52.5792046  71.1118393
  85.5961075  52.9829979  70.8078918  84.9644394  51.6393661  71.1022186
  76.7367783  22.9541512  13.9067669  75.8608246  23.0745354  13.5401011
  77.3032227  22.8448849  13.1429367  66.1305542   9.2540455  65.5766983
  66.9900970   9.0970211  65.1858521  66.1982040   8.8886852  66.4588394
  32.0974236  22.7682171  68.7662354  32.0043259  23.5507164  69.3096161
  32.7174873  23.0233669  68.0831223  69.9481049  61.7380447  87.3764191
  69.0758133  61.5336952  87.7134323  70.3446732  62.2851944  88.0543518
  23.6981850  22.3467026  87.7594070  24.3966141  22.4603004  87.1147919
  23.0114250  22.9509315  87.4774475  44.5998802  37.9104691  37.8121681
  44.7934570  38.1173630  36.8978615  45.4587708  37.7950592  38.2186432
  86.2279358  26.2098503  30.6406307  86.7608337  26.4478207  29.8819370
  85.5402603  26.8751011  30.6684513  80.8530960  56.5959511  71.9967270
  81.2682114  57.4415512  71.8267822  79.9345703  56.7286415  71.7623520
  63.3588448  53.6895523  81.9402237  63.2353821  52.7504959  82.0786514
  64.2775955  53.7753906  81.6857605  63.0704956  25.3463039  84.9812012
  63.1726151  25.3618565  85.9328079  63.0685234  26.2686958  84.7254181
  11.6929178   2.3841949  24.5235176  11.0116301   2.0398941  25.1010418
  11.9023914   1.6555146  23.9392414  65.2218018  44.7116508   3.2738023
  65.7174454  43.9457588   3.5635936  64.9160690  45.1196594   4.0839181
  83.3146210  23.5861416  72.8406754  83.9843826  23.7239799  72.1708679
  82.5413742  24.0379391  72.5027390  81.4429321  46.7821503  49.8114929
  81.1398544  46.0302162  49.3025932  82.1054459  46.4212875  50.4006348
  82.6630859  20.6781654   1.3124694  83.1362762  20.3704109   2.0855207
  82.5209961  21.6108456   1.4741830  25.4516811  62.0615463  14.5816469
  25.7119484  61.2057648  14.9224291  26.0063896  62.1918755  13.8125286
   0.9787881  59.3302155  53.9204292   1.4097024  59.2313156  53.0714531
   1.3694899  60.1187820  54.2969208  50.0454025  51.5786438  34.3203278
  50.3143501  52.4776459  34.1314011  50.5213356  51.3489685  35.1184273
  30.9175758  43.3543358  22.4611797  31.0076599  44.2970467  22.6005096
  31.1983662  43.2180519  21.5562954  36.9509964  10.6611633  74.8324051
  37.6224785  10.4622526  74.1798935  36.2977982   9.9702091  74.7221985
  81.2449799  21.7885075  70.5427017  80.7914429  22.2442398  71.2518158
  81.2251434  22.4048424  69.8106003  29.5177555  51.2601738  30.9926491
  28.8949451  50.9908142  31.6677666  29.0235004  51.8636322  30.4378700
  68.9640427  65.1186752   1.5309378  69.4636078  64.7459335   2.2573855
  68.8880386  66.0485916   1.7447540  56.2058105   6.6616392  67.8578033
  56.3407402   5.7971945  67.4695206  55.8079185   7.1791811  67.1577606
  50.9721222  42.3717613  28.7265663  51.7871513  41.8702545  28.7054253
  50.3585396  41.8536987  28.2056408  67.2256088  70.5104065  77.3697815
  67.6119614  69.7900696  76.8716965  66.9098892  70.1019821  78.1758423
  28.1196861  28.4681931  85.7504272  27.7427311  27.8893890  85.0877609
  28.1767540  27.9262009  86.5373306  59.6175880  14.0184746  11.7174234
  58.7652931  14.4182577  11.5442142  60.0754433  14.6576462  12.2633724
  10.2518759  33.7304649   0.8307292  11.0626392  33.2589073   0.6396028
   9.8801956  33.2721329   1.5843985  55.7932625   6.7054391  55.9609680
  54.8831024   6.7191133  56.2570305  56.1313820   5.8631206  56.2649536
  75.5314331   4.5473294  36.9864807  75.6271057   4.8957391  37.8728714
  76.2405243   3.9099436  36.9018364  75.0218658  12.1908283  39.7649574
  74.2887039  12.3935328  39.1839027  74.8806763  11.2789774  40.0195656
  12.7953320  69.6773758   5.6595006  12.2913074  68.9609222   5.2736435
  13.3851595  69.2485046   6.2795086   6.5057015  35.1273346  41.1470680
   5.9508910  35.0386505  41.9220200   7.3922753  35.2180595  41.4963341
  71.6328049  54.2176399  82.1217651  72.3688278  53.7630424  82.5314407
  71.0376663  53.5173035  81.8542480  63.6092148  35.5712395  84.2087860
  62.8249550  35.0866470  83.9512253  63.3051872  36.4703255  84.3330536
  86.5251770  62.4437027   8.1236687  86.0314713  62.5190544   7.3070860
  86.2885590  63.2273521   8.6197939  63.9603615  44.2978210   9.8597088
  64.7899551  44.3860626   9.3904333  63.4972916  43.5986938   9.3981657
   9.2488117   4.3351040  27.7285233   8.6466341   4.9897079  28.0822296
  10.0203314   4.3899088  28.2924252  33.1844330  67.5521393  87.2829590
  32.7195969  67.3830872  88.1024628  34.1102753  67.5387039  87.5255890
  76.3599319  15.1344633  87.0644455  76.4654083  14.5603437  87.8230591
  75.4383011  15.0443306  86.8221664   5.1805811  31.1385250  45.1206703
   5.7205381  31.4330444  45.8541107   5.8049173  30.7660027  44.4980431
  71.2102585  14.6205397   2.8381751  71.5479279  15.4573908   3.1573782
  70.2589188  14.7075291   2.8982670  77.8651581  55.4852486  14.9891224
  78.5209274  55.5073280  15.6860504  77.0260086  55.5089836  15.4490070
  66.4324799  68.2044067  45.8093719  66.4646683  67.2984619  45.5020370
  66.1670456  68.7088928  45.0404282   5.6111140  53.8682632  58.5639267
   6.4892054  54.2487984  58.5444527   5.7117100  53.0123520  58.1473579
  64.3853607  54.4843903  70.9996796  64.9915009  54.7439804  71.6935349
  64.1171112  53.5964088  71.2358093  85.7390671  15.3692074  20.0254574
  86.0282516  16.2793541  19.9603424  85.1806946  15.2398758  19.2588272
  18.6122456   3.0423255  82.4929123  18.8031750   3.9559221  82.7053299
  18.5320778   3.0298867  81.5391617  75.6897964  33.4158516  36.8553429
  74.9926376  33.8411674  36.3560448  76.4517288  33.4465141  36.2767601
  86.2239304  25.6441078  74.7791824  86.5620346  25.5187206  75.6658554
  85.4127350  25.1364098  74.7581482  37.5216255  66.8209991  54.2097893
  36.5752945  66.7696991  54.3441658  37.6209755  67.2959213  53.3846741
  51.3467941  51.0068436  36.9360504  52.0970230  50.6448860  37.4076157
  50.7661438  51.3326607  37.6237488  58.8258553   9.7214451   4.3465104
  58.6552238  10.3663187   3.6600301  59.3205376  10.2028017   5.0096984
  23.3482418  17.8383236  74.4811554  23.4958801  16.9139080  74.6808853
  24.1828251  18.1425819  74.1246033  74.8911591  63.6380501   3.4054983
  74.2207108  63.4959488   4.0737309  75.5642624  62.9855804   3.5990059
  15.3794584  69.3479538  67.7695084  15.3510313  69.5125351  66.8269882
  14.4603357  69.3158646  68.0348663  27.9140072  56.7412453  40.9829483
  27.2933445  57.2708092  41.4835205  27.5469398  55.8574944  41.0047646
  74.8160934  51.4762344  44.5233459  75.1116943  50.7378693  45.0559540
  73.8783798  51.3254128  44.4042473  53.2304153   6.7696152  19.7011852
  54.1649170   6.9729643  19.7409973  53.0237923   6.7747126  18.7665653
  63.4966545  46.4049988   2.0783420  64.0968933  45.7066650   2.3396349
  63.8563881  46.7343254   1.2547102  25.7596512  52.9262581  61.9212761
  25.6838608  51.9731064  61.9658852  25.6825008  53.1292877  60.9890404
  47.1057167  62.4976768  35.2054863  47.6052856  61.8756981  34.6765213
  47.7404861  63.1732483  35.4440269  25.8354282  43.7137909  16.4804935
  25.6031361  44.3229942  15.7796774  26.1085377  42.9174957  16.0249043
   9.5468931   4.7887135   8.4989624   9.8860703   5.1930785   7.7004137
   9.8979445   3.8983319   8.4842987  67.7369308  23.1118069   3.4404256
  68.2487946  22.9572983   2.6464758  67.4580078  22.2395840   3.7191033
  44.7658348  46.5614815  56.8678322  44.6277161  46.3906822  57.7994843
  45.5906868  47.0458679  56.8328400  82.5762405  59.2456398  54.6732445
  82.5538483  58.5487595  55.3290520  82.8729782  58.8121033  53.8731041
  75.6224365  29.0579834   9.3682032  74.7046661  28.8542843   9.5483103
  75.8121109  29.8167858   9.9199982  69.9926605  54.1141090   7.5195661
  69.3777542  53.7389832   8.1499662  69.9771118  55.0540161   7.7000175
  55.7940445  58.1456680  48.5627823  55.8655701  57.2025681  48.4155464
  55.6672287  58.5155411  47.6890869  36.1323967  63.8633461  17.1737537
  36.8283348  63.6758232  17.8036232  35.9306641  63.0145454  16.7799625
   7.2631474  29.8803940  27.1332741   7.0485516  30.5319138  26.4656639
   7.7100501  29.1834507  26.6528797  57.3093643  15.9702063  58.1765289
  57.9023705  16.4868412  57.6309433  57.8804817  15.3510971  58.6312408
  73.3160782  55.6876221  63.3874588  72.6476517  56.2242165  63.8134956
  72.8319473  55.1646919  62.7484055  74.5252228  27.8694038  83.0541992
  73.6180344  27.9271717  83.3540344  74.9556732  28.6295357  83.4455261
  48.9675293  36.8422737  62.6514702  48.3575058  37.5777626  62.7076759
  49.2873917  36.7274780  63.5463142  51.9177437  22.5021343  24.6454906
  51.4681816  21.6800518  24.4497662  51.2204475  23.0962505  24.9230518
  79.6961441  27.5253220   3.5166917  79.7618484  27.4881363   4.4709096
  79.3518372  26.6678848   3.2667236  41.1683998  35.0493660  28.1913376
  42.0101128  34.8063049  28.5769119  40.5197678  34.5834541  28.7190113
   7.0198317  50.4091759  85.9758148   6.5321994  49.5880661  86.0408096
   6.3535552  51.0687943  85.7829132  51.3081436  14.8535938  13.3810987
  50.4394684  15.1607828  13.6404715  51.1562080  14.3560705  12.5775948
  25.8139877  19.7145023  31.0729160  26.4303246  19.9495811  30.3793049
  25.2049294  19.1052017  30.6557407  24.2716446   2.3886116  65.8686066
  24.2315369   1.9348159  66.7104416  25.1694679   2.7162378  65.8156509
  21.7173138  47.7957497  65.8457870  21.2744732  48.5575523  65.4719162
  22.6478310  48.0168724  65.8073883   3.9166687  18.8540001  21.8529530
   4.0594583  18.7825756  20.9091606   4.7800746  19.0605469  22.2108650
  24.0708027  64.8533173  53.2348099  24.6033554  65.4326172  53.7798080
  23.1681137  65.1094742  53.4239349   2.4806664  30.3579617  64.7717972
   3.3561718  30.0868549  64.4957123   2.2403996  31.0523834  64.1583786
  77.3797379  26.8397236  45.9742699  77.9235687  26.0534935  46.0224991
  77.8591232  27.4940739  46.4824524  24.4078064  15.8135004  78.0780945
  24.8077965  14.9654608  78.2706299  23.7042942  15.8981237  78.7216339
  58.9473495  25.9676437  53.5919991  59.2836990  26.8479671  53.4242706
  59.3532982  25.4235401  52.9171753  65.6803894   8.1590538  20.9952297
  66.0980072   7.2996421  20.9383640  66.2149811   8.6440010  21.6239300
  50.9819221  67.7443390  61.9035378  51.1874313  68.5901108  62.3018646
  51.5599136  67.6912994  61.1423912  44.3580284  31.1907063  85.7900620
  44.7993546  31.9829922  86.0962372  44.8477135  30.4732056  86.1920929
  62.9038506  27.1321411  20.7529182  62.7872543  26.2642574  20.3663769
  62.0588226  27.5646095  20.6299286  15.4950352   8.4685373  12.4187756
  16.1146908   8.9839954  11.9024811  15.9493713   8.3055067  13.2453537
  80.8258743   8.9743471  54.2450142  81.1258774   9.7110071  54.7775154
  81.3950272   8.2478199  54.4988976  71.4452591  22.8575344   8.9350262
  71.6185455  23.7564411   8.6554394  71.6761703  22.3219166   8.1760626
  26.3437786  49.5329247  88.9441223  25.6144295  50.1308365  89.1077881
  26.0643330  48.7028923  89.3303680  46.8570442  45.0910873  87.4377289
  47.4307861  44.3718071  87.1737518  46.4774704  44.8024483  88.2677002
  53.4122200  39.7633591  22.0243664  53.1770630  40.6770859  22.1857090
  52.6659737  39.4052849  21.5436077   1.6269379   5.0682731  54.8405876
   2.1224031   4.9305887  54.0332527   0.7103971   5.0501289  54.5651665
  27.9117031  11.4335108  79.4305725  28.3552704  11.2712154  80.2631226
  28.2225609  12.2967768  79.1578598  33.9130745  38.0177193  22.6226521
  34.2704773  38.3602676  21.8034115  34.5420227  37.3507576  22.8980045
  49.4486465  61.5575256  83.7458496  48.7086143  62.0859871  84.0447006
  49.0460968  60.8090363  83.3054504   5.2177515  51.6197662  74.6839828
   4.4121709  52.0397453  74.3825073   5.0651441  51.4482193  75.6132431
  14.6090136  46.9431953   1.0368067  14.5888567  47.5362053   0.2856999
  15.5193167  46.9616394   1.3321695  47.0783920  69.5703049  30.1539612
  46.3192177  69.0141068  30.3286743  47.5073166  69.1609955  29.4024811
  80.6703033   4.0269265  63.8685417  81.4543762   3.9213879  63.3297234
  80.2579651   3.1631088  63.8632011  44.3149910  70.8913651  31.4294281
  43.9076691  71.2604599  30.6457901  43.9060364  70.0317535  31.5296783
  81.1452637  12.4394894  84.3637314  80.4254532  12.9932547  84.0613327
  81.8318787  13.0563831  84.6171799  33.6922684   1.9662440  47.2159729
  32.8190002   1.7760099  47.5586777  33.5400047   2.2420633  46.3121109
  70.8883820  16.8633270  73.9669876  71.2855377  17.6589050  73.6126480
  70.3883591  16.4993820  73.2364044  48.0267792  15.6469879  78.3869247
  48.6386642  15.0412750  77.9686737  48.2705574  16.5074120  78.0456467
  28.2289886  42.0720024  40.9097633  27.7768993  42.3105087  41.7190590
  27.8052921  41.2609673  40.6288147  83.1367493  69.0732956  17.3702183
  82.4104614  68.4633179  17.2410870  82.8328400  69.8933640  16.9811668
  43.5470314  36.2865372   3.4493999  42.9432144  35.9368172   2.7941637
  43.5418701  35.6358032   4.1513610  36.2412453  65.8203812  31.4742222
  36.1295738  65.8125534  32.4248543  37.1565170  65.5752106  31.3385544
  74.2984390   5.4779224  48.7892151  74.4602203   5.8463030  49.6577492
  74.9086380   4.7434020  48.7231255  83.0951309   1.3366355  66.6176987
  82.9763641   2.0555015  65.9969254  83.7334290   1.6684444  67.2491379
  34.6342735  59.3687973  71.1569824  35.1996574  59.7945709  70.5125504
  35.2372284  59.0353889  71.8214493  81.0029221  15.7535934  87.8553848
  80.3181915  15.2641344  87.3995285  80.7817001  15.6678038  88.7827148
   5.8720593  65.4630356  21.0713863   5.9702959  65.2780685  22.0053921
   6.6221533  66.0176315  20.8568649  15.2722712  16.2383556  84.3567505
  14.6678839  15.9859715  85.0547867  15.2574673  15.4995241  83.7483597
  35.3677521  42.5524902   4.1862040  35.9970703  42.1987190   3.5576851
  34.5421219  42.5897522   3.7033162   0.3862028  34.1485291  82.5300903
   0.2068449  33.2875443  82.1522446   1.0697274  33.9870148  83.1804276
  73.1139069  50.7830925   3.2573345  72.4699936  51.3680267   2.8580110
  72.7545547  50.5861130   4.1223760  39.6794243  31.2827911  83.4364929
  40.3292809  30.5806522  83.4667892  40.1963654  32.0842209  83.3545532
  43.5706978  27.4800777  73.4157639  43.6270485  27.8901825  72.5527039
  43.9922371  26.6279907  73.3040314  81.8271027  42.4634552  37.2931633
  81.9822540  42.5995293  36.3584709  81.4177933  43.2766266  37.5888824
  18.5088329  21.6001167  87.8828125  19.3647060  21.2257977  87.6740036
  18.2637424  22.0900536  87.0978775  77.3008041  29.1418304  30.8085918
  78.2259369  28.9098244  30.8894901  77.3064117  30.0177879  30.4227161
  67.5207214  68.6737137  38.4843216  67.7555237  69.2544479  37.7605476
  66.5749893  68.5538025  38.3980598  80.4459610   2.3154650  16.7249928
  80.5124207   3.2404118  16.9622440  80.4598923   1.8518291  17.5622959
  21.4006443  64.6621017   3.7451398  21.9962444  64.0440369   3.3214896
  20.5308056  64.4036407   3.4404891  13.6230288  16.3410873  14.3684740
  12.7021046  16.1063957  14.2542362  13.8180418  16.9137821  13.6267033
  83.9695511  16.5198898  17.0573711  84.1730804  16.8331089  16.1760635
  83.2173080  15.9401932  16.9377632  31.1933842  54.7066460  33.5520744
  31.6054688  55.4405441  34.0079384  31.1572990  54.0084267  34.2058487
  20.7447834  53.7908401  89.0368271  20.0182419  54.2317276  89.4772720
  21.4668694  54.4177132  89.0799332  17.7572689  20.8296890  30.4688034
  17.8778400  20.3012562  29.6798477  16.8077717  20.8897648  30.5740471
  38.3686447  42.2982559  50.0923157  39.3074989  42.1267090  50.1655197
  37.9822273  41.4418297  49.9094238  44.5961418  32.9263802  45.7954750
  44.9884033  32.0603943  45.6839867  43.6527481  32.7684288  45.7594719
   8.9480333  24.8018799  27.2393188   8.5217838  24.8410435  28.0954800
   8.2808380  25.1086540  26.6253376  55.9780159   5.1249461  83.0008850
  55.3792381   5.2655487  82.2674561  56.2447891   6.0056100  83.2645035
  29.0881729  69.7351227   6.0676546  28.7569256  69.9986115   6.9261885
  29.5991135  68.9443512   6.2404447   0.3792717  71.5499573  29.7390804
  -0.0848608  70.8422546  30.1862545   0.8852161  71.1103134  29.0557327
  38.7118492  25.2552967  18.7237530  39.1267014  24.7814617  19.4445915
  39.4432144  25.5992680  18.2108994  57.7835655  66.3361511  17.7556477
  57.0560265  65.7439728  17.5652752  57.9651108  66.2012482  18.6857414
  73.4013214  48.7456093  76.1780319  73.3409042  49.7006569  76.1563797
  72.6222382  48.4456596  75.7097473  27.8075485  28.8318253   3.9802649
  26.9281807  28.4779530   3.8471503  27.7580223  29.2864437   4.8211589
  58.0614624  36.1893539   7.3280277  58.3406715  36.0559273   8.2338266
  57.8385582  35.3128471   7.0145221  61.4473991   5.7036448   5.4965553
  61.8026276   4.8420725   5.2780695  60.6164703   5.5163946   5.9332833
  61.6673851  42.0948563  89.0184860  61.9066849  43.0004616  88.8213959
  60.7353096  42.0419922  88.8071213  42.4337120  36.3184090  15.7752819
  42.0178452  36.8586884  15.1034298  43.1366615  36.8673248  16.1228237
  13.9539185  10.6225290  78.0588531  14.4529181  10.0835123  78.6725998
  14.6196899  11.0594864  77.5277710  72.3376389  50.5804329  84.4514313
  71.4224167  50.8492584  84.5310440  72.3624496  49.7006454  84.8277054
  47.7783394   9.1672478  89.0291290  48.2576981   8.3558903  88.8613663
  46.9249268   8.8787107  89.3526535  80.9050827  30.3606358  50.7293777
  81.7305527  30.4054089  50.2468567  80.5394211  29.5063763  50.4996796
  84.3851013  61.8954735  45.0123405  83.4645233  62.0193977  45.2434502
  84.4305038  60.9980965  44.6823654  82.7298431   8.9059963   4.9601574
  82.0546188   8.2541666   4.7719350  83.3505630   8.8237877   4.2361522
  23.1213627  63.2198601  22.7579174  23.2555332  63.9619370  23.3474483
  22.9859123  63.6183739  21.8982239   8.4298697  45.4145012  81.0497894
   9.0186567  44.7350922  80.7212143   7.5986257  44.9621239  81.1933899
  65.4945145  33.8656197  75.8637314  66.3635559  33.9237518  76.2607574
  65.5630341  33.1406670  75.2424622  16.5225945  58.3758202  49.0060272
  17.4313946  58.3122787  48.7122955  16.0268326  58.5701790  48.2106171
  25.2942352  17.6583385  10.5635948  24.9066010  16.7998295  10.7337027
  25.6785622  17.9177742  11.4009819  78.8870621  28.7686195  46.8191605
  79.4610901  28.1685886  47.2952805  79.4849930  29.3602467  46.3623466
  62.1827164  32.6459007  15.3113241  62.6131363  32.9652977  16.1043911
  62.7188988  32.9851341  14.5946217   9.7876987  13.5838699  87.3210678
   9.2442045  12.9966040  86.7957458   9.4013596  13.5490227  88.1961517
  13.6507502   6.1417451   1.6960301  13.2267256   6.3048925   2.5385373
  13.7789927   7.0125270   1.3198332  18.8617039  58.4369164  47.4981956
  18.4675541  57.8569717  46.8466301  19.2721481  59.1316910  46.9833641
   3.7286611  56.6893959  23.3101902   3.1913757  57.3411484  22.8598824
   4.5368967  57.1539688  23.5273552  74.9607697  57.4359436   7.4802852
  74.2925262  57.9046097   7.9803143  74.4936676  57.0941467   6.7179060
  53.2187080   6.7467036  16.9546795  53.4082375   7.1018147  16.0862293
  53.6805763   5.9085984  16.9767628  72.5751495  25.4610596  67.0724030
  71.6796646  25.4181385  67.4077988  72.6115265  26.2880669  66.5918121
  78.0174942  39.1682129  54.4237442  77.6523590  39.9481773  54.8415527
  78.0355759  38.5103874  55.1188469  82.1163406  32.7902374   4.8456068
  81.9607162  32.9267120   5.7801590  83.0678253  32.7190704   4.7691264
  65.6723709  10.3718987  42.1060905  66.0378952   9.7647648  41.4626503
  65.9084854   9.9938974  42.9532013   4.0507259  18.7860699  68.3335953
   4.7302394  18.2143059  67.9764099   3.8117604  18.3819389  69.1677475
   5.9365602   4.3272314   6.4789495   5.3215432   4.8186255   7.0234842
   6.3088074   3.6722469   7.0694227  35.8699760  57.7503586  54.5397224
  35.8177872  56.9374466  54.0370483  34.9590836  58.0236816  54.6483612
  50.8479500  13.7542019  18.8401260  51.2893181  13.7972221  19.6884041
  51.4748955  13.3143101  18.2659607  15.4885654  58.5678787  46.3146477
  15.7523317  57.6872292  46.0479813  16.1687756  59.1396790  45.9588509
  17.1350689  33.0486221  77.3635406  17.3788738  33.9062500  77.0153046
  16.3276806  32.8231926  76.9014435  55.7843552   5.4189849  27.5751209
  56.4968491   4.7941847  27.7100677  56.0612411   5.9386754  26.8204765
  80.4405289  22.9964466  53.4016762  80.6363220  22.4404583  54.1558495
  79.9481735  22.4297981  52.8077660  70.0913315  40.0786209  31.3045120
  69.3495941  40.2099037  30.7139015  69.7666016  40.3541603  32.1617546
  37.6017761  59.3960152  29.0233746  37.0760880  59.6143074  28.2538090
  38.5068970  59.5230865  28.7390442  29.8310471  60.0970154   9.4315872
  29.4742718  60.2620163   8.5588226  29.1243114  59.6517143   9.8989897
  34.5144615  66.9119110  50.9609222  35.3224258  67.3334427  50.6681099
  34.6044159  66.0010452  50.6808205  45.4756012  40.3898430  88.7091370
  44.6378403  40.7787628  88.9603882  46.1320457  40.9308929  89.1479721
  30.4898872  52.2339363  42.7161865  31.0924835  51.5451279  42.4357376
  31.0585842  52.9601669  42.9719276   5.6359711  52.8504105  47.0614433
   5.5303373  52.3710098  46.2397079   6.4369006  52.4937515  47.4455528
  40.1864204  48.4124794  26.8797264  39.3759232  47.9183578  27.0028896
  40.2674942  48.9413109  27.6734505  52.6042061  33.5800400  24.1592484
  53.5027580  33.3485527  23.9242001  52.0839348  33.3243065  23.3975735
  53.3940735  21.2831802  41.8244972  54.3405533  21.3180008  41.9630432
  53.2202988  21.9725914  41.1836014   3.8546512  60.3775139  26.0024090
   4.5382481  59.7132683  26.0901890   4.2445273  61.0500946  25.4439583
  59.6572800  21.7988186  56.6515198  59.6618996  22.6805553  56.2790222
  58.7347183  21.5436401  56.6515083  45.1027489  27.4879627  19.6800556
  44.2716637  27.3028450  19.2427254  44.9023476  28.2050724  20.2815742
  47.8357086  67.5829315  46.5836258  46.8837357  67.5143890  46.6563225
  48.0339966  67.2467575  45.7096138  30.0467606  19.2639999   9.3833675
  30.5356560  19.2202225  10.2051315  29.2193794  19.6837158   9.6189775
  77.0273514  30.6675243  15.4460506  77.9380112  30.4168835  15.2907877
  76.7479477  31.0749454  14.6261873  64.0568542  19.1338196  20.3871059
  64.1772995  19.5441399  21.2434711  63.7433472  19.8417587  19.8242836
  16.6827297  31.2646942  23.6066036  16.9469872  31.0228291  24.4942417
  16.7114658  30.4433098  23.1159554  32.4028778  55.1241608  86.2018280
  32.2068329  56.0610504  86.2077942  31.5470638  54.7008095  86.1340866
  14.3203726  39.2341652  34.1948318  13.5428534  39.4533730  33.6813698
  14.9658413  38.9558563  33.5451050  39.5432930  58.7554169  51.0691605
  39.8542557  59.4659653  50.5082207  39.9351196  58.9358597  51.9236488
  61.7931137  63.9612503  54.1725044  61.5602036  63.9918098  55.1004333
  61.3519821  64.7196198  53.7897339  74.4319000  66.2463837  30.7734776
  73.6744843  66.0802307  30.2122746  74.7059479  67.1355896  30.5488796
  12.4876823  58.0930824  71.7531357  12.3829441  59.0444107  71.7686081
  12.8163309  57.9025650  70.8745499   0.2141062  47.9621162  64.3668137
   0.1214555  48.9140320  64.3280411  -0.0021456  47.6642380  63.4832191
  86.0645905  23.2665138  42.5582123  85.9040680  22.3254681  42.4882507
  86.1971741  23.5546627  41.6550941   7.6418681   7.4901385  82.3761902
   7.1222482   7.9926486  81.7487259   8.5499191   7.6981339  82.1561584
  58.6978340  60.8846130  82.5724564  58.4546547  61.7049561  82.1433487
  57.9445267  60.6695366  83.1224594  22.8578224  54.6894035  54.9376717
  23.3790226  54.7120285  54.1351318  23.3762016  55.1820946  55.5738869
  79.9746017  36.5260010  64.7531357  79.8691711  36.1099625  65.6087189
  80.9214172  36.6174507  64.6463165  78.5730591  19.0778351  46.7290001
  78.8590622  18.1813354  46.5537186  77.6873779  18.9825153  47.0793076
  18.2890129  27.5330544  28.2556610  17.9413109  27.6594563  29.1384735
  18.9228497  28.2416096  28.1441574  64.2680054  18.0644417  78.2973785
  63.8183479  18.8492260  78.6106720  64.8105240  18.3728981  77.5715942
  45.0513725  70.0430374   8.0188646  44.6192017  70.7849045   8.4420576
  44.4858513  69.8276215   7.2772374  70.6548386  43.8078499  48.8724022
  70.0516434  43.0993462  48.6478996  71.0593109  43.5269890  49.6932259
  46.1196556  11.8721399  74.7520370  45.6030502  11.3178139  75.3369064
  45.6565247  12.7098093  74.7448959  18.9744225  16.6394730  15.1294327
  19.4843445  16.7605953  14.3284712  18.9139729  15.6898775  15.2335815
  12.2779055  30.4311428  57.4282188  12.0722218  30.0496140  58.2816620
  12.9987936  31.0359249  57.6036949  63.3507767   8.6024427  61.1716423
  62.7780609   9.1558990  61.7025986  64.2348251   8.9080267  61.3748970
  24.9099617  41.7374725  70.1852036  24.1503677  42.2064209  69.8397522
  24.5699921  40.8759308  70.4268570  25.9410152  27.6247349  23.6511555
  25.1128864  27.8376293  23.2209110  25.7177410  26.9290276  24.2695179
  54.5237160  35.0557404  60.8220711  54.2122917  34.4701653  61.5122490
  54.5755539  35.9144287  61.2418289  57.4910164   6.2488651  13.8623838
  57.9776001   6.5667171  13.1018324  57.6764221   5.3102040  13.8901558
  16.0681648  35.3083801  60.1983871  16.2528572  34.6586571  60.8766060
  15.3904638  35.8665810  60.5796547   6.0685825  60.8709145  15.7442122
   6.4584999  60.0613708  15.4143143   5.1804156  60.6220627  16.0000706
  86.3802032  54.0675163  80.4821930  85.8640137  53.8867264  79.6966400
  87.0293503  53.3645821  80.5092621  85.3110275   6.0465951  40.0267677
  85.9648895   6.7159982  39.8252907  85.0475388   5.7043781  39.1725464
   6.8565440   3.0777967  28.9504948   6.4064813   3.8655083  28.6452332
   6.4514046   2.8827403  29.7955074  28.2887421   2.8175437  86.9093323
  27.7548428   2.9039567  87.6990891  29.1120625   3.2541480  87.1278610
  61.2107811  35.6522331  34.0271530  60.5486374  35.7957458  33.3509865
  60.9429550  34.8394508  34.4559746  85.8165207  20.0912170   3.0334759
  85.5490417  20.9777946   2.7912591  85.0302429  19.6991997   3.4133766
  76.5799942  49.4254456  79.2770615  76.2490540  50.0180626  79.9519730
  76.9565582  50.0040321  78.6139832   5.4274564  49.3683968  68.6816864
   5.3193383  48.8972244  67.8555298   4.5566788  49.3581009  69.0790176
  73.7875137  15.2551680  35.8671608  74.6284256  15.4754925  36.2678604
  73.2981033  16.0777874  35.8697701  50.6139183  21.1305351  78.9533615
  49.6866035  21.3375759  78.8373871  50.8415909  21.5166931  79.7991104
  57.2311821  57.7570915  80.0029907  57.3055878  57.7029839  79.0502243
  56.8524513  56.9169502  80.2617569  68.6908340  62.5874977  51.5428581
  68.0517960  62.0537186  51.0706978  69.2789307  61.9519882  51.9509125
  42.3419380  53.9381218  68.4946747  41.9372025  54.6424713  69.0009384
  42.1271362  54.1432457  67.5847168   9.4812946  57.7901840  81.0262833
  10.1471167  58.3608170  80.6424942   8.7857542  58.3864784  81.3035736
  58.3419151  42.6449890  52.8415260  57.5543823  42.3916550  53.3230324
  58.9068604  41.8734245  52.8834572  59.9380951  26.2037411  25.3346004
  59.0109406  25.9658051  25.3350391  60.4002647  25.3664322  25.3738880
  50.2565536  23.4678669  55.1003799  50.9473686  23.2948399  54.4607964
  50.0868378  24.4065971  55.0215683  76.0931244  43.4832802  83.0558701
  76.5825272  42.9673004  82.4151840  76.2675629  43.0534286  83.8931427
  83.4348068  12.7550936  36.5451317  82.9635620  13.3716726  35.9847794
  83.2846375  13.0764704  37.4341774   3.8397186   4.7626157  45.5682449
   4.1927552   4.7656999  46.4579582   4.3572588   4.1022420  45.1074944
  56.3164368  48.4531441  52.5332642  56.5288429  48.2669983  51.6186790
  56.5765228  47.6621132  53.0053406  71.7882614  40.9496384  22.4585991
  71.9194336  40.0105629  22.5896072  70.8409348  41.0704918  22.5234051
  63.5842171   7.0611925  83.7115707  62.9001961   7.5902200  84.1220322
  63.1504440   6.2363062  83.4933167  83.7303085  26.0869732  49.0226097
  83.5014114  25.7951488  48.1401825  83.9087143  27.0225029  48.9267540
  30.5134583  12.0722466  10.7403965  30.7827721  11.8867664  11.6400070
  31.1418972  11.5946198  10.1989431  35.8905067  26.2933998  47.0370598
  36.4571381  25.6596279  47.4769402  36.2848206  26.4075146  46.1723480
  76.8725281  34.5370865  66.0442047  77.8257141  34.5484390  65.9573746
  76.5581512  34.2311707  65.1934357  79.8794327  21.1777878  48.2910461
  80.0615082  20.2584877  48.0961914  78.9653931  21.3004780  48.0346947
  47.1751175  41.6569061  52.3912697  46.6638565  42.4620667  52.3102570
  46.7914696  41.2041283  53.1422958  25.3136292  41.8043251  38.9003563
  25.8677769  41.1452789  39.3184547  24.8210297  41.3184013  38.2389488
   2.1417558  55.9596062  52.7124710   2.8425481  56.6113815  52.7300835
   1.8329492  55.9643669  51.8064651  78.5790100  35.8345337  23.9861660
  78.1534500  36.4293594  24.6036720  79.4437943  36.2183914  23.8411064
  18.1227951  29.5830326   9.0244350  18.4726620  29.1070614   8.2712555
  17.6340446  28.9244308   9.5179930  43.8954163  42.7594833  60.4268990
  44.7070274  43.1941490  60.6887779  43.9851456  41.8655396  60.7571144
  34.5063057  66.5988770  36.3045921  35.2799911  67.0163574  36.6832085
  34.7785606  65.6965103  36.1377258  68.2669830  15.1862116  56.7925339
  68.3299408  14.4040060  57.3406448  67.3267670  15.3189840  56.6717339
  10.8810282  28.6107178  26.3010178  11.6533146  28.2610435  25.8565712
  11.1297703  29.5013199  26.5483818  43.2894287  47.4216385  28.4533710
  43.0851669  47.9342461  29.2355118  42.8002434  46.6067085  28.5665951
  28.8730946  16.0584221   9.9823208  28.7947865  17.0107307  10.0389471
  28.1951084  15.7269182  10.5711098   5.0526438  11.0307102   3.8128393
   5.4835343  10.1972618   3.6232884   5.7648549  11.6147289   4.0734329
  51.3040390  41.8287392  10.2041187  51.1272125  40.8885765  10.1716270
  51.9830208  41.9217911  10.8723669  79.6848373   5.2347383  31.3662815
  80.0712662   6.0656991  31.6427021  80.3661346   4.5847712  31.5383492
  56.9426193  14.2591486  67.9004822  56.7241058  14.6849461  68.7294464
  56.1563416  14.3612423  67.3642197  50.0196228  13.9333267  42.4061203
  50.2403107  13.0911150  42.8038712  50.8467636  14.2514257  42.0443459
  30.2843914   9.0081987  81.4394913  29.6957035   8.3522530  81.0661087
  30.9964619   8.4985790  81.8261108  15.7013426  62.8939285  26.3912563
  15.8847456  63.8164368  26.5689507  15.7817907  62.4652863  27.2433281
  29.3838692  66.8554001  60.6830864  28.7987194  66.1081924  60.5585136
  30.2511539  66.4650269  60.7910767  39.3771591  32.3658829  26.1805458
  39.3764610  31.4430370  26.4346886  39.3148155  32.8423386  27.0083961
  42.3668060   6.4389277  43.2102356  41.5702362   6.4149671  43.7404594
  42.5872345   5.5184693  43.0674095  86.0711136  71.4378281  78.6437073
  86.9945297  71.4892044  78.8904800  85.7235184  70.7148285  79.1659012
  14.3298807  44.7957344   4.8724546  14.7227449  45.6155205   5.1721897
  14.3798170  44.2146378   5.6314440  50.8122559  57.1896362  13.4199409
  50.2609596  57.8880043  13.0669746  51.6284599  57.6276207  13.6612186
  53.4169197  43.2763405  32.7442856  52.9896088  43.5090561  31.9199791
  53.0821648  42.4033775  32.9494896  76.7445221  26.8574581  88.7966309
  76.7093353  26.4573593  89.6654892  75.9473877  27.3846741  88.7432556
  84.9603500  67.4666061  58.1992874  84.7285233  68.3690262  57.9799118
  84.2663727  67.1784134  58.7922249  25.4535675  29.9951706  75.6028595
  25.4170208  30.2767086  76.5169907  24.5486794  30.0568066  75.2968979
  13.3529301  67.5605927  74.3528137  13.4333076  67.1845856  73.4762421
  13.9433079  68.3140106  74.3453140  26.3393879  19.8460464  87.6666412
  26.4176216  18.9769382  87.2732391  25.9753876  20.3923817  86.9700394
  35.1256409  60.1864014  18.3531532  34.9934883  59.5951653  17.6120644
  34.4344559  59.9522514  18.9725628  50.6641922  32.4559517  29.5198479
  50.2566109  31.5902805  29.5467491  51.3080597  32.3957062  28.8141308
   4.7634773  18.6276608   6.4832816   5.2196779  19.4690685   6.4712706
   4.4144554  18.5571060   7.3717847  78.5298386  41.4970512  32.7630386
  77.8883209  41.9235687  33.3311691  79.2786636  41.3252983  33.3339996
  51.1145782  16.8733253  53.6355095  50.2289810  16.6836739  53.3257027
  51.5802460  17.1791801  52.8571548  82.5404892  10.5780172  50.8474808
  81.6954117  11.0105171  50.9700432  82.9656601  11.0764513  50.1496086
  44.8914490  16.6172428   3.5972047  45.7515411  16.3273258   3.2931938
  44.2837143  15.9594803   3.2592161  78.1891022  65.6846313  52.7834702
  77.7426376  65.1582031  52.1203156  77.7079239  66.5120010  52.7963486
  60.9433556  65.3949966  18.6132278  60.7779846  65.8584824  19.4342461
  61.8442383  65.6249008  18.3856602  12.8635921  52.3948822  86.9955673
  13.0470591  53.2644348  87.3511658  12.2183847  52.5495071  86.3056183
  43.7224007  60.0401306  71.7923355  44.1873131  60.8686676  71.6756287
  43.9119034  59.7842369  72.6950150  55.3230095  35.9153023  57.9330711
  55.0057793  35.3782082  58.6591034  54.5530434  36.4041176  57.6424789
  58.6573563  55.7777023  40.2582741  59.2055740  56.2821732  39.6572762
  58.6395950  56.2988396  41.0609779  58.6014442  15.4480810   4.9926867
  59.5329704  15.3177462   5.1701674  58.5695267  15.7371330   4.0807323
  58.2940903  52.3594093  30.8923244  57.4127693  52.6966705  31.0528183
  58.1845894  51.4090538  30.8596096  47.4575272   5.7406683  29.6836414
  48.1640282   5.1295443  29.4747982  47.3536415   5.6713996  30.6326637
  45.5242386  64.3092270  22.9474030  45.1469231  63.8904533  23.7210236
  46.3651657  64.6539536  23.2478065  85.7589035  31.8534718  50.6464920
  85.9850845  31.5818577  49.7569427  85.5200348  32.7764969  50.5616493
  37.2256088   0.9998860  65.4081192  36.4922256   0.4034756  65.2575531
  37.7914696   0.5332028  66.0231323  70.1084900  67.9158020  29.8982277
  69.7844086  67.9788666  28.9997692  70.2995148  68.8198929  30.1479492
   6.5098634  28.9455090  70.9389114   7.0235324  28.9072819  71.7457047
   6.4996500  29.8736897  70.7052307  83.0357590  12.9595032  14.0085783
  83.2456207  13.4998455  13.2468567  83.6140137  12.2007027  13.9305973
  22.0576534  53.3161774  46.1584435  22.2711811  52.6268692  45.5295601
  21.6834850  52.8505058  46.9063644   6.6044550  42.8120689  50.5913696
   6.8850026  42.7072220  49.6822319   5.7463107  43.2317047  50.5303345
  34.7402115  54.6070747  25.4472980  34.5687561  54.1217651  26.2543354
  35.6948738  54.6423111  25.3872280  43.6226692  55.3543320   1.6165857
  44.4295082  55.4285965   2.1262214  43.1236305  54.6664352   2.0570328
  19.7501678  40.0590324  21.0252304  18.9769630  40.1931038  21.5733280
  19.9122238  40.9139748  20.6264286  11.2890787  35.2492752  58.0142365
  10.9932709  35.6079216  58.8509560  10.5484123  34.7301826  57.7008858
  32.3691406  20.0095043  87.9392853  32.6441307  19.1083775  87.7702255
  31.5497475  19.9224873  88.4263763  74.7964249  14.2483692   4.3516359
  74.4388657  14.5867367   3.5307279  74.9203262  15.0251160   4.8971133
  38.6173134  29.8763809  13.9460659  39.1059494  30.4596500  13.3653193
  38.0811882  30.4633389  14.4792490  54.6975212  25.5898724  83.2654648
  55.5256958  26.0218830  83.0563660  54.0997925  25.8694344  82.5720673
  48.3571129  39.4985352  43.0587807  47.8978348  38.9641380  42.4109268
  47.8507347  39.3872757  43.8634109  35.7218971   6.9825897  76.9881973
  34.8500023   6.6434522  77.1907196  36.3207932   6.3908634  77.4436264
  18.4383183  56.1840858  11.5237217  19.2775955  56.5418663  11.2341690
  18.6693058  55.3856354  11.9984303  48.7073898  61.7193146  21.0395470
  48.6643715  60.7721291  20.9083118  49.3211250  62.0259666  20.3720684
  47.3342667  44.3099174  18.6151352  47.2419243  45.2626534  18.6153927
  48.2748833  44.1604767  18.5195255  27.6943893   7.1006761  23.6068821
  27.3267345   7.7651100  24.1896229  26.9759579   6.8770084  23.0152225
  64.7406769  63.6454849  27.8266087  65.6313858  63.5649986  27.4854488
  64.4646835  62.7437592  27.9907742  72.9930725  45.6206207  35.0784531
  73.9329910  45.5707970  34.9043770  72.7589417  46.5255508  34.8722534
  66.2693024  59.6007500  84.6498184  66.3895187  59.6323929  83.7007217
  66.8576126  60.2756500  84.9883957  80.2176971  57.6364517  62.5943336
  79.4157944  57.5671387  62.0762863  80.9226227  57.6278725  61.9468460
  23.5132294  13.0301332   4.7517943  24.4535484  13.1152296   4.5943460
  23.1309834  13.8079252   4.3453970  27.2384930  44.3582115  63.2925415
  27.8844852  44.5119743  62.6031342  27.2179394  43.4065819  63.3935776
  78.5256958  47.7697449  83.9589157  79.3287506  47.6833725  83.4452362
  78.4578400  46.9438515  84.4380035  85.0719681  60.2567444  22.1542912
  84.4233780  60.0742760  22.8341942  85.9151840  60.1785927  22.6005039
  29.8155384   0.4733350  37.1289406  30.1443005   1.2900294  36.7532349
  29.5270042   0.7137974  38.0093727   0.1668965  48.8550262  56.6637344
  -0.6063388  48.3008499  56.5577850   0.8861325  48.3332214  56.3078537
  36.4223289  69.2316742   5.8339319  37.2227478  69.1931992   5.3104072
  35.8086739  69.7328186   5.2967939  62.9736900  37.7116356  23.2292175
  62.0655823  37.9777336  23.3733158  63.4448586  38.0443573  23.9931049
  22.0744991  67.1204071  36.8143730  22.5612144  67.0403824  35.9940453
  22.2190571  68.0251846  37.0913506   9.6238375  56.8265419  39.4431801
   9.6164331  56.4600067  38.5589676   8.9248962  57.4805145  39.4372253
   3.9139566   8.2115402  75.5578918   4.7920675   8.5882568  75.5009842
   4.0631046   7.2764096  75.6975937  24.1180077  46.8653488  59.8008347
  24.2985554  47.2791176  60.6448898  24.7360325  46.1358681  59.7546234
  56.7281723   9.2768793  23.3119774  56.4187012   8.3718090  23.3481655
  57.5711365   9.2239456  22.8616028   0.9234386  63.3599472  43.5836639
   0.2859905  63.2211227  42.8832207   1.2053185  64.2681580  43.4744377
  48.3525581  71.1753006  26.7614441  47.4333534  71.0767365  26.5132942
  48.8190613  70.5516129  26.2050037  50.3923111  50.0872078   7.0439525
  50.0943336  49.5358925   6.3204255  51.3472672  50.0697975   6.9807949
  17.7872562  70.5939636  54.4528465  18.6202450  70.1988907  54.1953926
  17.1555233  70.2559052  53.8181267  36.3137589  26.4559155   1.9886382
  35.7379837  26.0083771   1.3686197  35.7205315  26.9608765   2.5448101
  15.2669029  51.0274315  70.2309189  15.6317759  51.8762894  70.4810028
  15.9614487  50.6085625  69.7226028   3.0899866   6.2242794   3.2728598
   3.3828688   5.9568348   2.4016967   2.3679676   6.8304744   3.1071856
  81.9195175  26.0302734   8.3664665  82.7026367  26.2616920   8.8658676
  82.1176910  25.1706429   7.9949884  28.8441734  32.3382492  13.2806320
  29.0599327  31.5984135  12.7129002  28.5832558  31.9362183  14.1091995
  24.3698769  45.8316917  31.9561443  23.8120251  46.5041847  31.5652676
  23.7662811  45.1272926  32.1922112   7.1650324  40.3528633  75.1982803
   8.0962362  40.5189590  75.0516357   7.1293306  39.4489441  75.5111389
  57.1968193  13.6724033  72.5429993  58.0102386  13.3292360  72.9128876
  56.6975632  13.9747896  73.3016434  49.6639977  69.8102570  65.2852020
  50.3456001  69.7749863  65.9563293  48.9967194  70.3904190  65.6517868
  44.4178505  23.2376118  85.7556915  43.4948158  22.9975185  85.8369141
  44.7807121  23.0931149  86.6295776  31.9025059  51.4071579  49.1200752
  32.3865280  52.1985588  49.3559532  31.0423908  51.7252655  48.8457756
  71.2263641  35.6479492  10.4199829  70.6046829  36.3568230  10.2549210
  72.0852890  36.0685387  10.3801622  12.6795988  10.7109795   7.5361176
  11.9865522  10.7101650   6.8758779  13.4922409  10.7051334   7.0303407
  52.3411522  68.3066559  55.0513878  51.7833405  67.9184799  55.7254791
  52.0940552  69.2313309  55.0392876  62.6735687  50.8826141  57.1228027
  62.7469826  51.8151245  57.3259468  63.0840836  50.7917709  56.2628860
  20.9765968  54.9240150  66.3639374  20.9248314  54.4701843  65.5227585
  20.7518272  54.2554436  67.0110245  73.7189255  37.0669556  41.8822632
  73.8244781  36.6519394  41.0261955  73.4332809  36.3580437  42.4585266
  41.8171425  68.2157745  62.1479263  42.1734619  67.3524857  61.9381714
  40.8758354  68.0699081  62.2422409  47.1305046  26.4847202  21.4247360
  46.4106750  26.8075008  20.8826218  46.7279091  26.3027725  22.2738781
  43.1120872   9.8109159  82.3038025  42.4312592  10.2254877  82.8337402
  42.9444656   8.8724566  82.3899918  44.7737846  37.3180656  46.9316063
  44.3869362  36.8076553  47.6429825  44.2363930  38.1087723  46.8844223
  56.9983521  20.7387428  67.7766953  57.8639946  21.0678005  68.0187988
  56.6293755  21.4232941  67.2185898  69.5292892   8.9995232  13.8646526
  69.2257004   8.6141720  13.0427227  70.1459732   8.3576727  14.2167263
  72.8014297  60.7619171  84.4031525  72.5444412  60.6631279  85.3199005
  72.0748672  60.3828354  83.9085464  31.3651180  14.2872829  32.8553429
  30.6693649  13.6527863  33.0273094  31.4908009  14.7372255  33.6907997
   0.9265809  58.4154816  89.1193085   0.7686484  59.3535347  89.0127945
   1.7901666  58.2724953  88.7320023  28.5195465  65.0019989   0.9074396
  28.1708145  64.8050461   0.0380564  27.8386211  65.5296707   1.3247385
  57.7301941  57.1408043  33.6673355  57.6961060  56.6170044  32.8668976
  58.4521027  56.7634048  34.1699791  31.7460785  51.6925583  62.5125542
  32.3730583  51.6405907  63.2339630  31.2985516  52.5284386  62.6439209
  67.3930206  47.7715683  83.1283722  68.1620712  47.4453926  83.5957108
  66.6488266  47.4227791  83.6190262  51.6990509  47.2162399  21.7567978
  51.9652252  48.1212502  21.5945015  52.3069153  46.9043579  22.4272175
  68.0161362  18.4239635  62.4817314  67.7391205  19.0134468  61.7803040
  67.2468185  17.8820553  62.6569862  41.2739449  36.4431419  85.4854660
  41.3934555  37.0301361  84.7388840  42.0722694  35.9153976  85.5054092
  29.1753654   9.3300934  21.2648983  28.2597618   9.2358274  21.0021877
  29.4410038  10.1774883  20.9077015  44.4763260  47.4944305  78.1829453
  45.3817215  47.1912384  78.1154022  43.9533234  46.6929665  78.1641998
  66.8719406  57.0025902  44.8316193  66.7125244  56.4103889  45.5665436
  66.9407654  56.4264412  44.0703392  61.1656113  31.2207794   2.5101652
  61.3928261  31.7035427   1.7154677  60.9873581  30.3305607   2.2068987
  41.3644676  42.6722336  63.8320351  40.7978439  42.8147888  64.5902252
  41.0337067  41.8670769  63.4338531  28.2659378  11.3422976  71.5186615
  27.3972683  11.1350527  71.1741409  28.4766712  12.1955585  71.1394958
  60.5836372  11.6377773  68.0542297  60.4303894  11.0934820  68.8265533
  60.7126122  12.5193071  68.4042282  13.0616989  23.0295677  54.9828033
  13.8111277  22.8437061  55.5485268  12.4053955  23.4044495  55.5701370
  58.8894196  65.9691391  44.5248032  59.6546211  65.8892746  43.9553108
  58.1948128  65.5031357  44.0594025  52.6942177  65.8662949  63.5204887
  52.2341652  66.5491333  63.0323067  51.9982185  65.3673935  63.9481659
  83.6680756   5.3006110  61.3656464  84.0378113   6.1352587  61.6535492
  84.2220001   4.6381178  61.7785568  31.9502125  28.0581779  69.3082504
  32.6204453  28.4779034  68.7689438  31.3572865  27.6489620  68.6780014
  52.9256287  52.2007217  42.3180084  53.6275673  52.6311722  42.8060951
  52.1215210  52.4917374  42.7480736  12.4185181  70.3740845  71.2896805
  12.6275482  70.0618591  70.4093094  11.5598936  69.9963303  71.4801941
  62.8991203  10.0844946  30.9201851  62.2733231  10.7854710  30.7378654
  62.3984985   9.4409180  31.4216003  17.8747597  62.0740547  11.5209208
  17.5560379  61.4068680  10.9130430  18.0636959  61.5932312  12.3267393
   2.9440317  17.4341621  15.1638794   2.2362921  16.9132137  15.5432854
   2.5315895  17.9091148  14.4423923  10.0719318  48.6778183  85.7901077
   9.9973850  47.8800240  86.3137512   9.9223309  49.3884583  86.4136810
  49.0393715  53.2130432  81.3715134  49.8004189  52.8049202  80.9586258
  48.3039017  52.9739532  80.8074570  57.7940331  30.3749371  73.5008545
  57.5737267  31.2630596  73.2198944  58.1648636  30.4857349  74.3763199
  81.2448120  52.4082375  25.3544960  80.9603958  51.5059052  25.2091141
  81.9408493  52.5464249  24.7120972  39.1112022  65.5280609  45.7232170
  38.4414673  66.2117386  45.7397041  38.7409554  64.8174057  46.2467766
  32.4660530   9.0500422  18.7984829  33.1516037   9.4180803  18.2409859
  32.7414284   9.2643480  19.6898155  33.7765617  44.7416611  63.6997490
  33.7931595  45.2012787  64.5392151  32.9124374  44.3311195  63.6685066
  33.7008133  48.3238144  41.1832542  33.7065163  48.9280357  40.4408836
  33.1985397  47.5697517  40.8744774  32.4758759  36.2390480  67.3521729
  32.1632423  36.1000977  68.2461472  33.2228432  36.8297615  67.4487610
   4.4512219  10.2216396   6.2570629   4.7285399  10.6454096   5.4448156
   5.1449175   9.5898886   6.4465585  68.9385223  21.2530384  17.1128216
  68.1364288  21.7046318  17.3753967  68.6554108  20.3620930  16.9071693
  85.4624176  66.1391602  40.6194611  86.3444214  66.4608917  40.8059769
  85.4442139  65.2588425  40.9948769  45.5697250  48.9367828  38.9736481
  45.9527588  48.1515846  39.3647728  46.2490654  49.2673912  38.3859177
  74.1536255  14.8314323  71.1518936  74.4686203  15.1174250  70.2944412
  74.5662460  15.4331160  71.7715302  45.1877937  50.6812820  22.4512005
  44.8262215  50.3712616  21.6209068  46.1347427  50.5834084  22.3514957
  73.9744186  18.2578850  48.0810928  74.5058670  18.7052326  48.7396355
  73.0879135  18.5899296  48.2228127   2.3806591   1.3414142   9.1747561
   1.4334722   1.3874270   9.0445576   2.6516521   2.2526646   9.2861900
  11.4120998  67.4303741  80.6429825  12.2784748  67.7176285  80.9312820
  11.5860014  66.6861954  80.0666275   7.5207973  32.2220955  65.3707809
   6.7808094  31.8739643  65.8682327   8.2838888  31.7664509  65.7261887
  58.3781700  27.5757523  71.6312714  57.4517212  27.4428940  71.8319702
  58.8073082  26.7786541  71.9422531  70.9736252  33.3983879  37.1203232
  70.2185822  33.9345474  37.3625717  71.0118637  33.4560013  36.1656227
  39.3477478  46.1369705  29.9156475  38.9010353  45.2912827  29.9542847
  39.0865593  46.5828400  30.7213860  13.5011787  42.4176140  42.4108887
  13.9331379  41.5861244  42.2152710  13.7262650  42.5954285  43.3240967
  15.0796757  59.3799362  70.7503967  15.4936438  59.6997681  69.9487915
  15.7726870  58.8983994  71.2021637  78.1256790  19.1214619  72.1947861
  77.8473663  19.9287243  72.6273346  79.0003357  18.9515934  72.5445633
   7.3097291  57.9735527   2.0661135   6.7559328  58.2981491   1.3560586
   6.8045993  58.1443481   2.8610375   1.5793418  38.6043091  80.4168167
   2.0372641  38.9707947  81.1732712   1.1207407  39.3501625  80.0300064
  15.2316799  55.6215248  27.3507137  15.5192547  56.4228630  27.7881927
  15.8986235  54.9729958  27.5761700  13.1766796  53.0771027  82.7201080
  12.7589970  53.7932281  83.1985855  12.4809046  52.4305763  82.6012344
   8.1122732   4.5096641  18.9621010   8.4450655   3.6253893  18.8086739
   7.1853275   4.3847713  19.1655846  52.4313583  66.6170578   7.4590383
  52.6765862  66.1884384   8.2790279  51.4763908  66.6723251   7.4939332
  69.1036224  57.8332520  17.9909077  68.1883011  57.8218689  18.2707176
  69.3603821  56.9112854  17.9739780  70.8802109  32.0319176  26.9395123
  71.4528198  31.4159889  27.3966541  70.0681534  31.5450020  26.7991371
  28.0866547   7.8305483  75.5896835  28.0643692   8.3903437  76.3658066
  28.9594460   7.9668393  75.2210464  46.4362984  23.3647251   8.7110758
  45.8551445  22.9834366   9.3691874  46.0684166  24.2317219   8.5401630
  25.7556152  67.9424133  25.0609932  26.1572723  68.6092300  24.5039768
  25.9935703  68.1994095  25.9518166  31.5969677  64.3341599  86.3569489
  32.2192345  64.3833160  87.0826187  31.7302704  63.4619713  85.9857941
  78.9652100  66.1463699  25.0891800  79.8570404  65.9555969  24.7985287
  79.0777206  66.7245102  25.8437157   5.1574821  63.3783646  82.1318054
   6.0217643  63.0573654  81.8744965   4.9369278  64.0312500  81.4674759
  50.8162155  32.6109734  73.3262558  51.4614677  32.8781242  72.6716461
  51.0989113  33.0438728  74.1318130   3.8146410  37.7863617  38.4136543
   3.2136493  38.0251274  37.7079430   4.5840220  37.4359703  37.9647598
  28.6224651  53.2096519   2.4367237  28.8716202  54.1291695   2.3437479
  27.9171219  53.0872002   1.8013262  81.4192276  53.1706276  37.9919128
  81.3708496  53.3771477  38.9253159  82.3565292  53.1036987  37.8096809
  38.3144531  44.0198288  31.7110271  38.0583878  44.6031227  32.4254723
  37.8922386  43.1863937  31.9192486  41.3419266  43.2016411  24.3726711
  40.6542664  42.7757568  23.8608341  41.3147621  44.1173286  24.0951710
  78.0837097  62.0914421  70.1995697  78.7312012  62.7778206  70.0387192
  77.2779007  62.4251595  69.8051758   9.7738829  55.1840782  21.7068748
   8.8820992  55.5271301  21.6497002  10.3159723  55.8561020  21.2936535
  30.5672512  27.5053177  20.9962006  29.8758278  27.8741093  21.5458908
  30.1730518  26.7246971  20.6070118  78.9207611   8.9832354  88.8663254
  79.0252457   8.0321550  88.8387375  78.1127319   9.1211843  89.3605881
  81.4074554  56.0172081  58.3745499  82.1330872  56.6274338  58.2429428
  80.6215668  56.5542870  58.2737465  50.1740952  42.0370636   2.1586614
  50.3804359  42.4786110   1.3348343  50.8863754  42.2848358   2.7481506
  68.5219269  67.6940460  27.4766140  67.8236160  67.7803955  26.8276596
  68.8569183  68.5837936  27.5877972  47.5018311  10.7041502  86.5156021
  47.8685379  11.4546843  86.9829941  47.2271957  10.1021423  87.2072601
  73.9201431  14.0200491  86.5467377  74.5685959  13.4830008  86.0914078
  73.7754288  13.5676250  87.3777618  66.7572784  17.0211697  49.0064735
  66.7282562  16.3411217  48.3334770  65.8409348  17.1613197  49.2450218
  81.8375015  66.5864716  70.9754333  82.2526398  65.7298203  71.0756149
  82.4441528  67.1970596  71.3942261  31.8705521  55.7812119  25.0404110
  32.7715645  55.5938339  24.7771626  31.7210674  55.2185097  25.8001823
  76.0028458  70.8662186  20.8324108  76.0868835  71.1396713  21.7458611
  75.4969101  71.5655365  20.4186230  84.9634476  22.4322319  49.6958656
  85.4400253  22.5302505  50.5201797  84.0418243  22.4088879  49.9533615
  52.5774956  17.4160614  26.1809368  51.8843918  17.5066051  26.8348789
  52.5986366  16.4799213  25.9823742  75.0558929  31.0610123  52.7167969
  74.4787674  30.7534904  52.0178070  75.4721603  31.8440838  52.3565826
  53.5589104  60.8491707  33.2638054  52.9511642  60.7875671  34.0007477
  53.6725693  59.9450150  32.9708595  82.1095200  22.6939945  47.4720306
  81.2814407  22.4812832  47.9024696  82.4447098  21.8506966  47.1675224
  83.7530212  46.8981781  85.2979279  83.5832367  46.3206749  84.5536880
  84.4886093  46.4901924  85.7547455  63.5841675  18.1913681  40.2275124
  63.7939262  18.3541698  41.1471481  64.2556381  18.6690502  39.7405014
  64.8250351   5.4086747   7.4831624  64.5530548   4.8549581   6.7512760
  64.0641479   5.4293056   8.0635548  80.2799225  63.0298042   9.5666151
  80.1653366  62.1122360   9.8139286  79.5844650  63.1949196   8.9299822
  20.8236122  66.5113831  25.1096210  20.4975319  66.7933502  25.9642544
  21.5270348  67.1279068  24.9063416  55.5711861  17.9410686  10.4113913
  55.3474274  17.0575027  10.7037535  56.3964577  18.1381531  10.8544636
  77.2616501  14.2564411  18.8180504  77.2941971  13.9327993  17.9178123
  76.7700577  13.5879803  19.2952595  19.5283566  29.6510944  81.5506821
  20.0174198  29.0323277  81.0083008  20.0958843  29.8088169  82.3051834
  49.3332710  53.1958351  71.3144989  49.5994873  53.7140274  70.5550003
  48.4319534  53.4684219  71.4864120  24.1144085   6.2003350  57.5880699
  23.3485985   6.3968501  58.1276474  24.5781803   5.5160217  58.0706253
  63.2792282  42.9228477  21.8309193  63.3147469  42.6909142  22.7589169
  62.3665428  42.7765656  21.5822430  51.8094749  31.6913013  86.9242935
  52.4149971  31.2301807  87.5047684  51.1933212  31.0175343  86.6368484
  62.6587296  21.9513397  78.2518005  63.5195808  21.8912373  77.8376083
  62.6310158  21.2089787  78.8554230  30.6132679   7.9800429  74.5942459
  30.8096924   8.2022696  73.6841507  31.3985138   8.2359438  75.0781174
  26.2981548  35.2274628  23.4466476  26.1441727  34.2910538  23.3214893
  27.2502861  35.3201370  23.4136295  16.8731308  63.0810280   5.9957051
  17.0637112  62.9342194   5.0692291  17.0681057  62.2434273   6.4159942
  74.4841766  60.4627495  88.8132324  75.4280624  60.4784775  88.9715652
  74.1055679  60.8937073  89.5794983  84.0910950  24.9530716  53.6679420
  83.9492340  24.0410309  53.4143867  84.4095078  25.3765411  52.8707466
  84.9027710   3.4581616  73.5805740  84.7700272   3.0233631  74.4229355
  85.2535019   4.3192291  73.8081360  32.7815781  46.7887650  49.9106064
  31.9586086  46.3045654  49.8434982  33.1756096  46.4794846  50.7262764
  68.8727951  10.1358376  55.3642120  69.7795029  10.1648445  55.0588150
  68.4734726   9.4256058  54.8618736  15.0667400  69.4573822  14.7846365
  14.3542948  69.7976761  15.3257961  15.7841005  70.0774689  14.9154863
  39.0132027  20.2378616   2.5223467  38.6265793  20.0225658   1.6735814
  38.6546631  21.0989361   2.7373598  32.1814537   0.8355118  76.8119125
  32.5329933   0.7783486  75.9234390  32.0281677  -0.0740192  77.0678177
  82.1904907  39.7849884  49.6237526  82.1690903  38.9543343  50.0989189
  81.7856064  40.4134026  50.2215805  23.3760376   0.0843096  80.3942719
  24.0093613   0.6929709  80.0139313  23.1534634  -0.5090412  79.6768951
  16.3888454  23.3137207  82.6620102  16.5387783  22.6478291  81.9909363
  15.6427813  23.8176441  82.3369217  22.5255184  69.4765472  37.7298126
  21.9078693  70.0243454  37.2453918  22.7110462  69.9724121  38.5272636
  56.2356758  40.8327904  55.4787445  57.0448685  40.3324890  55.3732338
  56.1777115  41.3646736  54.6850357  51.2536850  47.4875412   2.6203456
  52.1714287  47.2253761   2.5479090  50.8912010  46.9079781   3.2903767
  86.5105286  63.6462479  62.3401451  86.5135040  62.8462868  61.8145142
  86.1911011  64.3234634  61.7438393  44.1724243   2.0157316  -0.0303276
  44.5840340   2.8799098  -0.0326268  44.8739624   1.4169759   0.2257374
  53.4762154  64.5572205  48.9294510  53.5167847  63.6063118  49.0312157
  52.9423447  64.8543930  49.6662674  82.7326660  54.0038910  48.5781975
  82.0606689  54.6716118  48.4410744  82.6409683  53.7572556  49.4985199
  13.2428007  67.2079163  55.2555122  14.0286007  66.9064178  55.7114182
  13.3109140  66.8239822  54.3813362  71.2508698  21.5216217  22.6108265
  70.8031387  20.6884289  22.7576561  72.1793976  21.3174362  22.7221127
   4.5972567  29.2139606  27.5456085   5.5285668  29.3542042  27.7165623
   4.2103148  30.0880470  27.5954361   2.1967697  53.1360588  12.3398190
   1.4104970  53.6028976  12.6227846   2.9195673  53.7136688  12.5850945
  20.3639030  55.6440315  60.4880333  19.8993893  54.8073502  60.5086670
  20.1599503  56.0520287  61.3295631   3.7773948  53.6634254  79.2875443
   2.9244716  54.0882149  79.3786850   4.3877344  54.3833847  79.1282501
  60.7180672  21.7329330  52.4277534  59.8272667  21.4483833  52.2234497
  61.0784645  21.0260105  52.9631081  47.8764725  25.8882675   3.0075879
  47.4666138  25.9461384   2.1445143  48.3532906  26.7128582   3.1020780
  80.6503525  58.9303818  40.4012909  80.2215347  58.0771942  40.3347969
  81.5787964  58.7240372  40.5092010  24.0510750  34.5322266  64.7695999
  24.8078823  34.4424744  65.3487549  24.3930073  34.3382072  63.8968658
  77.6116028  42.3364487  42.5206642  78.4068832  41.8241730  42.6667366
  77.1905136  42.3751183  43.3793945   7.7548618  51.3922653  73.6114120
   8.5169191  51.4131584  74.1902542   7.0186663  51.6276855  74.1760559
  72.5231094  53.4822502   9.1025133  72.8538513  54.3529434   9.3232803
  71.9107666  53.6340714   8.3826437  12.1582594  31.5095081  31.3386192
  11.8223763  30.6255131  31.1904163  12.4501352  31.8026695  30.4754295
  24.8840313  65.6993179  50.7886848  24.5989780  65.2788696  51.5999794
  25.8324242  65.7865067  50.8845062  60.7036781  31.1853943   9.5961485
  59.8144455  31.2498970   9.2478113  61.2690048  31.3542576   8.8424101
  12.6230145  46.2536316  20.9096222  12.4832134  47.1552849  21.1989498
  11.8269815  46.0307999  20.4270153  12.2217293  36.8571167  21.2469635
  12.7765493  37.4609108  20.7531624  12.5830412  36.8702469  22.1332550
  22.1970444  32.1080627  11.8905926  22.4163418  31.6349030  12.6932507
  22.4931164  31.5329323  11.1850424  43.4046936  12.0205040  77.4124680
  43.0491867  11.7959585  78.2723694  44.1049271  12.6459866  77.5986786
  67.0091095   8.2180271  40.6406174  67.6398087   8.0389891  41.3380432
  67.2539673   7.6177702  39.9363670  29.9148502  65.0913467  68.2874451
  30.1259861  66.0130920  68.1389999  30.7246361  64.6240692  68.0821838
  72.0310669  65.2552795   6.9618130  72.0923615  65.6975327   6.1151209
  71.7172165  65.9309616   7.5627961  45.3259621  54.5236206  69.0084305
  45.5952682  54.0472260  68.2230988  44.3825150  54.3733368  69.0680008
   4.3787041  14.9912453   7.7472496   5.1327276  14.6899834   7.2403755
   3.6648071  15.0356684   7.1111608   5.1402650  37.9649048   6.9156413
   5.8522182  38.0333023   6.2794995   5.5743985  37.7351036   7.7371960
  59.4320297  26.5774841  49.5238304  59.7237320  25.8530025  50.0772438
  60.0643768  27.2763271  49.6911240  49.0742149  28.2786312  15.8553724
  48.4884529  28.2737141  16.6124001  49.7000580  27.5762978  16.0322266
   9.7485046  41.6108360  71.0844421  10.6729622  41.3807945  70.9912109
   9.6779051  41.9643822  71.9711533  27.7962742  42.4660568  18.5332241
  28.3564034  41.8749428  18.0301609  27.3482304  42.9926796  17.8712902
  30.8779182   0.4318519  19.2493515  31.5651073   1.0596979  19.0261688
  30.2766571   0.9236258  19.8087063  51.8006592  63.4064407  33.0709534
  51.7405090  62.6965981  33.7102737  51.6013756  62.9907608  32.2320671
  81.6313324  46.9482460   5.8190489  80.7810745  46.8760910   6.2527270
  81.8249207  46.0591354   5.5220060  33.3011169  32.2126923   1.6596276
  33.0935211  31.2851715   1.5463117  33.9038200  32.4124832   0.9433433
  14.1023912  52.2287483  51.0853310  13.9020405  52.1802711  52.0200729
  14.6129198  53.0329437  50.9911957  74.9336319  36.8469162  76.3516464
  74.9019623  36.1212463  76.9750519  75.6266708  36.6048813  75.7373581
  59.3017197  69.3853531   4.4175992  58.5921707  68.9438019   4.8842969
  58.9042892  70.1891251   4.0825887  66.5997543  36.3725204  36.3653717
  65.8653870  36.3791275  36.9792900  66.7361908  37.2940102  36.1452141
  86.5676575   9.4739580  63.1041527  86.4607697   9.3545179  64.0478363
  87.4844284   9.7275524  62.9971428  65.3909683  68.0388794  28.6555653
  64.4992294  68.3095932  28.4370480  65.6403046  67.4430771  27.9491062
  53.6063919  36.7698975  42.6520119  54.4675713  37.0838089  42.3762207
  53.7857475  35.9467354  43.1064034  69.5571060  16.4037323  76.4922485
  68.6461029  16.3145065  76.2123260  70.0633087  16.3473015  75.6818085
  81.8671646  44.8410110  63.7939377  81.1405869  45.1745529  63.2675705
  81.4460068  44.3542900  64.5024261  74.5466843  66.6195450  24.5132256
  73.6558304  66.7608261  24.1928368  74.4371948  66.0762405  25.2936497
  62.2451363  50.1333237   0.8100389  61.3213005  50.1395760   0.5596048
  62.2784958  49.5774345   1.5885663  28.4644699  46.0895729   9.8919582
  29.0422382  45.8193207   9.1782513  28.9861946  46.7104492  10.4004345
  80.4534073  32.3595581  83.7377701  80.0634537  33.2333450  83.7635574
  80.9124374  32.2773705  84.5737000  53.0070305  46.7137756  74.1670914
  52.2368126  46.9886856  73.6696777  52.9284935  47.1728630  75.0033340
   2.3951244  35.0812950  48.6684837   3.2754400  34.8366547  48.3831291
   2.5269859  35.5017700  49.5182190  70.2972870  38.3069611  72.8056259
  70.7863770  37.9243240  72.0771942  69.6367798  37.6489868  73.0224991
  36.8648453   4.5397620  37.8864670  37.5247917   4.6293244  38.5739861
  37.0715714   5.2367249  37.2637787  17.5657711  36.3122635  85.6973801
  17.9395618  36.7496414  86.4623718  16.7188206  36.7389450  85.5675735
   3.2685366   1.6759256  40.2189140   3.5825915   1.8220087  41.1112518
   3.9642968   1.1692528  39.8000679  66.1968307  26.0540485  61.4091225
  65.4196701  26.5881348  61.5734444  66.9176483  26.5570717  61.7881012
  58.9948883  45.7808952  22.9442348  59.0050011  44.9997711  23.4973850
  59.9190483  45.9858894  22.8023510  10.1961432  63.6529312   1.5170807
   9.8077221  62.9140282   1.0486932  11.0651693  63.3440208   1.7732059
  36.2583694  68.2379532  37.5362892  35.6722031  68.9603348  37.7616844
  36.6635704  67.9900818  38.3673172  31.6578407  31.7005482  16.7485123
  31.5440559  31.0427971  16.0624733  32.6026306  31.8504124  16.7823086
  71.9181213  25.0786915  83.5909348  72.7852402  24.7078800  83.7547302
  71.9479218  25.9455147  83.9958572  23.5133629  18.3681870   2.2687564
  23.7925739  17.7582321   1.5859486  22.5935268  18.5443497   2.0710158
  83.3931580  21.4138527  77.6634750  83.0913162  21.9347267  78.4076614
  83.3367691  20.5077229  77.9667587  75.6846390  46.0769615  31.7495155
  76.5002594  46.4821701  31.4548893  75.6210327  45.2689552  31.2402878
  84.8330765  18.2364006  39.0527191  84.7921600  19.0014763  38.4789429
  84.3436508  17.5597439  38.5849304  61.8580971  66.6100235   5.6111126
  61.9135895  66.4982300   6.5601416  62.5241318  66.0184250   5.2609081
   4.2051263  61.5684700  66.1055222   5.1581993  61.5530128  66.1929626
   4.0486808  61.9985352  65.2648087  46.6673622  28.1735744  13.4425097
  47.5685730  27.8856239  13.2971296  46.6601601  28.4913578  14.3453913
  83.1223907  69.2962494  87.8600540  82.2867966  69.0424423  87.4681320
  83.3624725  70.1056442  87.4089813  62.8938179  15.6016560   9.1173439
  61.9944649  15.4123192   8.8498669  63.1610374  16.3318558   8.5591011
  67.9897614  60.1846466  49.7021217  67.6286774  59.3453979  49.4166183
  68.8796387  59.9777908  49.9877167  11.3895197  57.0307617  44.4515457
  11.4979506  56.1749115  44.0368309  10.7300129  56.8862877  45.1300812
  56.8578300  50.5698357  43.0166092  57.0657539  49.6781273  43.2956314
  57.6087685  50.8360291  42.4860764  42.5385323  42.1013031  37.0094872
  43.1417542  42.1200447  36.2665176  41.9733086  41.3475952  36.8401375
  53.3559189  19.1863308  20.9648552  52.5426216  19.6110058  20.6920338
  53.6993790  19.7497272  21.6582909  24.0743389  15.1040602  75.5516434
  24.2150192  15.5871372  76.3659363  23.1225910  15.0666618  75.4567108
  31.9030933  49.3904800  87.9291382  31.5656300  49.0396042  88.7532959
  32.0809631  48.6167603  87.3943939  16.7501717  66.9732056  64.4464035
  16.0248680  66.4031219  64.1911087  16.3378735  67.6732788  64.9524994
  62.9856720  41.2749367  35.0154648  63.3554306  42.1214447  34.7645988
  62.2728043  41.1310501  34.3930893  13.3303890  20.4187298   4.9936681
  14.2198124  20.6936932   4.7710671  13.2301407  19.5662556   4.5700269
  66.3513107  47.1633720  56.7625351  65.5394363  46.9591370  57.2266235
  66.6490097  47.9858551  57.1512871  11.1237497  54.3847466   7.4369273
  10.2519417  54.4011497   7.8317866  10.9739437  54.6009560   6.5165777
  38.5411873  54.6535950  16.6448517  38.4795074  55.0725479  15.7864180
  38.1130486  53.8053932  16.5287228  60.3831902  46.5794754  35.3724213
  59.4593353  46.7364731  35.1772957  60.6856308  47.3951530  35.7717094
  62.6000557   8.5233431   4.4459195  62.7630539   9.3930950   4.8108792
  61.8036613   8.2247391   4.8850389   6.7821703  61.7439003  13.0797720
   6.4375672  61.5405045  13.9493189   7.0838189  62.6497917  13.1475573
  23.2360020  24.7133255  72.5104523  24.0532436  25.0307178  72.8946533
  22.5491714  25.1196480  73.0390320  59.0684586  71.6707382  47.1360207
  58.5453072  71.8036499  47.9265137  58.5243492  71.1134415  46.5796051
  76.4048843  30.0755215  84.0895767  76.0934296  29.7270031  84.9248962
  77.3587265  30.0729771  84.1697006   7.3781805  42.2724266  33.2946854
   6.9934192  41.4351578  33.0355072   6.7784190  42.9305801  32.9434700
  48.9978409  64.5309296   4.0843029  48.1216316  64.7937317   4.3661313
  48.9242516  64.4310455   3.1351774   1.2937649  28.7642384  73.7086716
   1.8307439  28.4201012  72.9949112   0.3958743  28.7070560  73.3819427
  15.7652187  53.5136452  66.6386566  15.8184719  53.9133644  65.7705460
  15.4099474  52.6393852  66.4784088  45.0245209  61.7704468  31.3568325
  44.5029640  61.1423264  31.8565083  45.6251297  61.2291489  30.8444862
  75.4063568  49.2043953  46.4406509  74.5254059  48.8472061  46.5527916
  75.9014282  48.8583603  47.1832085  36.0889053  46.9183884  83.5790634
  36.4177513  47.7651596  83.8808441  35.9486427  47.0369110  82.6396484
  29.1481743  27.2350483  66.7878799  28.8069839  26.3592911  66.9691849
  29.6711330  27.1285877  65.9932709  63.2040024  59.2962532  52.7138290
  63.4975090  59.4588318  51.8173637  63.2831230  60.1449394  53.1493835
  43.9087639  56.8011894  33.0194893  44.6951790  56.7498169  33.5627632
  43.9961395  56.0747604  32.4023209  84.1783142  54.3306808  27.0479832
  83.3950882  53.7873993  27.1353531  84.4731445  54.4723015  27.9475670
  43.8549461  50.0350838  20.2423344  44.0168266  50.6475983  19.5248013
  42.9204445  50.1259346  20.4285717  86.1339722  39.7600174  30.4434128
  86.0586700  40.6038666  30.8889256  86.7235489  39.2484512  30.9974308
  83.7517090   5.0085745  56.6328163  83.4303741   4.1170425  56.4981079
  84.0134735   5.0323086  57.5532227  69.9662857  32.3649139  82.7177048
  69.5866089  32.5161400  81.8521347  70.5621109  33.1022758  82.8500443
  53.8541489  52.2199097  69.4220047  53.0940666  51.9986191  68.8839188
  53.8739624  53.1768951  69.4265137  42.6057892  65.4275055  47.2967720
  41.8250694  65.9783020  47.3544998  42.9194603  65.5497818  46.4007339
  25.3139400  55.2957687  40.8431396  24.8103828  55.9767914  40.3971901
  25.6202316  54.7244339  40.1388702  13.4643421  67.3707352   7.8123837
  13.3308992  66.5821609   7.2864695  14.3826742  67.3282394   8.0790138
  78.3274536  14.2503347  79.1781311  79.1040039  13.7524986  78.9224777
  78.5415573  14.6008177  80.0427399  12.5229626  -0.0853873  66.8544617
  13.0318861   0.5557821  66.3583527  11.6116743   0.1714760  66.7137299
  78.9123688  33.6777802  68.9953613  78.1896210  34.1017494  69.4580917
  79.1610107  32.9453964  69.5593033  60.3519707  64.3744507  31.5178471
  60.9958839  63.7195549  31.2481747  60.8409500  64.9725952  32.0829659
  44.9068680  32.5466423  65.9792862  44.1386566  32.3518677  66.5160828
  45.2422218  33.3711739  66.3312988  30.8487854  40.3060875  28.2268467
  30.6128139  41.2198868  28.3866119  31.7736607  40.2519608  28.4674835
  51.9530525  66.4575424  22.9094887  52.3498116  65.7377167  23.4000626
  51.4156990  66.0267944  22.2447033  80.3686829  42.4525108  60.2068977
  81.2647171  42.6730194  60.4613037  80.1567230  43.0757942  59.5120430
  67.2433853  21.6196003  48.3002586  67.6518173  21.8482075  49.1352196
  67.6279907  20.7741108  48.0690422  57.7661285  47.6251068  69.7171860
  56.8755074  47.3071899  69.8653564  57.8454247  47.6802521  68.7648697
  33.9067345  55.2149811  65.5988388  33.3318748  55.2182541  64.8334885
  33.3912506  55.6350136  66.2873688  30.7230034  61.7825775  41.1679535
  29.8208923  61.4645195  41.1323280  30.7215061  62.5687943  40.6219788
  86.0769348  71.5415344  72.0014267  86.6143494  72.1696854  71.5188828
  86.6467896  70.7820435  72.1225281  59.6360817  13.2709789  73.2785721
  60.4428329  13.5741329  73.6950836  59.6084824  12.3324537  73.4646912
   6.2150569   9.5033607  80.6939774   6.8517437  10.1968021  80.8671875
   5.7426286   9.8007326  79.9164124  84.3848419  40.0725250  16.4674358
  83.6720505  39.5899086  16.0488129  84.6264801  40.7440147  15.8295107
  24.4123287  45.5583649  20.7266521  25.1113968  45.3223572  21.3364353
  24.8478889  45.6242371  19.8768406  42.4153557  12.0110302  18.0155735
  42.2297020  12.8004026  18.5241547  41.6356354  11.8856974  17.4746857
  15.7062578   0.5489125  86.4997330  14.7792988   0.5580668  86.7382584
  15.7556038  -0.0482375  85.7532730  68.6823959  28.9194202  88.1114044
  68.2642899  29.7173233  87.7877197  67.9537201  28.3344593  88.3189621
  38.1376457  61.7768478  65.3032837  38.9504890  61.3083687  65.4931412
  38.2904968  62.1863136  64.4516907  38.7549057   9.4999266  69.4868546
  38.2999458   9.1357260  68.7275085  39.1264534  10.3236246  69.1710968
  78.8654709   9.3373528  11.1194773  78.9862900   9.1395874  12.0481987
  79.5949707   9.9173851  10.9012356  21.9772625  45.5836487  74.2833099
  21.7560596  45.5619011  75.2143478  22.2609062  46.4841309  74.1254883
  84.5612946  49.0982628  43.4586563  84.0104675  48.5467148  42.9031296
  85.4565048  48.8858032  43.1946487  56.8711853  50.4479141  78.6036072
  55.9244843  50.4576454  78.7446442  57.2444191  50.4271126  79.4847946
  52.3625336  51.3244972  88.9762955  51.5645599  50.8192558  88.8207169
  52.0520859  52.2091522  89.1692734  35.7615051  48.3316879  52.1975441
  35.7461319  49.1065063  51.6357155  34.8968773  48.3162193  52.6079254
  77.2448883  22.7371197   2.3439226  76.3537292  22.4157429   2.4809778
  77.7244644  21.9786186   2.0108821  54.1234398  54.3427162  31.6832504
  54.4808464  53.4986839  31.4073868  53.3605804  54.4752464  31.1204758
  43.1089363  67.1624298  76.3135681  43.2998734  67.3987198  77.2212753
  43.8436928  67.5182571  75.8138123  18.1057644  24.4842682  24.0504475
  19.0243874  24.5550766  23.7909260  18.0480442  24.9827824  24.8655453
  29.8381519  55.2205162  70.1022415  29.5430984  56.1194115  70.2477036
  30.4541378  55.0522690  70.8153229  77.0690536  24.5478954  41.6316414
  76.4075012  25.2377872  41.5803757  77.7757874  24.8509254  41.0616074
  54.3315582   7.5695448  26.1938343  54.6151199   8.4036112  26.5682087
  54.6342888   7.5991268  25.2862492   2.4217017  69.0735779   8.5384035
   1.7628900  69.6900635   8.2188005   2.7205000  68.6141586   7.7536221
  64.4479141  21.5435791  48.3680763  65.3889694  21.7019043  48.2934113
  64.3207626  21.2812595  49.2798080  13.2166967  34.4217606  61.9277420
  13.5083847  33.9288368  62.6946716  12.4253016  33.9678650  61.6380768
  12.3192930  39.4719925  51.5791473  11.6167965  39.3121033  52.2093582
  13.1242752  39.3721390  52.0873451  44.3153305  68.7891083  84.4142685
  44.5795250  69.4499969  83.7742157  45.1376495  68.4870529  84.7999954
  20.5375118  29.1631794  17.8485451  21.3605881  29.5371094  17.5339813
  20.4675751  28.3228893  17.3954926  41.1034164  62.2387810  53.2044868
  41.3285599  61.3214340  53.0495110  40.2850800  62.3688126  52.7252693
  46.7387733  38.3495255   1.0771765  47.0064430  39.0363121   1.6878392
  46.0447006  38.7510376   0.5544122  73.2876434  55.9576111  32.6074257
  72.5521393  56.5279541  32.3838806  73.5531769  55.5710144  31.7730007
  79.7177048   8.3728361  50.0893326  79.5455627   8.5297976  49.1609116
  79.1413422   8.9851294  50.5466499  82.1892624  50.7468376  42.9395676
  82.0862198  49.8230286  43.1680107  81.3768005  50.9737663  42.4872017
  53.0612259  15.1656685  55.2816429  53.0278282  15.2895412  56.2302094
  52.5130463  15.8667021  54.9291039  47.1601257  15.8015108  46.2279778
  46.8522377  16.2105389  47.0367622  47.1125183  14.8614330  46.4018173
  65.1748886  15.1062717  39.0875778  64.9895554  15.3046741  40.0054665
  64.7904434  14.2409754  38.9472198  68.4765701  20.0903587  20.8040619
  68.2091446  19.5137596  20.0883484  69.3010483  20.4749489  20.5064850
  64.4705124  64.2330399  12.5307188  63.7070465  63.6682320  12.6505060
  65.0617447  63.7224503  11.9775772  30.7137928  48.3852348  42.5305099
  31.1406765  47.5673447  42.2754440  30.0334435  48.1177444  43.1484146
  29.4896755   4.8431511  24.6047516  29.5315113   5.5000196  25.2997379
  28.8522530   5.1932330  23.9823647  83.4391556  38.4284630  62.4359894
  83.4911880  38.0572205  61.5552483  83.6959381  39.3439407  62.3255806
  76.8707352  28.3579559  39.1369476  76.4324341  29.0982685  38.7173500
  77.7985611  28.4854984  38.9391785  58.3614502  70.5344772  74.5392380
  58.8443108  70.8657227  75.2964325  57.4854164  70.9090958  74.6312180
  66.1060181   5.4754272  80.5350189  66.4479065   5.8891411  79.7424393
  66.7920380   5.6078110  81.1893082  21.3933468  37.3449783   7.0187063
  20.8688793  37.7163429   6.3093014  21.9278431  36.6733246   6.5951219
  67.8415222   5.1423383  56.4998970  67.5998077   4.4801826  57.1474724
  68.7714386   4.9871697  56.3343086  74.8255768  19.7933311  34.1260338
  75.6205750  19.3372021  33.8500633  74.5931931  20.3435001  33.3780060
  56.6144981  39.6661530  31.6823711  56.5104523  39.7131615  32.6327400
  55.7731781  39.3377228  31.3652763  50.3577347  50.5255508  76.4646759
  49.9394798  51.0432816  75.7767410  51.1627350  51.0021858  76.6672134
  84.4834595  32.2432213  37.7885742  84.8481827  32.6105118  36.9834023
  85.2419891  31.8980503  38.2594490  12.4587870  61.9091682  83.8740234
  11.8510885  61.2398872  83.5593796  13.1756372  61.8989868  83.2397842
   3.5529351  32.3770142   0.1044885   4.2993979  32.8687668  -0.2378635
   3.5182574  32.6094360   1.0323938  29.6007366  68.7019958  56.1183434
  30.3466949  68.4002686  56.6367455  28.8372135  68.5088730  56.6623688
  50.8813324  34.2423134  85.9774399  51.0655670  34.8679161  86.6780930
  51.2514763  33.4167709  86.2900162  60.0103188  17.7689342   6.8479452
  60.8545456  18.1930332   7.0017414  60.1269379  17.2947559   6.0246677
  18.4747410  44.0769157  58.2640495  19.2096615  43.4828148  58.1118393
  18.8841076  44.9046135  58.5161781  84.8506012  23.6302891  10.9960823
  84.9404373  22.8117008  10.5081539  84.1572647  24.1065578  10.5392599
  75.8800201  32.1818466  18.1155682  75.1375122  32.5373459  17.6271687
  76.5556717  32.0378723  17.4530010  82.3509750  68.2619553  74.7240982
  81.6007004  67.7137451  74.4943542  82.6945953  68.5624695  73.8827591
  45.8630180  40.9865150  16.4561901  46.5979271  40.3745613  16.4968700
  45.7990723  41.3432541  17.3421249  81.5891876  53.8375969  40.6103134
  81.0211792  53.3149109  41.1763458  82.1566238  54.3150139  41.2155571
  33.2595139  15.6202345  82.8857117  33.0562096  14.8041315  83.3427429
  33.3322525  15.3676033  81.9653244  62.5017090  44.6373062  79.6713943
  62.2431679  45.4748497  79.2868042  62.4157104  44.0081444  78.9551620
  69.2727051   7.9572215  77.8262939  69.1407776   8.8702831  77.5710602
  69.7874069   7.5809274  77.1123428  16.9726505  26.6837234  13.0650043
  16.1280060  26.6486778  12.6160278  17.3378582  25.8055325  12.9571323
  82.2947769  13.9016933  32.3629379  82.0193710  14.1983871  31.4955502
  82.5675659  14.7007008  32.8139420  11.6713610  23.1140156  76.9158936
  12.0862064  23.9429626  76.6771851  12.2310066  22.4442215  76.5229492
  23.8052025  48.0969162   4.1157861  23.9948883  48.0886230   3.1776059
  23.4999981  47.2099037   4.3062873   0.3979819  13.0248442  27.7633801
  -0.5537577  12.9229403  27.7571354   0.6123240  13.2168150  28.6763058
   2.6637998  68.1722488   5.7913275   1.8045758  68.5933609   5.8163514
   2.6021183  67.5447845   5.0711083  63.7326469  49.1509209  27.0235920
  63.9774208  49.3971863  26.1315880  64.2070389  48.3354988  27.1856651
   2.0716057  45.0282249  67.8553391   1.7875738  45.8741112  67.5088730
   2.6329761  45.2499809  68.5982513  62.7362404  38.5347748   6.9284849
  62.5299530  39.4406052   6.6979456  62.2027588  38.0085983   6.3328600
  17.5919361   5.7993941  86.9200439  16.7926369   5.9815722  87.4141693
  17.3705101   6.0220284  86.0158081  10.4313059  56.8966599  73.2505035
   9.8783617  57.5504150  72.8226166  11.3148575  57.0869865  72.9353104
  74.0164795  29.0089989  67.6762619  74.2717896  28.1592102  67.3172302
  74.7372665  29.2493839  68.2584229  82.4276276  41.3612061  23.7266026
  82.2790985  41.0802650  24.6295109  82.6866913  40.5626259  23.2668266
  70.7492065  14.4714289  89.0362091  70.5090790  13.7860441  88.4126587
  71.2033234  14.0071115  89.7393570  73.1430588  48.9037094  18.5709152
  73.9279709  48.9413376  19.1174850  73.4258652  49.2435684  17.7219448
  19.1851044  59.1014748  64.0824509  18.4693184  59.4543343  64.6110077
  19.7414570  58.6401901  64.7100830  22.0889339  31.6345100  78.8055344
  21.2485199  31.9031219  79.1767349  21.8648224  31.2524109  77.9570084
  46.4541206  59.2391548  59.2922363  45.7663841  59.4840660  58.6731491
  46.9486465  60.0466003  59.4326172   4.0085654  28.5265293  16.0243549
   3.8502867  29.2279930  15.3925867   4.1341867  28.9791794  16.8583565
  79.7280579  11.3335114  52.5087090  79.7158585  11.3729277  51.5523987
  80.3061218  10.5978069  52.7107468  59.1616173  24.6620617  35.2935104
  59.2273560  24.3841648  36.2071190  58.3006287  25.0755005  35.2302818
  27.9740257  19.6543350  74.7724838  28.5856590  18.9642448  75.0292206
  28.5252666  20.3253155  74.3698044  18.8741188   2.3599827  72.7268524
  18.0323181   2.7056112  72.4299622  19.2025452   1.8566324  71.9818649
  73.5251617  51.4589882  23.7232914  72.8257523  51.9916878  24.1018333
  74.2389221  52.0771980  23.5664463  41.8675117  67.5442886  86.5275497
  41.7055626  66.6154099  86.3626633  41.5651817  67.9847946  85.7333298
  31.7692127  46.5593719  58.6783905  32.4121170  46.0240936  58.2132187
  32.2470665  46.9073639  59.4312439  65.9698639   1.5303853  20.9678860
  65.9552841   2.1684115  20.2544842  65.3250427   0.8707010  20.7124386
  47.7783699  41.0372238  35.0661926  47.9288635  41.8095856  34.5211792
  47.6450729  41.3877983  35.9468498  41.0181389  64.1021652   7.8905396
  41.5263367  64.8138733   8.2796955  41.6032753  63.7197914   7.2365966
   9.2442684  10.6842480   4.0924683   9.7393913  11.3878384   3.6728897
   9.4555054   9.9040174   3.5797784  85.7711868  11.7013302  35.4133034
  84.9658203  12.0218000  35.8194122  86.1821442  12.4839802  35.0461464
  57.4893112  59.8288536  18.8270550  57.4061127  60.7577744  18.6116123
  57.4424019  59.7994804  19.7826538   5.2447691  37.0099716  14.0492516
   5.8954577  36.3546524  13.7974691   4.5855813  36.9715385  13.3562670
  60.4664268   0.7625063  88.2776871  59.8127098   0.1119553  88.0214310
  61.3068504   0.3426427  88.0942917  83.4319992  54.8057442  69.9451828
  83.1596069  53.9589081  69.5917740  83.9535370  54.5864830  70.7173004
  26.9654293  46.5132179  87.4752426  26.0458622  46.7086334  87.6553650
  27.1653194  45.7637215  88.0360718  44.5348969   3.2631845   9.8156252
  45.4866829   3.1983557   9.8939362  44.3933868   3.9916134   9.2109785
  35.5151672  13.5705414   8.2890472  34.6608467  13.5675306   7.8573542
  35.8331871  14.4672956   8.1845083  61.9740486  29.5345898  15.5021439
  62.4600410  30.3441410  15.6592045  61.8752556  29.1423893  16.3696976
  46.2034836   9.4064074  22.8141441  46.9972076   9.2967825  22.2904854
  46.1000481   8.5711231  23.2700291  84.6928482  41.3843346  45.8282013
  84.1827087  40.7150650  46.2843513  84.1095123  42.1420135  45.7849045
  72.6781006  20.8280163  75.1066742  73.2771378  20.0849094  75.0346985
  71.8056335  20.4344807  75.0936508  10.0798197  49.8437767   9.7080736
  10.0146379  48.9199104   9.4663086  10.2039499  50.3008499   8.8762627
  85.6729965  68.8503265  82.5900574  86.3258133  68.1662216  82.7386093
  85.9286346  69.2487335  81.7580948  38.4346581  31.1466579  10.5952101
  38.6861267  31.4907436   9.7381220  37.7833290  30.4726467  10.4010105
  36.9419289  34.0795784  77.6106186  37.3603401  33.4982033  78.2455750
  36.0764999  34.2547188  77.9802017  13.2542171  46.6110954  10.8054104
  14.0146399  46.5359764  11.3819046  12.5032597  46.6161346  11.3989334
  31.4423923   1.0238434  11.0600033  31.1503372   1.8070072  11.5264683
  31.0089531   1.0768127  10.2082071  84.0886078  36.0735703  77.2456055
  84.1764450  37.0223770  77.1545792  83.1546707  35.9062653  77.1190872
  31.7374058  12.5581808  17.8078785  32.5758476  12.5105610  17.3485565
  31.1297054  12.9159412  17.1606216   0.8674872  44.3502579  25.8034954
   0.2858306  43.6152267  25.9974899   1.7431681  44.0238609  26.0105648
   0.6799613   5.5981512  23.9886131   0.2868727   5.8096900  23.1418762
   1.5307899   6.0364499  23.9738827  65.8311539  68.9081726  43.3501472
  66.4087372  69.0929947  42.6095581  64.9526901  68.8911743  42.9703560
  49.9470482  56.1423492  39.3436623  50.0566406  55.6263809  38.5449142
  49.6777687  57.0074463  39.0349159  50.6947556   2.1026239   2.2344625
  50.7240105   3.0020444   2.5606816  50.5236931   1.5712633   3.0120389
  28.8687515  49.0911751  20.5401478  29.4801254  49.6521416  20.0628929
  29.2123852  49.0677872  21.4332314  81.2743607  17.7011166  49.3618431
  81.9781265  18.2295799  49.7382278  81.3565140  17.8307915  48.4170341
  70.9128647  66.5087204  15.8730097  71.2345047  66.5734406  14.9737940
  70.3352737  65.7454529  15.8664312  46.9804153  58.9772377  35.7412148
  46.9913483  59.3655128  34.8663712  46.3304024  59.4892616  36.2224007
  77.4955063  22.7360382  81.9640427  78.3758240  22.9545918  82.2698364
  77.1339798  22.1788692  82.6533127  64.2769165  39.4591179  41.2640648
  64.9045563  39.1421547  40.6145782  64.7947998  40.0151901  41.8461418
  81.6098099  52.4064674  74.7933731  81.7346573  52.4202042  73.8444443
  82.1516418  51.6776009  75.0957031  77.0921402  26.8019733  33.0647240
  77.0809479  27.5927868  32.5255394  78.0212555  26.5982914  33.1719055
  15.2464170  36.9816666  66.4191589  14.3411684  36.9953880  66.1084061
  15.4202023  36.0599174  66.6099701  24.9148769  24.1880779  49.0249977
  24.7289467  25.1089230  49.2085838  25.1199951  23.8100414  49.8801270
  44.6256485  28.2276249  28.8910904  44.9912834  28.7436600  29.6095943
  45.0400658  27.3691425  28.9776859  68.4072876   4.2511830   4.6144667
  68.2155762   3.4085767   4.2027721  67.8139267   4.2918229   5.3644695
  11.9643421  55.4619942  51.8747635  12.3727989  55.6522827  51.0302582
  12.6977005  55.3985367  52.4866371  79.3900757  16.8579254  44.6464767
  79.8992691  17.1898308  43.9070282  78.4872513  17.1043587  44.4454346
  53.7249527  38.6355934  82.7794876  52.9743080  38.0540123  82.6589737
  54.3662758  38.1042747  83.2513275  76.6852875  48.6237717  29.5855217
  76.9444962  47.7438469  29.8589706  76.0320892  48.8926430  30.2314892
  32.1177750  70.9008865  25.4363708  31.8744907  69.9755554  25.4647121
  32.7113457  71.0153198  26.1785393  51.8450127  60.1963692  81.2776566
  51.2795029  59.5669060  81.7250977  51.6130028  61.0419426  81.6615982
   8.8802233  40.1541672  24.8440456   9.1065922  41.0550537  24.6129818
   8.7353144  39.7204208  24.0031548  26.4634552  71.1508179  57.9513741
  26.7101345  71.7933884  58.6165657  27.0324059  71.3463364  57.2068596
  45.7796021  36.9659691  72.9009399  45.2297516  36.3203163  72.4570694
  46.6755943  36.6773491  72.7273636  67.5470810  18.2468357  35.4890633
  67.3424377  17.6881561  36.2388840  67.6131134  17.6416397  34.7504082
  40.8021584  29.9814911  71.9284515  40.8321762  29.1036816  71.5479507
  40.0138588  30.3769703  71.5564117  70.6066742  66.9737396  45.6196327
  71.1787262  66.3844681  45.1279488  69.7221832  66.6568375  45.4366531
   9.0932980  66.3625565  76.6992569   8.9073210  65.9875870  75.8384171
   9.7394276  67.0475998  76.5275879  45.2127266  66.1190338   7.9049873
  45.4902229  66.6380615   8.6598616  45.4658928  66.6451492   7.1464734
  66.2382355  57.9863586  49.4058990  66.0509262  57.2335358  48.8451843
  65.5200882  58.5960197  49.2361298  85.4228897   7.0347281   3.0005138
  84.6431122   7.3837743   2.5688486  85.7364807   6.3491092   2.4107490
   4.3228779  67.9500275  50.9092331   5.2386765  67.8112640  51.1506653
   4.0898867  67.1750565  50.3979988  24.9079723  51.2486839  47.1791534
  25.3448811  51.5885582  46.3982391  25.4999046  50.5730476  47.5098534
  57.8129425  55.8267708  74.0652847  57.7848511  56.0703201  74.9905548
  57.2966919  55.0223808  74.0135651  -0.0532835  68.4676819  73.2798767
   0.6207803  69.1363754  73.1585693  -0.2792707  68.5210953  74.2084808
  76.0435257  38.1711311  42.4294395  75.5006866  37.3834000  42.3971214
  75.4866562  38.8607407  42.0681038  33.5931892   2.5470960  44.4657745
  32.7036858   2.6886997  44.1417961  34.1514778   3.0160165  43.8455658
  85.8548203   6.3119364  17.9269581  85.4417496   6.0738616  18.7569714
  85.3535461   7.0664597  17.6176929   8.8028994  60.0926247  85.8700943
   8.2861795  60.8295860  85.5443268   8.1913586  59.3562927  85.8781052
  35.4192848  41.2099457  57.3463669  35.1870270  40.3932800  57.7883415
  36.3033295  41.0583649  57.0121193  61.8075905  20.4822102  40.6413040
  62.1176033  19.8008690  40.0447311  61.2095833  21.0099812  40.1120758
  74.0061798   7.4925818  61.8888855  73.8721848   6.6060710  61.5536575
  73.3086624   8.0091963  61.4853897  37.6065025  45.5460854   8.0507679
  37.2100677  44.8056107   7.5916748  37.1734810  45.5583229   8.9043331
  66.1660233  32.1882362  46.0856476  66.2713394  31.6089058  46.8403130
  65.3248215  31.9354820  45.7052155  39.7917252  43.9513016  76.6394501
  40.1921463  43.5242195  75.8821564  40.1638870  44.8331871  76.6416168
  68.3046646   0.4879596  29.6519890  68.9859543   1.1395832  29.4862423
  68.2276840   0.4591945  30.6056538  20.4670601  60.1322441   2.4216158
  20.7877655  60.8480301   1.8729539  20.3256569  59.4079895   1.8119508
  23.7273369  70.7658234  70.2177811  24.0502396  70.0051804  70.7008896
  23.8291378  71.4972458  70.8267975   8.3046026  34.1701088  11.7149992
   8.6177940  33.3105659  11.9966612   9.0935345  34.6305923  11.4290390
  25.9221649  57.9226074  60.5224838  26.6203899  57.7241058  61.1464310
  25.3944893  57.1245842  60.4916611  41.5501595  48.4596748  61.0695457
  40.7036400  48.4155617  60.6249237  42.0208473  49.1611633  60.6194305
   6.1155343  42.6137161  36.1552925   5.7328691  43.4752007  35.9890327
   7.0517073  42.7324905  35.9949684  68.9075851  29.4007206  43.8583183
  68.1493073  29.9694996  43.7251129  68.7489090  28.9845238  44.7055702
  73.0735779  33.8305550  69.0072174  73.2578964  33.8917999  69.9445038
  72.1787338  33.4939537  68.9605789   2.5586338  65.6790924  62.3801918
   3.5111072  65.7151337  62.2922821   2.2309694  66.2141113  61.6572609
   7.3119006   5.7535472   4.4843755   6.8024135   5.5918922   3.6903210
   6.9035110   5.1979175   5.1482468  15.4074278  59.1130333   3.8698976
  14.5643005  59.2232246   3.4303217  15.1895971  59.0819473   4.8014636
  39.4608803  42.1177864  71.0717392  39.2933731  41.4392700  71.7257919
  38.7136917  42.7114716  71.1457443   1.4483091  42.0678978  16.7147503
   1.9432627  41.5866508  16.0516834   1.0087255  41.3882256  17.2256737
  48.4138641  18.2356129  61.3128929  48.8828506  18.9310093  61.7740974
  47.8298531  18.6983185  60.7120056  17.4847641  -0.2012303  18.7234478
  16.8759823   0.5245466  18.8607960  18.2950726   0.2175143  18.4331284
  76.1472702  39.6264458  38.9942818  75.8912964  38.7057953  38.9385109
  75.7316437  39.9424286  39.7965546  30.5791626  30.2732410  18.8136578
  30.0771236  29.4889431  18.5921555  30.9701557  30.5493774  17.9847393
  86.7969513  69.2470169  87.9138718  86.2745743  68.5101013  87.5971527
  87.2215042  69.5943222  87.1294174  55.7573471  27.8256817  54.7071915
  56.0542068  28.2285767  53.8912354  54.9042511  27.4488144  54.4917068
  12.6552992  36.5104637  65.3019028  12.7320452  35.6510353  65.7163010
  11.7971582  36.8332176  65.5769577   8.8267508  43.4755287  69.3218613
   8.0019455  43.8957520  69.5654602   8.9823236  42.8336716  70.0147247
  86.1673126   3.0728419  85.4826050  85.7757416   3.8037620  85.9607925
  86.9223938   3.4558363  85.0360565  36.2101173  32.7725410  72.7673187
  37.0472527  32.5580368  73.1789322  35.8972931  33.5398827  73.2464371
  66.6004257   6.6890221   1.3094877  66.3407059   5.9919953   0.7070507
  65.7874756   6.9435825   1.7459917  31.3195820  49.9617462  38.7794685
  32.2378883  49.8596687  39.0295296  31.2184639  49.4056244  38.0069809
  58.3753204  67.1988525  87.0994263  58.9792099  67.9324799  86.9839096
  58.5284958  66.9014740  87.9962692  84.2147369  32.0668030  59.9822693
  84.9322205  31.4624729  60.1726151  84.1822510  32.6471367  60.7427902
  35.0946121  53.8618202  47.4349442  34.8931389  53.0444489  46.9793701
  34.5993385  53.8087997  48.2523346   1.6000315  59.9565086  14.8496246
   1.1858933  60.4824638  14.1654510   0.9079477  59.3680801  15.1512899
  18.4744759  40.6874390  58.1485481  18.0521927  40.8880501  58.9838104
  18.6439037  39.7460899  58.1858177   6.6899686   4.2269459  71.5911942
   7.0732193   3.8674290  70.7911377   7.2284589   3.8685455  72.2967529
   4.5647445  30.9396152  23.5019321   4.1040955  30.1292095  23.2845001
   4.2441664  31.5761662  22.8629761  49.7053680  34.3204689  69.5165176
  49.2369156  35.0965347  69.2090912  50.3649826  34.6623039  70.1200790
  42.7609749  34.3158836  80.0026474  42.5728912  35.0082664  80.6362610
  42.3952408  33.5242386  80.3973236  30.3019333  11.4750977  19.8197556
  29.7403526  12.2483473  19.7654972  31.0779705  11.7063990  19.3093643
  72.5438156  25.5083008  63.3206520  71.9567032  25.1533623  62.6531563
  72.9057922  24.7365589  63.7561035  63.9200287  26.7687550   0.7708523
  63.7311592  27.5059376   1.3514751  64.8393707  26.5613918   0.9383250
  59.2839470  10.9054976  74.9767151  59.5829430  10.1282692  75.4486771
  58.3392105  10.9293938  75.1288071  81.9081116  52.8941612  86.8630981
  82.4622192  52.4756927  87.5219421  81.0898361  53.0822182  87.3227615
  22.9897366  60.2857895  65.5989304  23.3776379  59.4335175  65.7974167
  22.1750908  60.0774956  65.1415482  39.1586189   4.8296194   1.5081475
  38.7598038   5.1629133   0.7043470  39.3547363   3.9126725   1.3158524
  33.4008560  42.1912804  77.7255859  33.9099350  41.6606560  78.3383713
  33.3605766  43.0561256  78.1338120  10.3302250  69.5165787  18.8542347
   9.7001429  69.7579269  18.1752777  10.4877939  68.5829391  18.7138004
  58.4889488  66.4540329   7.3106284  58.9438515  65.9637451   6.6258545
  58.2860718  67.2977219   6.9065819  67.2825928  53.0056534  78.0270309
  66.7368011  53.3633652  78.7273102  68.1795120  53.1142273  78.3432388
  26.9068584  49.7969780   2.6617064  26.2630138  50.3301315   3.1280115
  26.3823757  49.1802101   2.1510692  23.9000854  47.2909851  54.1182175
  23.3007927  47.3505325  54.8622169  23.7816162  48.1165886  53.6485672
  28.8115158  56.8877907  47.3221474  29.2154922  56.4680061  46.5626640
  28.2771263  56.2003441  47.7197342  44.1298752  52.5768547  53.2593689
  43.5983391  52.4957428  52.4674568  43.7020912  53.2677460  53.7652359
  86.2694168  45.5861282  53.7705116  86.5744858  46.3196754  53.2365913
  85.5167465  45.2384300  53.2921448  72.2105103  45.2147255  61.9565048
  71.2797318  44.9977760  61.9033852  72.4262238  45.1188393  62.8841400
  17.9394875  62.5933418  39.9342842  17.2547359  62.3235474  40.5462952
  18.3521156  61.7742653  39.6602745  69.9974594  46.0688934  29.0562725
  70.5929413  46.5918427  29.5930691  69.1778336  46.5633087  29.0567646
  53.5370941  58.7690582  54.3453140  53.8582115  58.0635223  54.9068604
  54.1827850  58.8273849  53.6411018  62.8107986  66.4874573  20.8065548
  62.1829147  66.4862213  21.5290489  63.0903168  65.5751343  20.7306004
  43.7303429  55.0618629  28.5643559  44.5008430  54.7420807  28.0949955
  43.9742584  55.9408684  28.8543377   5.0415649  12.1047249  61.2736740
   5.1332316  11.2369184  60.8803024   5.2313185  12.7128134  60.5592117
  77.3752747  48.3310547  58.5984764  77.1099167  48.5330734  59.4956970
  78.2440186  47.9392853  58.6880989  53.8496361  37.2118721  29.9323940
  53.3258591  37.4970779  29.1836948  53.7161598  36.2648163  29.9712162
  80.2303696  63.7422562  62.6846313  79.9487610  62.8591652  62.9235535
  80.1016312  64.2582474  63.4805031  19.3193817  43.0237274  49.7802353
  19.7225819  43.7414207  49.2917900  18.4450474  43.3452263  50.0002518
  47.2448921  46.0470695  77.7442322  47.5592270  45.4507675  78.4238281
  47.8785858  45.9547691  77.0327911  47.8336525  48.8259544  42.2996178
  48.1036263  49.2994652  41.5127640  48.2218895  47.9565964  42.2010269
   1.2018231  16.2324524   2.6457174   1.3804513  16.1565437   1.7084013
   2.0486810  16.4524307   3.0338838  86.8510895  66.3799210   1.2859375
  86.7157822  65.9831467   0.4254169  86.0968475  66.9571838   1.4047905
  86.3712006  10.0675793  20.9568710  85.6031494  10.3486309  20.4595337
  86.3801041  10.6372595  21.7260380  51.2206116   3.5680759  42.4054489
  50.3863716   4.0014524  42.5856094  51.8836327   4.2136493  42.6501350
  66.3077698   5.7373047  54.1202850  65.6675720   5.1499038  54.5219574
  67.0115051   5.8020830  54.7658844  56.7675819  48.5984650  60.0880013
  56.9727516  48.2396774  60.9513702  56.6270866  47.8290977  59.5361252
  74.9841690  21.6272068  39.5428314  75.3122864  22.3052826  38.9522514
  74.8858719  22.0705605  40.3854485   3.7303371  12.6049614  86.7599030
   2.8594022  12.7623501  86.3953018   4.0682821  11.8615551  86.2605286
  32.4680672   0.6659198  66.1426392  31.5264587   0.6428776  65.9721222
  32.5722160   1.3321499  66.8219910  58.6548843  39.5144157  55.3279953
  58.0581932  38.7678413  55.2748985  58.9906845  39.4893875  56.2240105
  45.8258553  28.8829994  41.7271690  45.8041840  28.7710629  40.7767868
  46.7575264  28.8866386  41.9467239  80.5645981  48.8935814  65.6679153
  79.9245529  48.2840919  66.0354767  81.1625137  49.0785980  66.3921356
  74.4715500  62.5464973  65.3348999  74.9088821  62.3899574  66.1718445
  73.9300537  61.7690544  65.1985168   3.0450778  40.8430862  81.2318649
   2.6550977  41.6811409  81.4804764   2.9207840  40.7928467  80.2840958
  63.7593918  12.0658007  35.4103470  63.2719345  11.3197746  35.0609703
  63.7214584  11.9530926  36.3601341  74.9433594   0.8337869   6.1993980
  75.1330338   0.0262770   5.7217140  74.3424072   1.3136739   5.6294851
  17.5033550   9.9820538  11.1771631  18.2691212   9.9803553  10.6028519
  17.7361794  10.5828609  11.8850164  29.0474663  58.6472588  22.1729031
  29.7362099  58.9559288  21.5841866  29.4669151  58.6078949  23.0324059
  36.7038841  62.4388962   8.6250629  36.9191170  61.6642799   9.1445608
  35.7927856  62.6306915   8.8472128  81.0169983  70.6951447  79.0339661
  81.2879791  69.8215942  78.7516327  81.7905350  71.2419586  78.8965607
  83.7991104  13.0770826  58.1815643  83.1353683  13.7055674  58.4656067
  83.5863724  12.2732935  58.6557961  75.1845322   3.1822190  10.3666649
  74.3708954   2.6781731  10.3537064  75.2358246   3.5313847  11.2564316
  64.0142670  55.4313469  16.8078651  64.2207184  54.6380157  17.3020649
  63.1280861  55.6629105  17.0858936  50.7757339   5.7675524  40.1300545
  50.8243294   6.4408836  39.4514580  50.8818054   6.2473073  40.9515266
  23.1561050  63.1332245   2.5059245  23.0564613  62.3221016   2.0075448
  24.0748539  63.1380081   2.7744575  44.7537117  21.0928879  24.2104263
  45.2374153  20.4387875  24.7148209  44.1714096  21.5049496  24.8486786
  11.1570168  40.7676277  86.5197983  10.5613976  40.4127884  85.8598328
  11.7380934  41.3495102  86.0299072  11.1958523  54.0247459  17.1099472
  11.6594143  53.3340912  17.5835876  11.4563599  54.8336411  17.5504665
  23.3837738  16.3583183   0.5654665  23.6886902  15.6800909  -0.0372478
  23.0853558  17.0678368  -0.0035364  81.4302444  30.2480659  43.2880630
  81.6895065  29.4401665  42.8449898  81.4254456  30.9096642  42.5963249
  32.7310066  61.7796326  16.7942352  33.6404877  61.9812660  16.5741882
  32.4824104  62.4539261  17.4264965  77.6820831  25.2910519  80.5637817
  77.4123611  24.5250587  81.0704727  78.1304398  25.8514481  81.1971588
  86.1719742  44.0959396  45.8884964  86.5132217  43.2021103  45.9175911
  85.2300568  43.9973488  46.0274315  74.5518570  46.5395966  74.4916382
  75.3152390  46.2767830  75.0058441  74.1399231  47.2305031  75.0104675
  71.0827103  70.5895538  71.4850235  70.3330383  70.4123917  70.9168396
  70.6947784  70.8937607  72.3055115  59.3649940  65.8548126  56.4025650
  58.9735794  64.9823303  56.4450226  58.8666687  66.3080444  55.7225075
  13.1544790  56.1193733  40.8495178  13.4272337  56.0734062  39.9331512
  13.8652668  56.5872688  41.2877960  77.4317703  63.5367432  23.6543541
  78.2472000  63.4211082  24.1421452  77.4499664  64.4507446  23.3706150
  63.2896042  18.0641155  25.8118534  63.2662506  18.3559837  26.7231693
  62.4845695  18.4119644  25.4282475  79.9432220  59.8040848  29.7688274
  79.8216324  60.6269913  30.2424049  79.1966553  59.2649193  30.0299187
  84.6126556  11.0258341  53.1350250  84.7124634  10.2343626  52.6060219
  84.8235397  11.7422695  52.5362892  17.7096119  54.0784874  28.1325531
  18.1433868  54.6750793  28.7425938  17.5829220  53.2732468  28.6343174
  75.9001694   5.7001085  56.6324959  75.0073242   5.4055991  56.8123055
  76.0370255   5.4984994  55.7068329  17.4970779  32.9475517  81.6271744
  18.1819897  33.4950027  81.2432175  17.4329224  33.2454414  82.5345764
  54.8652229  71.0609360  14.6324778  54.0976906  70.8606873  14.0967283
  54.6238289  71.8549347  15.1094675  15.4728937  49.3474464   7.3965359
  15.7795563  49.6700783   8.2439423  14.9951687  50.0854416   7.0178938
  48.9053497  69.2797546  69.6236038  49.5699997  69.6784286  70.1853256
  48.4152946  70.0215302  69.2688599  77.3926849  65.2432022  41.3296204
  77.6137314  64.5376511  40.7216949  76.6005707  65.6359787  40.9628716
  79.1051559  65.8286285  29.5076847  79.2750320  66.6135635  30.0285053
  78.8138275  65.1766586  30.1451015  50.0558815  69.8734894  80.5276413
  49.5946655  70.4967117  81.0889816  50.5815849  70.4204330  79.9439316
  50.2687454  67.1107864  40.7608643  49.6914215  67.7297363  40.3138428
  50.5514336  66.5076141  40.0734749  30.2916145   4.4024172  87.6287994
  29.9946480   5.2736664  87.3661804  31.0623684   4.5658345  88.1723633
  35.1158333   2.2260797  81.7601700  35.8429184   2.5691903  81.2406998
  34.4453583   2.0017464  81.1149063   4.7077589  51.7865791  44.8226738
   4.1089249  51.0398369  44.8242493   4.5959201  52.1814575  43.9579239
  24.3726940   7.9946074   0.7555013  24.0251884   7.8637319  -0.1267368
  23.8970242   7.3640914   1.2962593  22.8117619   3.6123948  75.5405960
  22.6764507   4.2781615  74.8663025  22.9954090   4.1114545  76.3364944
  25.3803864  55.1913452  43.4851685  25.3511295  55.4586220  42.5665054
  25.1026077  54.2753716  43.4770813  16.7544708  71.2318344  24.0336990
  16.7622910  71.7130203  24.8611240  17.3616867  70.5052032  24.1734505
  25.7070427  47.3130531  23.9612923  25.0266647  47.7757492  24.4504032
  25.8371067  47.8413315  23.1737404  58.7973480  54.1864891  76.7974625
  59.4541359  54.7138672  77.2521439  58.0458260  54.1766624  77.3902054
  84.1848602  42.1931038   2.5553634  84.2811508  43.0803528   2.2093210
  85.0562210  41.9670372   2.8807220  22.8553238  66.1646957  85.7044983
  23.4338703  66.4441223  84.9949646  23.1305676  66.6871872  86.4578094
  46.6631355  57.1322212   7.3438478  47.4682579  56.6995621   7.6281257
  46.9261818  58.0354233   7.1670327  56.9433899  48.3722382  35.6663857
  57.7089577  48.9463959  35.6443863  56.9041443  48.0599022  36.5703430
  43.2200127  66.2452774  32.2287216  42.3642578  65.8369370  32.3597717
  43.8202286  65.7180939  32.7560234  33.8670578  45.2300835  84.0661926
  33.1393661  45.8027306  83.8237610  34.6209221  45.8161049  84.1332779
  24.8641720  66.0621185  39.7392197  25.2261753  65.2682648  40.1329079
  25.1460819  66.7679977  40.3210220  53.4980850  37.8387871   7.8966594
  53.6849136  36.9729843   7.5337405  54.1607246  38.4096146   7.5076885
  80.2828979  24.7972889  36.1679192  80.9889221  25.0033607  35.5553017
  79.6719971  24.2644596  35.6588707  74.0137329  42.0839500  79.8810196
  74.9646683  42.1739311  79.9430618  73.8815994  41.3079796  79.3363724
  84.0972595  40.5968246  43.1123619  84.6322174  41.3514519  42.8662148
  84.7007904  40.0164680  43.5762138  42.1422577  38.0802765  83.4383621
  42.8309097  38.6786385  83.1486206  41.3405380  38.6019211  83.4013901
  63.8018532  61.9148788  53.4735146  63.3485260  62.5793076  53.9924202
  64.6712723  61.8539429  53.8692665  18.8163643  63.6522827  58.1758957
  18.9884720  64.4375458  58.6954803  18.7456341  62.9488525  58.8212013
  44.1100960  63.0099335  64.3417664  44.4904442  63.7249069  64.8520508
  43.2652626  63.3494720  64.0464554  28.5473976  29.7299786  67.5506973
  28.0294056  29.4269581  68.2964096  28.8619900  28.9269524  67.1354752
   6.3040128  43.4815941   8.2942486   6.0995092  44.0924454   9.0022535
   5.4896555  42.9992714   8.1513500  22.5654926  57.2280464  47.4220085
  22.7043629  58.1709480  47.3332329  22.1670361  56.9654617  46.5922394
  40.7967796  38.2892456  74.1163406  41.2934799  38.4584923  73.3157959
  41.4563675  38.0172424  74.7544556   4.7988744  32.0622253   2.5845008
   4.9816718  31.2066154   2.1962383   4.5071573  31.8640442   3.4743645
  33.2837143  17.0850468  74.9875717  33.2645683  16.7884636  75.8974609
  34.2106018  17.0670910  74.7492599   3.1982300  66.4893799  46.7844543
   3.6493406  67.3331985  46.7578773   2.2721338  66.7096252  46.6841011
  52.4867973  62.8675652  57.6229668  52.9439011  62.5806084  58.4134979
  52.6556549  62.1751633  56.9839859  75.1268234  66.3972092  86.7025146
  75.2818375  65.5448837  86.2953949  74.6722107  66.1931381  87.5197754
  44.8380508  60.4495888  64.0577927  44.0617218  59.9038239  64.1830444
  44.5539551  61.3300934  64.3032227  64.6415787  17.7254353  30.6039963
  64.5756302  18.5629578  31.0627308  64.2267685  17.0959568  31.1938438
  15.4811935  25.0970764   3.0587082  14.7088547  24.9840202   2.5046840
  16.2096767  25.1700325   2.4420867  14.1387033  56.5183678  37.9998550
  13.4937229  55.9686966  37.5547752  14.5064650  57.0657234  37.3060341
  21.6159763  66.0686798  57.8239174  22.0343132  65.2140427  57.7198830
  22.2186928  66.6829681  57.4048538  39.2669640  65.8892059  19.1399670
  39.6273537  66.3583069  19.8924961  39.0849113  65.0096359  19.4707851
  66.6707230  53.7825508  64.1434555  67.5026627  53.8832703  64.6060028
  66.1250153  53.2709618  64.7407074  65.1855545   3.6483653  22.9565182
  65.3973923   4.4640079  22.5025520  65.5405273   2.9612107  22.3925591
  11.8923635  58.5849037  41.5151291  12.3952837  57.8617516  41.8897667
  12.3620996  58.8130226  40.7129211  21.2550583  16.2925072  72.7597427
  20.8955555  16.0189495  73.6036377  21.8109589  17.0433197  72.9682693
  37.8282852  38.1730728   9.4931793  37.7297249  38.9615402   8.9594803
  38.7747650  38.0530396   9.5706291  85.9753036  69.0605392  54.1281281
  85.3434143  68.3486404  54.0274353  85.6322937  69.5846634  54.8519211
  75.4713516  30.6123142  37.3285561  74.5812149  30.3904705  37.6018143
  75.4258957  31.5392151  37.0939980  55.2196198  15.8142920  15.7012062
  55.7346268  16.5879345  15.4721298  54.4201164  15.8962278  15.1812897
  57.3401794  62.4933624  17.8361893  57.5251999  62.1290627  16.9705772
  56.7223816  63.2052193  17.6694012  12.0471010  43.0640602  22.0983715
  12.5199413  42.2318192  22.1039906  12.4926224  43.5971031  22.7568588
  28.0748596  38.7325325  69.8588181  27.2417259  39.1974678  69.9359589
  28.7319298  39.4262657  69.8020782  74.1875305  64.0326538  57.5966034
  74.9512100  64.6063156  57.5338631  73.4388199  64.6163406  57.4742279
  61.7618446  41.9095497  44.1538315  61.6516953  41.2846489  43.4371719
  60.8771477  42.2291374  44.3310394  20.2016392  39.5777664  80.0916367
  19.7549114  40.4243050  80.0976486  19.4942589  38.9334641  80.1184692
  81.4805145  38.2084770   0.5071458  80.6330338  38.2661285   0.9483674
  81.6796036  37.2723274   0.4922667  82.6074600  36.9545288  64.4116364
  82.9082108  37.5883293  63.7604256  83.1368484  36.1739235  64.2484436
  15.4633179  24.7293968  18.8647957  15.4194098  24.8526802  19.8130074
  14.5854454  24.9502144  18.5536537  60.2209244  53.5578384  38.7939796
  60.2422676  53.6557808  37.8420448  59.4103508  53.0791626  38.9673920
  78.3154449  27.9561062  65.5773392  77.3894806  28.1570683  65.4415817
  78.7191391  28.0968342  64.7209167  74.6901474  39.9647522  82.2507019
  75.0775986  39.1381531  81.9628677  73.9560165  40.1061325  81.6529617
  80.0076218  30.6352444  30.8700294  80.6203079  30.5404778  31.5993195
  80.4480820  31.2299061  30.2629013  26.5028400  65.7475052  72.0882492
  26.7700806  65.8062057  71.1709900  25.6090374  65.4064713  72.0559616
   9.7643557   0.3656349  66.5182800   9.0709543   0.3458927  67.1778488
   9.7577372   1.2649944  66.1906509  62.3344231  13.6187820  79.8725586
  62.5655975  14.4245758  80.3346024  61.3857765  13.6727657  79.7568588
  26.2624092  40.6581001  48.6353111  26.6879368  39.9233780  49.0772820
  25.9757652  41.2316475  49.3460197  27.5977554  60.4348831  53.1436386
  27.0516090  60.4238052  52.3576164  27.0139885  60.7435722  53.8365746
  43.0870132  50.6132698  12.9969234  43.1727486  51.4982643  12.6424322
  42.2310181  50.3142700  12.6901646  16.3811932  38.8802299  83.4220428
  15.9529362  38.6399345  84.2436829  16.2918243  38.1038322  82.8693695
  75.3649597  55.9017258  67.3036194  75.9392090  55.5409698  66.6281052
  75.7074127  56.7809601  67.4645691   9.6223850  65.3843460  23.6627426
  10.0789270  66.1326065  23.2781544   9.8085127  65.4459381  24.5996494
  30.4703903  40.0582657  71.2353210  30.7609253  40.0263977  70.3238373
  31.2800865  40.1111107  71.7430878  11.2045717  44.6410446  29.8710823
  11.4758406  45.0895882  29.0701733  11.6558180  43.7975426  29.8377762
  20.5786190  51.3366051  84.3053284  20.7462940  51.7628632  85.1458206
  20.0662766  50.5595703  84.5288467  13.0919666  14.7347565  22.7515755
  12.2317266  14.3383045  22.8895760  13.2370596  14.6696482  21.8076782
   9.2210550  37.2819443  88.0588379   9.9206219  37.0879097  87.4349899
   9.5830555  37.9688377  88.6186295  62.8006668  51.9169273  39.7906151
  62.6515694  51.7209244  40.7155914  62.0533104  52.4585991  39.5370712
  74.0046082  42.8716278  53.0878944  74.4809265  43.6499977  52.7989464
  74.6889954  42.2533646  53.3440208   2.2114000  66.8590012  33.9022789
   2.3799837  65.9399643  34.1101151   1.3278669  67.0211487  34.2328949
  59.7831459   2.1587651  54.4145889  59.2127647   1.6171058  54.9600296
  60.5366974   1.5992455  54.2266350   9.8865747  62.1228981  62.2824059
   9.8795853  61.2539482  62.6837845  10.4474459  62.0266991  61.5127296
  37.8294144  49.0071411  81.9901123  37.9837379  49.9465599  81.8905640
  37.5001869  48.9118919  82.8838501  74.4895706  30.2549381  32.9771767
  74.6437531  31.1218662  32.6018181  75.2848129  30.0644703  33.4747086
  49.5262413  58.8801689   4.6651068  49.9301758  59.7422333   4.7646489
  49.9640045  58.4968643   3.9050586  14.7548294  48.1810036  48.3614578
  14.5779409  48.9634514  48.8836861  15.5606976  48.3864822  47.8875504
  65.2147751  53.7394333  79.8014221  65.0222168  54.6363983  79.5282822
  64.5199814  53.2139015  79.4048080  24.5506363  43.1319847  12.4321508
  23.8945694  42.4550591  12.5982161  24.4769211  43.3121948  11.4949627
  84.0753174  35.0034561  27.9510899  83.5288544  34.5822754  27.2876015
  84.0815430  35.9283028  27.7044086  85.9314880  21.9553699  14.8011971
  85.5979233  21.5653439  15.6091852  85.8727036  22.8992882  14.9488258
  19.0684910  51.5465927  50.2804070  19.5982208  50.8927574  50.7366028
  18.5362759  51.9460907  50.9684334  69.5122604  50.5186310  77.0317459
  70.3336945  50.1223717  77.3223648  68.9065094  50.3747177  77.7587891
  18.7939949  61.6397552  26.7946644  18.9656982  62.3425980  27.4213696
  18.9484158  62.0391693  25.9385967  60.5697098  16.8947163  14.4383307
  60.4865189  16.7909546  15.3862467  61.5036430  16.7759399  14.2654390
  55.8535919   3.7356660  30.1940804  55.7594185   2.7831838  30.1822300
  54.9764519   4.0655174  29.9990063  54.0481606   8.9115019  60.9247589
  53.4019203   8.2204323  61.0697708  53.7964134   9.6063194  61.5331039
  72.8926926  68.0902405  46.8945847  73.5015030  67.8910980  46.1833038
  72.0283356  68.0650406  46.4841194  70.5893707  67.1246948  13.1295242
  71.0326614  67.5325089  12.3856096  70.0407104  67.8202286  13.4920588
  16.2492905  38.2039108  56.4196434  16.0071945  39.1290512  56.3779411
  16.5346947  38.0715370  57.3236618  11.0536079  68.3064957  76.1457520
  11.3512440  68.0937881  75.2612152  11.7953377  68.7608795  76.5452576
  13.8060484  21.6534843   7.2798123  13.6785727  21.0382805   8.0019665
  13.6174898  21.1417885   6.4931455  16.9699383  30.4063549  80.7020111
  16.8997307  31.1986828  81.2344742  17.8361950  30.0551910  80.9082031
  48.4346581  21.7701988  56.2518806  48.7752876  22.5081654  55.7463036
  48.3706627  22.1024971  57.1472664   3.5859315  32.5217094   6.0385079
   3.5365987  33.2673492   6.6366911   2.7049923  32.4508972   5.6708622
  68.1822205  47.8579369  48.5566750  67.5903702  47.3000984  49.0614128
  67.6584625  48.1493225  47.8103485  53.4899254  68.3998871  16.1304665
  52.6215248  68.7989960  16.1836491  53.8554955  68.7302399  15.3098230
  56.4991379  61.7361984  75.3596573  55.6009979  61.6724358  75.6844864
  56.5444946  61.0922775  74.6528778   6.0230265  65.7363663  58.1545334
   5.6842904  64.9309235  58.5453758   5.7786055  66.4242325  58.7736626
  44.6256981  56.6114960  37.2312050  45.0303001  57.2743645  37.7907906
  43.6927528  56.8252983  37.2428017  23.0625572   7.5247364  12.2616510
  22.8362312   8.4542198  12.2289648  22.2897720   7.0777683  11.9163189
  15.6700268  71.4819336  55.7985001  14.8749342  71.6531372  55.2937737
  16.3130684  71.2049637  55.1458015  35.7142029  37.4535370  43.0299301
  35.0187035  36.8239594  43.2200508  36.4082947  36.9299850  42.6294746
  43.5097237  46.4682159  82.9583969  43.5469360  46.1961784  83.8753738
  43.1751518  47.3645592  82.9878769  58.5094147  26.7561550  29.4487343
  57.9316139  26.7698574  30.2117481  58.0348244  26.2386894  28.7981739
  25.2558041  10.2401962  49.7073669  24.4626007   9.8983841  49.2947807
  25.2449131  11.1764145  49.5083466  44.2805099  54.6319695  31.2651634
  43.9589882  54.8208351  30.3835812  44.1895599  53.6833611  31.3551636
  28.3007202  66.8489456  31.0079613  27.3602314  66.9873047  30.8958454
  28.4859219  67.1668930  31.8916130  80.8750000  59.1663284  11.5324125
  80.3937225  58.5946655  10.9342451  81.7519684  59.2256355  11.1534100
  13.8386517   5.6849179  15.5122290  13.2725039   5.3205380  16.1926231
  14.3081465   4.9284120  15.1607962  69.7320557  51.5143585  84.9340668
  69.5495987  52.1483231  85.6276321  69.3024750  51.8767586  84.1592407
   6.0961838  58.8534737  68.4477692   6.8077559  58.5765991  67.8704987
   6.1204910  58.2301865  69.1738281  26.4700222   0.2236517  65.4768448
  26.5731106   0.6260471  66.3392181  26.7266788  -0.6893597  65.6063385
   1.2537876  35.0958824  56.5018196   0.6381224  34.5393143  56.9787064
   1.7096448  34.4968948  55.9105186  69.0407486  70.1059341  65.5205154
  68.1469116  70.1411514  65.8611679  69.5273514  70.7292557  66.0598831
  15.3905106  45.7120743  43.9824409  15.8265381  46.3680458  44.5263252
  15.9210281  45.6695938  43.1868401  59.0947647   0.8575158  14.3506155
  59.7124786   0.2590755  14.7707701  58.4503479   0.2841190  13.9356775
  82.0432129  47.4550819  15.8900118  81.9702377  48.3193665  15.4851408
  81.8561859  47.6079140  16.8162384  10.5536098  47.7636909  18.2438526
  10.5693932  46.8683853  17.9056091  11.3932915  48.1362152  17.9747925
  31.1258259  52.0614815  83.3746338  31.7899609  51.5574760  83.8448868
  31.6162453  52.5369301  82.7040634  74.9274979   3.3917677  59.1449471
  75.4011688   3.2379439  58.3275070  75.1439514   2.6372952  59.6928062
  56.5251350  60.6858406  49.4697037  56.5420303  61.0898170  48.6020889
  56.2800560  59.7752876  49.3052063   9.1746454  32.1718140  13.6432667
   9.5725985  31.5398731  14.2420311   8.2807169  31.8532257  13.5182648
  49.4742317  48.9546776  14.3152905  49.2428665  49.8052521  13.9421549
  50.4091759  49.0241585  14.5083704  36.9973984  42.9379311  86.1308441
  37.4435081  43.6613197  85.6904755  36.6873474  42.3786316  85.4186096
  45.8926353  55.8627396  34.8353424  45.4303055  56.0090790  35.6606102
  46.7536125  56.2588615  34.9696350  84.1319656  28.2431431  82.7563553
  84.3708572  28.4188118  81.8462448  84.4812088  28.9891586  83.2439270
  10.6772957  41.6182022  28.9874325  10.2192888  42.3594704  29.3836441
  11.5884399  41.7260857  29.2602119  56.2335091   9.4391594  28.2427082
  56.9810486   9.6692114  28.7945194  55.7127914   8.8431778  28.7811222
   0.8007622  46.7796249  29.9486904   0.3883175  45.9913979  29.5953846
   1.2935143  46.4716911  30.7093525  65.5064163  65.7000809  37.7777748
  64.6124496  65.3927002  37.6275291  65.4082794  66.6288605  37.9874611
  68.9238052  19.5414581  86.8402481  68.1614838  18.9701080  86.9332809
  68.5606689  20.3816071  86.5600510  34.4410629  29.3231449  77.7771530
  33.7990685  29.1771622  78.4719620  35.1411285  29.8215389  78.1987534
  72.2006454   8.9181843  60.1434822  72.4992599   8.8766880  59.2350006
  71.2795868   9.1712723  60.0815315  14.5708838  32.8086624  76.1963425
  13.8015165  32.4114380  76.6044083  14.4992199  33.7398911  76.4058990
  28.0091724  39.0338173   7.3774157  27.3483124  38.3515663   7.4958577
  27.5847092  39.8345032   7.6855750  80.4046860  39.7193336  42.2905502
  80.7221069  40.5356636  42.6766586  80.3069382  39.9170532  41.3591080
  34.0868721  40.6113777  13.4687223  33.3854675  40.1241112  13.9009733
  34.0239906  41.4947052  13.8320551  63.6521530  52.7436867  27.5100708
  63.9779282  52.0755196  26.9070301  63.9458275  52.4512596  28.3729000
  69.1496582   9.7202158  49.5681343  69.8408585   9.2367449  50.0206070
  69.5828171  10.0967646  48.8020973  52.8398399  29.2376022  66.4223404
  52.1903534  29.5449562  67.0547409  52.6725883  29.7567463  65.6357346
  64.9452286  21.2173634  28.1084785  64.1854248  20.6513596  28.2447739
  65.1662674  21.5363884  28.9834614  22.6892433  42.1000977  46.0682945
  22.6970730  42.3664284  45.1489258  23.4857445  42.4834671  46.4355049
  16.9078541  44.1209946  29.4337349  17.6577091  44.6507378  29.1629543
  16.6197605  44.5165253  30.2564068  35.4291382  49.7500076  65.0107956
  35.4241676  49.2604179  64.1882935  36.2814789  50.1853676  65.0252304
  36.6228104  70.5158157  62.8182335  36.8397217  70.1042862  63.6547928
  35.9866524  69.9233017  62.4176559   2.1674433  71.4898300  88.3787460
   1.3848487  71.5944443  88.9198837   1.8878022  71.7486038  87.5006409
  12.7013102  58.7037010  15.4836721  11.7600155  58.8771133  15.4948902
  13.0440722  59.1938324  16.2310123  37.6248131   8.2625198   3.5023174
  37.4320946   7.6488538   4.2111940  37.2281303   7.8651724   2.7270818
  73.7575760   9.9536753  35.5238190  72.9006042   9.5295334  35.4799080
  74.2995071   9.3470135  36.0283051  70.7467728  70.1152496  76.3159714
  70.3086853  70.7359543  76.8982391  70.9119110  69.3481750  76.8641968
  30.7255840  49.7943077  35.2301674  31.0568542  49.0614548  35.7492218
  30.3512897  49.3852997  34.4498787  17.7976303  27.7458706  15.5587053
  18.6184864  28.1605625  15.2932711  17.3520603  27.5477810  14.7350187
   7.9308424  68.5992050  88.4452209   8.4386482  69.2644958  87.9807281
   8.0051231  67.8166122  87.8990860   3.7304499  69.1416473  25.2868233
   3.9967713  70.0610504  25.2861500   3.9836445  68.8195801  26.1519222
  17.1202755  42.7054710   3.9939516  17.4227238  43.6124001   3.9466138
  17.4742870  42.2934875   3.2058055  46.0147514  46.8454170  28.5420723
  45.1214638  47.0970650  28.3076668  46.2534332  46.1802597  27.8964500
  22.2748127  69.2142105  13.2151260  22.4096165  68.4213791  12.6960115
  21.8265514  68.9103622  14.0044117  28.1609211  32.0871735  68.8238678
  28.3004932  31.2888756  68.3144760  29.0349636  32.3346481  69.1255875
  82.6251526  49.9081879  67.5933075  82.6660995  49.1412239  68.1645584
  83.5125809  49.9952927  67.2453003  22.0094490  29.3894806  83.3459396
  22.7199268  28.9367599  83.8003540  22.4203358  30.1721630  82.9787674
  82.0892639  67.0846481  53.9239426  82.9280319  66.7412338  53.6161003
  81.9719467  66.6907654  54.7884178  42.4661331   4.2559609  18.3516426
  42.3876877   5.1108584  17.9282875  41.5621758   3.9782326  18.4998455
  68.3685150  11.7856264  64.3394165  68.5399246  11.8345432  65.2798691
  68.5867310  10.8841810  64.1027527  66.1753769  15.3511543  46.8818321
  66.8339081  15.4061737  46.1893463  65.6356964  14.5985336  46.6398849
  15.6359749   3.8779967  62.3728065  16.5521049   3.6722472  62.5588303
  15.5900402   3.9243257  61.4178314  82.2809601  46.5562897  27.3178940
  82.7000122  46.0840454  26.5984421  82.0260162  47.3964348  26.9365883
  37.1325188  48.3364067  23.1605988  37.2867928  47.4693298  23.5355778
  36.9992714  48.9050674  23.9189568  57.7389336   1.2903757  64.4951859
  57.5779076   0.4642456  64.0393219  58.0712814   1.8776981  63.8163414
  81.3394165  13.7762241  51.9354858  81.3033905  14.6021023  51.4529305
  80.4348679  13.6165209  52.2047844  12.9816065  17.8537693   8.0968342
  13.4088688  18.5441856   8.6037903  12.4165363  18.3224220   7.4825940
  73.4038849  26.8171349  34.6858025  73.2024765  25.9279671  34.9774323
  74.0623245  27.1293850  35.3064384  73.1621094  28.5736694  48.8408356
  72.5890274  27.8429050  49.0727615  73.7198334  28.2287178  48.1435699
  33.7780342  36.7995567  77.4897461  33.4872742  37.5684242  77.9801865
  34.4489632  37.1345520  76.8948822  59.0437317   5.3349609  78.7474594
  59.4583130   5.5288205  79.5881500  59.5421906   5.8472610  78.1108093
  24.4095879  17.6305618  71.0093689  24.9194164  17.7521248  71.8103256
  24.1039581  18.5092945  70.7843094  77.8860092  37.0148315  26.2425461
  78.6544571  37.4146538  26.6498032  77.1631927  37.6000824  26.4689255
  36.3980827  35.3849792   2.9431984  36.7381668  34.5445328   2.6362386
  37.0435028  35.6851997   3.5831456  53.7933121  37.0799751  33.7571182
  53.9910011  36.7070351  34.6162262  53.5278473  36.3295021  33.2255630
  51.5483437  43.1244659   5.1268239  52.3684845  42.9912987   4.6515689
  51.7176208  42.7713814   6.0002699  44.7678146  31.5004730   8.2725410
  45.1492310  30.6225491   8.2715292  45.5209160  32.0888634   8.2190027
  37.7875786  62.5024681  43.3412285  38.3516731  61.7817459  43.0608902
  36.8993416  62.1527519  43.2708130  49.6327095  43.2342682  76.4446640
  49.2973709  42.6030273  75.8080215  49.6478691  44.0663528  75.9717636
  35.8239365  48.6451492  77.8205338  35.0512657  48.1771851  77.5039597
  36.5584068  48.0733337  77.5973587  43.9415207  57.4500771  10.0727873
  44.3589859  57.1918411  10.8945351  44.6343536  57.8898506   9.5800247
  85.6171722  41.6922264  55.7484131  86.1709213  40.9117699  55.7703400
  86.1230240  42.3579788  56.2143745  36.4856606  64.4782486  72.4315109
  36.4730949  63.7920189  71.7643051  37.2768669  64.9824142  72.2416763
  79.0507050  47.9884911  15.8292847  78.4884109  48.7210579  16.0810890
  79.5169754  48.3000641  15.0535622  82.4826279  51.1353912  35.0823975
  83.0875320  50.6193848  34.5494194  82.5426788  50.7480774  35.9556770
   3.5764668  29.7540264  70.5591736   3.4524498  29.6872921  69.6123962
   4.0871701  30.5548382  70.6779785  77.8016052  40.8398132  49.2945366
  77.5759125  39.9880219  48.9207077  78.0850372  41.3629417  48.5447121
  46.3060074   7.9231086  19.4220791  47.1094055   8.2197199  19.8496361
  45.6068230   8.1735201  20.0259552  55.1862450  45.4650764  41.8475876
  55.9178963  45.2805176  41.2586441  54.9725838  46.3835983  41.6835938
   7.0366583  28.7129097  62.2884521   7.6721473  28.6217670  62.9984398
   7.3226671  28.0813618  61.6284714  66.9083405  23.2100430  45.9737129
  67.2816010  22.7535877  45.2196884  67.0380478  22.6079578  46.7064476
  64.3037415  20.6854935  62.4233856  64.8483200  20.6453686  63.2095528
  64.7109528  20.0658073  61.8180695  41.6658020   5.2076335  50.3353119
  42.0424767   5.7180400  49.6184883  41.2922020   5.8624711  50.9250908
  22.3431625   6.6882849  66.0234756  21.9741573   7.5461307  66.2336349
  21.8117542   6.0696716  66.5246277   3.3644495  35.9260979   9.6168642
   4.2686772  36.2097855   9.4822330   3.4403937  35.0254974   9.9321127
  34.1249046  45.3044128  42.6073303  34.2363014  44.4759483  43.0736656
  34.8459206  45.3238754  41.9780540  45.1367874  66.4487534  30.1096439
  44.6578903  66.4363708  30.9383392  44.8196526  65.6784286  29.6382122
  63.4927902   7.0522089  55.8097382  64.4334335   7.0733957  55.9857292
  63.3358154   7.8156972  55.2541504  53.8674736  52.2110748  53.6823540
  54.5062675  52.4178505  53.0001411  54.3192520  51.5893898  54.2530060
  13.6907597  67.3905563  25.3573170  13.2369623  68.1490097  24.9898338
  13.5372486  66.6895294  24.7238922  61.4949150  36.8649635  45.9136124
  61.8082352  37.4307556  45.2079620  62.2654076  36.7169609  46.4619446
  84.3680191  16.2066689  75.5168991  84.5256577  16.7684326  74.7580795
  85.2388000  16.0440826  75.8795624   8.3131037  45.1324005   6.5976124
   8.6723709  44.3386269   6.2012768   7.4930606  44.8484154   7.0014839
  16.0888577  62.0741463  36.1338997  16.7166290  62.6973839  36.4995651
  15.9374065  61.4450150  36.8392296  49.6747017   8.7926350  45.8975029
  49.6656227   9.6088886  45.3976250  48.9201279   8.3029737  45.5702705
  75.8603516  67.8184433  67.5393143  76.8171158  67.8415527  67.5220718
  75.6287537  67.0729675  66.9853745  32.0201530  40.8945847  23.1907196
  31.7268410  41.7643700  22.9192924  31.7239170  40.8140297  24.0973549
  45.2323799  64.0063095  27.8806934  46.1345177  63.7180023  27.7419167
  45.0392876  64.5610886  27.1249409  16.8649139  66.9054718  35.3805199
  17.2705250  67.7486343  35.1785469  16.9682388  66.3919525  34.5793648
  48.1608849  23.2911205  15.2364798  47.4928627  23.8064594  15.6885929
  47.7968826  22.4065933  15.1997824  51.4287529   0.4699067  16.5538158
  50.6119080   0.9622188  16.4724197  51.9546509   0.9788054  17.1708126
  85.4641876  70.3345261  67.6683044  85.5953674  69.7030640  68.3756104
  84.7092819  70.8528900  67.9469604  38.3005180  21.1315155  18.4148312
  39.2083893  21.3708344  18.6011791  37.8988724  21.0257015  19.2772198
  69.0202255  64.7118607  72.8647537  68.0689621  64.8176804  72.8764648
  69.3580627  65.5462952  73.1900406  13.2614870  55.6776695  49.5642509
  12.9646616  55.1583481  48.8169670  14.1114902  55.3023834  49.7942200
  72.3099899  35.7049065  44.2397804  71.4570770  35.3770943  44.5249481
  72.9405823  35.2472610  44.7957878   3.1623383  39.5931931  41.9568939
   2.8511338  39.8738976  42.8174706   3.9743187  40.0824776  41.8245277
  74.9217606  16.4856148   5.7629080  75.7916183  16.8065643   6.0007377
  74.3918686  17.2771893   5.6688056  80.9833603  55.3341293   8.2087135
  80.4138718  56.0970535   8.1094294  81.6455994  55.4390564   7.5255876
   3.0910401  48.3304214  27.8783245   2.8635564  47.7167740  27.1798134
   2.9570882  49.1951981  27.4904461  26.1982021  14.9374599   2.3685529
  26.0170898  14.7960052   1.4393487  26.0831223  15.8793573   2.4943233
  30.3099766  20.7145329  69.2833481  31.0001793  21.3484230  69.0883255
  29.5924263  21.2420788  69.6341248  78.1039886   1.8400745  78.2079468
  78.2321014   1.1255344  78.8318481  77.1535187   1.9257885  78.1338272
  18.8985653   3.7277613  22.8698654  19.6664734   4.2080674  23.1794682
  18.9482899   3.7859697  21.9157314  25.0061340  38.4285393  62.7409134
  25.1921043  38.8319321  63.5888062  25.6664200  38.7937469  62.1519508
  27.3428326  47.3886909  32.4471893  26.9377632  47.2029991  33.2943420
  27.3358479  46.5482979  31.9890137  68.6795120  16.8592453   5.4560952
  67.9312439  16.7410927   6.0412126  69.3583145  16.2891273   5.8172331
  60.9603844  60.9642220  20.3417854  60.6774521  61.6553726  19.7430439
  60.8827019  60.1583443  19.8311386   7.4023166  55.6717911  23.0978737
   7.2312632  55.8922768  22.1822548   6.9243197  56.3340530  23.5970364
  67.8554306  38.5466042   5.9938831  68.5916977  38.5864677   6.6042519
  67.1403809  38.9883080   6.4519653  13.0997000  65.9232483  52.6306076
  12.4300289  65.4235458  53.0975838  13.3095961  65.3865356  51.8663330
  51.1481171  37.9027557  17.9188385  50.4329758  38.5151634  18.0913525
  51.1766510  37.8304710  16.9647980  64.5660629  60.6885300   8.4619637
  65.4605637  60.9677048   8.2666054  64.2624207  61.3059158   9.1274500
  35.8212662  60.0090179  43.1218605  35.2715683  60.0396194  42.3388329
  35.2148094  59.7996025  43.8322029  68.5200348  37.2555466  46.3888969
  68.7338333  38.1039085  46.0005646  68.5197449  37.4172363  47.3323441
  48.5433044  31.4083309  80.6080780  47.7416000  31.5847683  81.1003876
  48.3116646  31.5950031  79.6982803  36.2767677  51.8075371  33.1825523
  37.2184525  51.8762360  33.3398361  36.1819000  51.9325867  32.2383080
  83.7154160  58.5555458  20.6061802  82.8805923  58.2983475  20.9975357
  84.2401352  58.8663712  21.3439407  16.1914120  20.0577316  17.6288147
  15.2453022  19.9286346  17.6954460  16.4684048  19.4498043  16.9433002
  80.2069778  19.2153130   1.0953118  80.0823593  18.3878193   1.5600239
  81.1335449  19.4217911   1.2181070  76.0355225  43.6574402  29.7991066
  76.9727707  43.5628281  29.6292572  75.7168961  42.7595024  29.8908558
  52.5658989  48.6782112  76.2719650  53.1196556  49.4099998  76.5441208
  51.7405624  49.0866280  76.0107269  57.3332214  23.8767872  17.6147995
  56.4004059  23.7371120  17.7778130  57.4060822  24.8125801  17.4271488
  55.0037918  58.1103516  69.6706696  54.9175453  58.0066566  68.7230225
  54.2366142  58.6224823  69.9263840  41.0262413  44.4499664  37.3447456
  41.3568993  44.4993858  38.2416611  41.5210648  43.7340660  36.9461594
  68.8964081  68.7446518  40.9266701  69.5509872  69.2160797  40.4113884
  68.3173370  68.3498077  40.2747459  49.2524910  33.6278267  10.6047802
  49.5284920  33.9746208  11.4531851  49.3752670  32.6816292  10.6813803
  19.0084953  55.6894112  69.0833206  18.8380508  55.9865036  69.9771423
  19.6046658  56.3455811  68.7224121  53.6216927  37.5792732  19.2401485
  54.1611328  38.3117371  18.9422588  52.7532616  37.7594414  18.8801537
  44.4849205  39.2672958  86.2969742  43.5600471  39.4045372  86.5019302
  44.9503632  39.5677719  87.0775604  47.4277115  14.8189955  25.3934383
  46.7314186  14.8457699  24.7371674  47.7496758  15.7193251  25.4379082
  41.9727745  50.5974998  40.7288666  42.7016792  50.3793259  41.3096657
  41.2493439  50.0516663  41.0370026  77.1265564  56.1304626  50.4134979
  77.8590012  55.5142326  50.4173622  76.5262604  55.7931595  51.0784035
  70.8672562  47.9108047  20.0340576  70.7147064  47.0428085  19.6605053
  71.6077347  48.2586517  19.5371361  53.2705002  56.7867355  29.7909393
  52.4068222  56.3806496  29.7175674  53.3049774  57.1156769  30.6891804
  43.4894791  19.3403835  68.3822479  43.3963280  18.5196533  68.8659363
  43.9393692  19.0926228  67.5745087  69.2182693  27.5094395  38.5062599
  70.0101852  27.0882835  38.1720123  68.9211502  28.0662670  37.7866058
  52.8095779  39.9942245  61.8116951  52.5530243  39.1472092  61.4470406
  53.7520485  40.0476723  61.6531830  45.7615585  16.2125263  67.8878555
  44.8219757  16.3621006  67.7827606  46.0865898  16.0943851  66.9953156
  57.9497948  18.1166649  60.5071945  57.2970467  18.6950283  60.1126747
  57.4647675  17.3202362  60.7232437  42.2240753   3.2761507  30.8244038
  41.4508705   3.7111814  31.1837597  42.5799675   2.7753642  31.5584221
  19.9428654  39.0264282   8.9275818  20.5629673  39.7347412   8.7543640
  20.2362652  38.3086548   8.3663807  33.3292580  14.4028101  80.5418091
  32.7332878  14.1561508  79.8345490  33.9171677  13.6528521  80.6321106
  70.4652328  11.6305666  88.3170242  69.8301392  11.9000864  87.6535034
  70.0959320  11.9430809  89.1429672  68.8599243  70.6569214  69.8108978
  68.1221619  70.0715027  69.6399307  68.7091217  71.4066849  69.2352676
  22.9924889  65.4294281  48.3907661  23.3382492  65.2430115  49.2636528
  23.7701473  65.5482407  47.8454552  75.0563202  26.2505951  16.9682026
  75.1103745  26.9212589  17.6490250  74.5474930  25.5447807  17.3671379
  38.6593208  60.2087288  59.9504929  38.8421059  60.7689972  59.1962242
  39.2221680  60.5509033  60.6450081  40.9743843  52.0056686  61.5933571
  41.5147820  51.3548470  61.1454430  40.1096230  51.5994987  61.6520538
  29.4109421  43.9306221  54.5611992  29.1405125  44.8471985  54.5065804
  28.6450939  43.4753914  54.9111633  45.9415169   9.8180265  57.7352753
  45.5432892  10.5332813  57.2392311  46.8809967   9.9109945  57.5772858
  63.8757515  25.8049107  77.8704071  64.3214264  25.4026127  78.6158981
  64.2743225  25.3943634  77.1030579  71.4059830  56.0779762  57.3194466
  71.1755447  56.9458466  57.6510124  72.1044006  56.2414055  56.6856270
  57.7009544  51.9168777  85.4828720  57.6853027  52.1812706  84.5630493
  58.0279160  52.6869850  85.9479141  64.4370270   5.5834255  12.2410564
  63.5963516   6.0357137  12.3112411  64.3721237   4.8592796  12.8636580
   3.5576930  23.5686512  71.4980392   3.3642023  23.8589878  70.6066895
   4.4880271  23.3441715  71.4801712  54.1405869  21.1558285  56.5363541
  53.3559570  21.2149410  55.9912949  54.6485100  20.4432087  56.1485176
  22.0811100   3.7805080  56.0642357  22.3466778   3.0404871  56.6101952
  22.7124767   4.4695554  56.2711678  38.4525414  19.6411438  85.1674576
  38.1380920  19.1889324  84.3846054  38.0065689  20.4879284  85.1503067
  85.5699234  11.7591448  48.3103371  85.2364960  11.3658314  47.5038872
  84.9362793  12.4445562  48.5223236  34.0171814   5.4598002  39.6584740
  34.2669640   4.7229791  39.1008568  34.7986870   6.0115728  39.6905861
  12.7419357  38.5532837  79.0808487  12.8603888  37.9333839  79.8005142
  13.4116230  39.2213058  79.2274704  21.5472240  19.9291439  84.2725067
  21.1011028  20.7216454  84.5710831  21.8489399  20.1423798  83.3894806
  61.3775635   0.5118136  57.2309418  60.9959221  -0.2128788  56.7355614
  60.7048149   0.7452014  57.8706055  28.9907780   2.8735175  71.3487473
  29.4784737   3.2730861  70.6285172  28.1707935   3.3660009  71.3850403
  69.8880081   5.1207485  29.0994968  69.2588501   5.2172709  28.3845978
  69.4765854   5.5631089  29.8419838  46.4790688  32.3760796  21.9183521
  46.4572754  32.8771057  21.1030426  45.6730537  32.6221046  22.3722763
  14.7269659  56.9569588  73.1289215  13.9531813  57.4674034  72.8903122
  15.4659605  57.4982147  72.8511353  49.7449913  21.6809006  75.5540848
  49.7742882  22.4215870  76.1596909  50.3887253  21.0628510  75.9002762
  38.1321106  66.7046967  25.5335979  37.4026985  66.6584930  26.1517029
  37.7485962  66.4588928  24.6917362  85.7310104  18.7570210   0.3759695
  85.5227356  17.9029865   0.7547556  85.8916550  19.3216267   1.1320423
  31.9743481  15.6148024  70.0785675  32.6502457  16.1844158  69.7112350
  32.2228127  14.7348614  69.7953720  40.8941994  66.6371536   3.7962472
  40.3306618  65.9713135   3.4021411  41.6864471  66.1622925   4.0473995
  42.2632370   4.4446473  36.8812943  42.2941399   3.5198247  36.6363869
  41.4008598   4.7408466  36.5900841   3.9485736  51.5094109  52.1584511
   3.3696041  51.3391228  51.4154625   4.2552543  52.4059105  52.0225639
  31.0590839   1.1231984  73.4889908  31.7340946   1.7465796  73.2206879
  31.5454350   0.3412867  73.7503510  74.9745789   5.6812692  15.7020702
  74.6661530   5.2946205  16.5215893  74.1790314   5.9905396  15.2688341
  31.6705284  62.3096313  55.5332413  31.6167164  61.3993683  55.8243713
  31.3226204  62.2968864  54.6415977  68.7770691  45.8628922  45.4740868
  69.4046631  45.1417503  45.4260445  68.3488693  45.7516060  46.3229065
  56.3274422  60.1870880  65.5726318  56.6766014  59.7486610  64.7966766
  55.4547310  59.8111382  65.6878052  71.6688080  18.8616791  86.0903931
  71.5463715  17.9124832  86.0740433  70.7812576  19.2168694  86.1385803
  65.5186768  18.8044262  74.1254044  64.9202652  19.4196339  73.7015457
  65.5736008  18.0666943  73.5179749  72.2848816   6.3441834  55.3080292
  72.1803970   6.3159738  54.3569679  72.8582611   5.6042790  55.5080452
  38.9582291   2.9310205  57.9187126  38.6456375   2.1973176  58.4480515
  38.4168282   2.9049566  57.1297646  14.7056818  52.0099068  30.3689442
  14.5311155  52.9320755  30.5569992  13.9887543  51.7429008  29.7936592
  65.8987885  54.9332542  74.0618057  64.9845123  55.1260223  74.2695770
  66.0665054  54.0887184  74.4799652  86.5402832  61.0621071  66.3122559
  87.1764374  61.6646652  65.9269562  85.6898575  61.4589272  66.1237335
  62.5195427  26.5713081  69.4248962  61.7700615  27.1356945  69.2352142
  63.0722542  26.6373615  68.6461945  17.0816517  18.1632309  25.9753685
  17.8306541  17.5718365  25.9013443  17.0900116  18.6636124  25.1594143
  74.7867661  33.4309044  76.2617493  74.0303192  33.1910439  76.7969971
  74.6518173  32.9675903  75.4350891  29.5842724   5.5359755  45.8121071
  28.8649979   6.0847178  46.1247673  30.2365227   5.5745635  46.5116158
   2.5407772  51.5943031  66.8131943   3.1864638  52.3007965  66.7994843
   2.9710798  50.8677788  66.3623810   7.0827985  20.5644379  58.2968483
   7.5661330  21.3189602  58.6334686   6.1834383  20.8784714  58.2032242
  84.4473419   5.2688203  76.5745392  85.3534164   5.4748731  76.3447266
  84.3497009   4.3419919  76.3561707  76.4706650  48.9275627  72.3412933
  75.6515350  48.9471970  71.8464508  76.7494965  48.0125275  72.3067322
  22.5830402  48.8676186  80.1177979  22.0050049  49.5965805  80.3430023
  23.3270187  48.9591522  80.7130661   3.6187611   1.8305527  29.0728645
   3.7358718   2.5188260  29.7276917   3.5573330   2.2996051  28.2407303
  65.9419556  39.0192032  61.8412247  65.4002533  39.7262383  61.4906693
  66.4582520  38.7195282  61.0929794  25.7322578  62.9279404  62.5715332
  26.3060646  62.5875702  61.8851471  25.1313305  62.2072525  62.7605591
   8.5441704  43.0881119  54.9327927   7.7726340  43.2330551  54.3851089
   8.2465353  43.2812691  55.8218002  17.9427814  31.3209991  87.2119446
  18.2721939  30.6847439  87.8466873  18.5924606  31.3164158  86.5090027
  58.6118202   7.0022554  34.3896027  58.1151848   6.2725825  34.7599564
  59.5123253   6.8486342  34.6754684  71.9810638  54.5223541  13.9853287
  71.2593002  54.8468666  14.5238256  71.7156448  53.6366959  13.7375574
  73.7816772   4.4485555  18.1319427  73.9290848   3.5275605  17.9168320
  73.2484665   4.4265480  18.9265728  74.6582336  59.3190689  13.7686453
  74.6374512  58.5768929  14.3727751  74.1468887  59.9991722  14.2070751
  75.4369812  25.3670464  77.0729294  75.9002838  24.6134529  77.4385529
  75.3058777  25.9525280  77.8187561  59.5467758  24.0332241  27.6893845
  58.6942596  24.0619831  28.1236935  59.3605385  23.6803665  26.8193054
  77.4440689   7.0338759  22.6358681  76.5995102   7.4782572  22.5618153
  77.2838058   6.3153396  23.2476330  36.6453247   2.0775354  45.2422676
  36.1413918   1.6797422  44.5323067  36.0064049   2.2151043  45.9416161
   3.0606327  68.1040115  22.7561378   3.3176210  68.5477448  23.5644054
   3.8856947  67.9441071  22.2979546  71.1198654  14.5798607  16.7801704
  71.8264465  14.4080544  17.4026337  70.3237534  14.3202696  17.2439041
  64.3841782  71.3046494  10.4812193  64.5571976  70.7566757   9.7157001
  63.5190811  71.0278931  10.7832842  35.8654709  64.0608826  54.4800262
  35.4803085  64.9254074  54.3369255  35.2819862  63.4592094  54.0176773
  26.8926735  68.7218246  82.6060486  27.5509052  68.5803299  83.2864456
  26.3054485  69.3818817  82.9744492  57.3561096  30.8404388  77.8908691
  56.9913788  30.1082573  77.3937607  57.6625748  30.4463921  78.7075882
  82.9070892  11.5832958  25.0525627  83.2861404  12.3464375  24.6164818
  83.2191086  11.6438360  25.9554520  61.7817383  50.2246399  44.4903564
  61.9994888  49.3875542  44.0803528  61.7252617  50.8413277  43.7604675
  59.8964920   7.6805253  73.7253265  58.9618378   7.5938268  73.5378799
  59.9588585   7.5955963  74.6767120  86.0592804  54.0975380  15.0456915
  86.3217621  55.0161591  14.9867725  85.9696198  53.8152084  14.1354809
  22.8700542  66.7579956  74.8307266  23.1861134  66.9515076  73.9481812
  23.6657219  66.6381836  75.3491745  68.5373688   8.7829351  64.2334442
  69.3907318   8.8250427  63.8018875  68.3807983   7.8476725  64.3638306
  65.3261948  14.0031519  49.9567261  65.9245148  14.3119116  50.6371040
  65.8679657  13.4492016  49.3947182  22.4811363  50.3023033  44.6742134
  23.1132336  50.4322701  43.9672508  21.7941246  49.7613754  44.2848015
   4.1381865  26.2103844  87.4078217   3.5661345  26.8665810  87.8058090
   4.3131747  26.5466461  86.5288773  24.4557838  44.1181717  49.0267181
  25.2232761  44.4370918  49.5015602  23.7194118  44.5873108  49.4190178
  51.9095001  45.7644348  69.8313904  51.6764946  46.4742584  70.4297943
  52.0445290  46.1967049  68.9880981  46.2898941  10.1732216  48.0528450
  45.9740486   9.4411173  47.5232277  45.5412102  10.7667103  48.1118202
  54.9474564  11.8656998  37.4925346  55.5810547  11.1499271  37.4429970
  54.9115334  12.2158098  36.6023865  13.3861628  47.3153114  35.4087830
  14.2001085  47.0918236  35.8601990  12.7376623  47.3927460  36.1085548
  19.0841656   0.6807422  56.4845734  19.8607006   0.1461076  56.3190727
  18.5135021   0.5128417  55.7346497   3.4289119  31.1199055  34.2444801
   4.2191820  31.3625813  34.7269897   3.6439700  31.2960186  33.3285294
  31.6372166  39.2673607  65.5989838  32.2977028  38.7611160  65.1260071
  32.0114517  40.1458168  65.6660538  46.5615311  61.8808403  57.6700897
  46.9250565  62.6884003  57.3068771  46.7500572  61.9334984  58.6070633
  11.6633482  65.4569702  78.7995911  11.4235106  64.5966263  78.4553375
  12.0306416  65.9218750  78.0478058  28.7947044  37.0794258  22.3884201
  29.6635780  37.3459091  22.6888828  28.8576317  36.1298447  22.2856121
  83.0908051  62.1573601  41.9640808  83.6384201  61.5722008  41.4406929
  82.3997345  61.5927467  42.3102951  81.2480774  63.9921837  80.3505630
  80.9455795  64.5884399  79.6655731  80.4587097  63.7789154  80.8482056
  12.3568735   3.9580238  61.1493454  12.9852791   3.5493209  60.5541153
  11.5082407   3.8325963  60.7247009  12.7070179  12.0512104  87.5882874
  12.8549709  11.9545536  86.6475449  12.6646776  12.9971924  87.7281342
  82.2031403  48.3643265  47.2847595  81.7144165  48.2494888  48.0997353
  82.3390045  49.3094902  47.2181053   3.9788628  25.5675106  62.7580719
   3.3631570  24.8566151  62.9362984   3.5118961  26.1424351  62.1517410
  56.6941833  63.3740082  12.9316130  57.0737953  64.2525787  12.9163790
  57.3396072  62.8264351  12.4845953  47.9327583  49.8468704  18.5713482
  48.5762444  49.2817841  18.1437569  47.2080650  49.8988876  17.9481773
  48.1389999   5.5087714  37.6463013  47.5361900   6.0265284  37.1126518
  48.9544334   5.4987764  37.1450996  63.9595909   1.0359766  54.3427849
  64.6905518   0.4372599  54.1896095  63.1904907   0.4680337  54.3892174
   5.5081272   1.3254460  81.4813461   6.4286518   1.2759076  81.7390518
   5.4162936   0.6665734  80.7930984  57.8000603  45.7359428  84.4353333
  57.6887741  46.0534325  85.3314590  57.0127182  46.0303001  83.9774323
  76.3566742  48.8433113  61.0066833  75.6402817  49.4779396  61.0229263
  75.9500427  48.0164108  61.2657547  14.7636013  40.3340340  79.0207214
  15.0217571  40.4949265  79.9282990  14.8572989  41.1840897  78.5907669
  80.7416687  11.1459522  80.8320999  81.5243912  11.0953369  80.2834473
  80.1396255  10.5074015  80.4499664  56.5747910  55.2880096  78.2736740
  55.9362373  54.8298340  78.8200760  56.0442772  55.7879829  77.6533432
  67.0619736   3.0329382  52.3275909  66.3198090   3.3589597  52.8366432
  66.7383499   2.9985671  51.4274139  66.8862457  33.2295113  38.3659058
  67.1931152  33.9262505  38.9460907  67.5707779  32.5619278  38.4103851
  84.4457016  68.4957428  50.2821579  85.0879517  69.2027359  50.2196388
  83.7164536  68.7854538  49.7339859  49.0338936  21.3485699   4.0487585
  48.8774261  22.2927456   4.0654831  48.6208763  21.0231400   4.8485980
  61.1703682  14.4098158  67.9776764  61.6001511  15.2471189  67.8031998
  61.0576782  14.3918886  68.9280548  18.8047352  63.1343117  21.5711594
  19.4993172  62.5292091  21.3110828  19.2679806  63.8867149  21.9392986
   7.3107586  41.2272339  28.3464451   7.5522575  41.9604683  27.7805099
   8.1388798  40.7838707  28.5304985   5.9767075  48.3105316   1.9994525
   5.4127522  49.0405312   1.7439473   5.4172783  47.7538872   2.5411327
  50.1736984  19.2688484  45.9954262  51.0967598  19.4522934  45.8206749
  50.1016731  18.3167839  45.9274673  62.1734695  48.5811005  82.7232208
  62.5636826  47.7653847  82.4092636  62.8519707  49.2412529  82.5815582
  27.2093544  34.7829819  57.2491379  26.3035603  34.9970360  57.0256500
  27.3208580  35.1141777  58.1402626  18.2773380  65.9964600  47.6454010
  18.5438175  66.6529541  47.0017891  17.4743347  65.6200638  47.2852058
  50.8115616  57.1354065  55.2997284  49.9714508  56.7574654  55.5597267
  51.3475533  57.0954628  56.0917816  67.3364410  39.3739319   3.2254937
  66.4634247  39.0205879   3.0545328  67.5165405  39.1375427   4.1353927
  23.5985279  42.3713341  60.2186661  23.3325081  43.2667618  60.4276581
  24.2117157  42.1350288  60.9146500  54.6842918  27.9081841   4.0807915
  54.9414444  27.7595539   4.9907441  54.9665031  28.8038464   3.8953857
  35.0430717  22.9861412  71.1347961  34.2600594  22.8597374  71.6706543
  34.9064522  23.8312969  70.7066803  23.6060009  40.5017052  55.3468933
  23.0990562  39.6944008  55.2602997  22.9467525  41.1922150  55.4163361
  79.8454361  22.1730442  30.4651890  80.2199707  22.7605648  31.1215248
  78.9123459  22.1417427  30.6763687  23.7404575  53.6928139  77.8797836
  23.8351231  52.7908783  77.5735397  22.8092289  53.7801628  78.0832901
  38.2786102  60.0350494  13.7418709  37.4750977  59.5354004  13.8866148
  38.6916809  59.6116142  12.9893379  73.2010498  14.2171726  33.4122887
  73.6853333  14.6969023  34.0842743  73.4020691  14.6776133  32.5975380
  28.5331650  34.4760933  85.0818176  29.2898712  34.2551041  84.5388718
  27.8636189  34.7552338  84.4572983  24.5127506  49.9182320  68.1353455
  25.2284698  50.4273796  67.7548904  24.7985344  49.7349739  69.0303116
  64.5992203  14.9084015  84.3055878  65.0598907  15.2135258  85.0871887
  65.2124176  14.3045254  83.8865891  48.0954094  70.8067932   4.6095209
  47.8149948  69.9246674   4.3657036  47.7763977  71.3642578   3.8998051
  11.8414021  49.0031204  14.7044230  11.1685543  49.6086235  14.3931780
  12.6255398  49.5440216  14.7981539  57.0733109  16.3986320  88.0603790
  57.3867111  16.8971386  87.3057251  57.5907402  15.5934458  88.0471649
  29.9971600  38.8269997  59.1195221  30.2265377  39.4827957  59.7779655
  30.8133755  38.6678505  58.6455040  53.2720795  16.5098763  78.3415298
  52.7785721  15.9582787  78.9485016  52.6016426  16.9556026  77.8237686
  38.9501152  62.2878113  58.0668755  38.5378685  63.0096588  58.5414429
  38.4880829  62.2571068  57.2291298  49.0099792  47.7113533   0.9251037
  49.2529755  48.1905479   0.1329198  49.8260231  47.6370277   1.4198612
  15.0267887  57.1079636  54.8797112  15.3826571  57.3001060  55.7472763
  14.1766005  57.5475616  54.8668365   8.8724136  15.6238832  21.1891632
   9.0372419  14.9421415  21.8405399   7.9980865  15.9509859  21.4007969
  37.5828705  31.8058109  23.3967648  38.0025444  31.9345703  24.2473679
  38.0816574  32.3607025  22.7971497  36.7286797  67.5390625  80.6718140
  36.7573891  68.4794159  80.8482742  37.6188698  67.2348938  80.8486633
  54.1028442  62.4520531  82.6406631  53.2646790  62.0866318  82.9238205
  54.0191612  63.3926544  82.7971649   4.1803160  43.1428871  87.4722290
   3.9928405  43.8428802  88.0976028   5.1278977  43.1842842  87.3433609
  59.3527603  17.5464115  40.3986855  58.9452057  16.8683968  40.9375992
  58.8394012  18.3344879  40.5765343  66.4126892  54.8313065  10.8898840
  66.4281006  55.5232925  11.5510578  67.0421066  54.1834030  11.2065601
  12.3094606  28.1882954  87.2899475  12.7294025  27.4466209  87.7256088
  11.5047464  28.3339672  87.7873917  11.9269695  58.2849464  61.3743134
  11.2491331  58.9402847  61.5395546  11.5393791  57.4602928  61.6674881
  12.1251593  69.3336487  68.6290131  12.0585995  70.1527405  68.1382065
  11.2173958  69.0668030  68.7738953  41.4717407  70.4839325  40.6509552
  41.7081413  69.5988846  40.9285088  40.9432030  70.3548203  39.8634224
  79.9745712  71.3019333  43.4249535  80.2704773  70.9006500  44.2420464
  80.3265381  70.7351685  42.7385674  60.2518387  38.1742516  28.3602600
  60.3214684  37.2196884  28.3463573  59.7161789  38.3641357  29.1304817
  85.8835297   3.9347429  19.8968353  86.6399002   3.5470223  19.4565964
  85.1320572   3.6514325  19.3760128  55.8399963  38.6458778  10.5323181
  56.2386665  38.1894188   9.7914124  55.2134094  38.0177422  10.8915787
  70.1937256  69.5274124  58.9260674  69.6387100  69.7610931  59.6701012
  70.7317429  68.8035278  59.2466240  33.5219345   4.8736310  18.6344528
  32.8375816   4.7624102  17.9745121  33.9802513   5.6719503  18.3720341
  73.1112671  28.4255943  78.2870178  73.7881088  28.0250301  78.8325958
  73.5906296  29.0153713  77.7051163  30.7535210  10.6204863  72.4825745
  29.8554630  10.9142475  72.3295059  30.7236691   9.6744509  72.3398895
  28.3457699  66.8213806  81.1929550  27.8536949  67.6074066  81.4301224
  27.6923046  66.1219482  81.1885605  43.4476852  32.6326561   2.2341590
  43.0645828  33.4558983   1.9312850  44.1653786  32.4635925   1.6237775
  70.5002441  15.4753761   9.4169970  70.7131729  14.5699711   9.1908598
  69.9397659  15.4038048  10.1896353  28.8619976  67.5433121  36.2760696
  28.2691364  68.0228958  36.8546448  29.6037712  67.3092422  36.8339310
  20.9758434  52.3169899  71.1798019  21.4166527  52.2783890  72.0285873
  21.5132656  52.9126434  70.6576843  65.7099609  16.6416950   2.3949785
  64.8587112  16.5389252   1.9694976  65.5108948  16.6451836   3.3312426
  81.1736526   3.7009499  10.0258350  80.6192398   3.8207488  10.7968788
  80.7728043   2.9711518   9.5536613  75.1822662  15.5345659  83.3312378
  74.2949905  15.4250383  83.6732635  75.1554489  16.3659306  82.8575897
  70.6946793  36.9386139  24.9605045  70.9258423  36.7587204  25.8717861
  71.4328232  36.5988426  24.4546089  40.3671570  37.4550438  31.3564758
  41.2737694  37.6777229  31.5678864  40.3902893  37.2093468  30.4316349
  16.7603436  47.4279213  42.0574989  16.5311947  48.3095665  42.3514709
  16.9363060  47.5256462  41.1217003  64.1359482  36.9174042  20.8590374
  63.4807968  37.1902199  21.5013599  64.1354752  37.6161652  20.2048473
  31.5826550  58.9873505  33.4193382  31.8092670  58.2209396  33.9461136
  31.5233955  59.7035484  34.0516167  37.1863022   6.0564165  24.9511242
  36.6092720   5.4625463  24.4709320  37.2285919   5.6878810  25.8335209
  72.3224487   8.6963377  27.4780731  72.4710846   9.4964066  26.9740601
  73.0753098   8.1414833  27.2741890  40.4985390  36.2203217  12.5051107
  41.0975914  36.9155312  12.2329912  39.8394318  36.6665878  13.0367622
  46.4949188   5.4747953  70.4071350  47.3616676   5.2203140  70.0905609
  46.6642036   5.9182405  71.2383575  82.1034088  13.6118059  72.4515152
  82.3185654  14.2543554  71.7754440  81.2922058  13.2055426  72.1463470
  81.3194504  21.1763382  74.6202927  81.6156387  22.0004101  74.2337570
  80.6129608  21.4305420  75.2140045  31.1127644  17.1715603  86.8081055
  30.6928558  16.6269741  87.4739380  32.0297623  17.2165604  87.0788879
  18.8916931  64.3855667  68.6763077  18.8917027  65.1722946  68.1310654
  18.4490185  64.6524963  69.4819260  67.9380417  54.7511444  52.2383080
  67.4914169  54.3212814  52.9676704  68.6891861  54.1878624  52.0519638
  47.3055077  56.9176750  11.1729107  48.1550026  56.5186768  10.9847927
  47.1751938  57.5485954  10.4649658  28.2967319  50.5867424  36.2887955
  29.1932793  50.5325851  35.9578857  27.7494640  50.5546379  35.5041313
  80.2007370   9.1002760  30.0447083  80.4631042   8.3357344  29.5320015
  79.7700729   8.7342834  30.8172436  46.4290848  62.3880997  68.4685822
  46.4801903  62.8436623  69.3088760  47.2352600  61.8738441  68.4255219
  76.2695389  58.6122971  68.6396713  77.1685257  58.3214111  68.7927780
  75.9384766  58.8352242  69.5096893  33.2457123  50.9323883  24.9067669
  33.0786552  51.8232002  24.5989037  32.4474182  50.4505615  24.6904449
  75.2112656  58.2844849  34.1376305  75.9701233  57.9378891  33.6683311
  74.4753113  58.1398621  33.5429192   3.0281870  45.1939125  76.6227875
   3.3771434  45.2874222  77.5091934   3.2709339  44.3053970  76.3623123
  15.2135849  38.5572395  52.6264801  15.3696117  38.4078484  51.6939735
  16.0080414  38.9926376  52.9355087  20.7034626  41.9566917  67.1231537
  20.8446140  41.1179237  66.6840820  20.6693783  42.5965271  66.4120407
  20.4501228  44.9377785  82.4929047  20.4041500  45.8831215  82.3499222
  21.3872528  44.7437401  82.5121231  73.0711365  32.6591454  38.4538383
  72.1953278  32.8668556  38.1281891  73.4682236  33.5113678  38.6334801
   1.1326706  44.1470222  55.4636230   0.8066579  44.7210655  54.7704964
   1.9846065  43.8478622  55.1459122  46.3283920  70.1762848  20.3521881
  46.5840454  70.7063293  21.1071205  46.3201294  69.2777939  20.6821461
  59.6526566  17.8570728  49.4484100  60.4634972  17.9435463  49.9497032
  59.0871735  17.3156376  49.9991417  46.1861572  68.1426773  73.1014328
  46.6799278  68.0670700  72.2849121  46.7193489  67.6795425  73.7475281
  72.0407486  12.5505066  53.2480659  71.2618332  12.5383759  53.8042908
  71.8783798  13.2578640  52.6239548  53.5915298  59.2487602  65.8363571
  53.3027954  58.6846199  65.1189957  53.8003273  58.6434860  66.5478973
  58.9515686  44.0948257  18.3579292  59.8868179  44.0466957  18.5559826
  58.5720558  43.3408318  18.8092537   3.3301537  45.2480202  18.2347660
   3.6891704  45.8108559  18.9207363   3.8426411  44.4417381  18.2938843
  42.3025856  66.0918884  59.1887741  42.1357422  66.8920059  58.6905746
  43.2530518  65.9833069  59.1562729  75.5999069  13.9013290  58.1778831
  75.4425888  13.8627214  57.2344894  74.7559509  14.1554537  58.5512390
  84.6828766   9.6948376  46.2796707  85.2752533   9.0126839  45.9634628
  85.0042267  10.4990025  45.8718910  50.7886162  61.6122322   4.5183544
  51.5743446  62.1018295   4.2751389  50.1025772  61.9627457   3.9502673
  86.4379730  23.4733753  51.8066330  86.5658798  23.4677944  52.7552299
  86.0800323  24.3409290  51.6183205  57.0410805  63.8138504  42.6809464
  56.6088638  64.0596390  41.8630180  56.3228760  63.6638527  43.2956886
  36.9987831  30.3025093  86.7425156  37.6276245  30.7069817  87.3401718
  37.0644646  30.8197269  85.9397736  65.6318436  63.9374466   5.7946568
  66.4095612  64.0605469   5.2503819  64.9119415  64.2794724   5.2645712
  42.4730911  62.8836975  45.8725586  42.7119522  63.3942108  46.6462212
  42.7581482  61.9928703  46.0760422   3.1909873  32.9749947  45.5204239
   4.0295091  33.3548088  45.2580299   3.4085898  32.0871620  45.8043900
  11.5663853  59.9253731  56.1986465  10.6101046  59.9542046  56.2291374
  11.8223934  59.5663834  57.0482445  49.2831612  22.5819664  81.7262039
  48.5282402  22.3892422  81.1701584  49.1042137  22.1160049  82.5429611
  16.2331524  54.5904579  38.0594788  15.6840134  54.9221649  37.3490906
  15.6147642  54.2055054  38.6804771  81.2579269  63.2627373   4.9172988
  81.5891724  63.4029884   5.8043385  82.0052872  63.4517250   4.3498783
  37.1496506   0.3169431   3.7331715  36.3048439  -0.1293844   3.6755204
  36.9272919   1.2248662   3.9392395  57.1282158   3.2723966  52.5757103
  57.5247154   2.4315968  52.3475075  57.8566666   3.7994776  52.9040108
   0.6464332  68.6438065  63.9070511   1.0703976  69.4988861  63.9800339
   0.0629320  68.7293549  63.1531029  54.3712654  59.9652405  19.8135071
  54.4828110  59.1302528  20.2680244  55.1725197  60.4519844  20.0066586
  24.8362236  24.8793507   0.0739484  24.0375347  24.9688377  -0.4459740
  24.8421631  25.6521149   0.6387779  82.9853973  48.8063850  72.2184830
  82.3043213  48.2948990  72.6552200  83.2292099  49.4758072  72.8577499
  52.9681549  51.7006607  76.4384079  53.2714653  52.6069221  76.4924698
  52.9348145  51.5148277  75.5000076  19.2238674   3.2442186  75.2393341
  18.8557034   3.0264192  74.3830338  19.2374229   4.2011433  75.2578506
  86.0418625  51.7489243  27.0999565  85.7778244  51.3580093  27.9328442
  85.2172546  51.9420166  26.6539059  21.8099651  44.1170120  17.3360882
  21.6026535  43.3758507  16.7669373  22.6968327  43.9382133  17.6487007
  74.9469757  32.9656334  25.2203712  75.3811569  33.1585579  24.3894062
  75.2925110  33.6190796  25.8285198  83.7930832  29.1858940  69.0795746
  83.8039093  28.2391987  68.9385757  84.6178665  29.4934902  68.7036133
  74.9964752   1.9055068  65.5742950  75.3207397   2.8060844  65.5674896
  74.2379074   1.9196551  64.9906769  16.5880947  69.3822098  52.1945992
  16.7191620  69.9819183  51.4601555  16.4944153  68.5212173  51.7869911
  60.9909019  62.2436104  86.4314194  60.5620575  63.0791130  86.2463303
  60.5121193  61.8894768  87.1808167  49.7181778  63.0546455  15.1201048
  49.6015739  62.3805771  14.4505777  50.4541245  62.7437668  15.6473370
  79.0360794  54.2236710  46.3791275  78.5263824  53.4392395  46.5818748
  79.6589966  53.9384117  45.7106705  69.7735443  56.5335007  48.3362694
  69.1556091  57.2492828  48.4847336  69.3120117  55.7518005  48.6398621
   0.9316793  55.1161118  55.2405701   0.9653275  55.8508034  55.8532104
   1.3354851  55.4526291  54.4406128  10.5035763  54.9584427   4.7783370
   9.5643206  55.0810890   4.6405416  10.8850670  55.0274239   3.9031577
  70.8386459  46.8151321  49.1870804  69.9166412  46.9894905  48.9980469
  70.9498138  45.8833504  48.9982338  16.1114349  15.4525146  74.2008743
  16.6641960  14.7458019  73.8673401  15.5981607  15.0459414  74.8990707
  12.4416189  43.0643005  85.7767715  13.1690483  43.4733772  85.3080139
  12.1583710  43.7280846  86.4055786  82.2280807  64.5853424  61.2333031
  82.7647476  63.8328018  61.4821014  81.3911743  64.4389191  61.6741791
  60.7199554   9.5519953  57.1880074  61.0159149   8.6456003  57.2721825
  60.0434723   9.5212164  56.5115013   0.9856788  17.4052830   7.0204916
   1.4742595  16.6186085   6.7782826   0.1301223  17.0793495   7.2998171
  52.0227280  32.6910629  54.0572510  52.1125526  33.1160851  54.9101982
  51.1882477  32.2249756  54.1085968  19.1119957  15.4455929  20.7795315
  19.4237652  14.9411907  21.5309372  19.8755035  15.9477634  20.4947262
  15.9853382  44.6129608  12.6498194  16.4170036  43.9455070  13.1831121
  15.6232176  44.1291504  11.9075089  60.9282951  23.3432751  84.8779755
  61.5537033  22.7559452  84.4535446  61.2625694  24.2214470  84.6954803
  50.3944359  59.2928505  15.8368149  51.1405449  59.1540337  16.4201527
  49.7096863  59.6473579  16.4039783  59.8577881  23.7039833   1.3445661
  59.1326218  24.0256672   0.8089507  60.6392365  23.8809166   0.8208627
  55.0114365  24.9786835  79.6081543  55.1880150  24.3093796  80.2692795
  54.5322647  25.6602745  80.0793915  48.9749451  47.6436691  16.5796833
  48.0521545  47.5872040  16.8276825  48.9717751  48.1270447  15.7535057
  45.3163757  17.4494419  44.6747704  45.3507385  16.5492859  44.3510895
  46.2304840  17.7329102  44.6917763  22.4666481  50.8688545   3.1310177
  21.8811684  50.7604752   3.8804848  22.8847008  51.7179031   3.2744780
  51.5665588  11.5594902   6.9258113  52.4480133  11.3226156   7.2141838
  51.0144157  11.4061193   7.6925235   4.5997977  40.8742828  51.3973808
   4.7621207  40.0001793  51.0426674   5.4611101  41.1819305  51.6797371
  81.5336838  65.1763077  75.9036789  80.8852768  64.4837799  75.7763596
  82.2148743  64.9882660  75.2580414   6.6092472   0.1040548  77.1151733
   6.3390665   0.7769405  76.4903030   7.1488147  -0.4969993  76.6015244
  81.7246780  69.9939346  34.1572723  82.6753922  70.0771637  34.0834770
  81.4599609  70.7401199  34.6952095  29.3806705  57.8245392  69.8799744
  30.2575092  58.1902771  69.9966888  28.8052177  58.4268608  70.3514557
   5.4307113  30.7692757  63.1301842   5.9753499  30.0278873  62.8657150
   6.0391097  31.5062981  63.1838760  59.5478516  26.8649788  12.1908255
  60.0450134  27.4280491  11.5975180  59.4599266  27.3803310  12.9926453
  51.5476761   8.1093416   0.7669175  52.4483032   8.2775631   1.0440528
  51.1241951   8.9673061   0.7950954  71.2377625  57.9885483   1.8451718
  71.0960083  58.1259727   0.9085539  71.3713913  57.0446358   1.9312288
  29.5469246  20.7724152  15.7757044  30.4276104  20.6653385  16.1350918
  29.6855984  20.9080143  14.8383598  38.7583160  68.4575195   9.2997122
  39.1248703  68.7279205  10.1415854  38.6064262  69.2776566   8.8301010
   0.4926723  17.5831528  39.7931061   0.8837140  17.1838436  39.0160141
  -0.3218209  17.9743786  39.4772339  69.4519424  64.9180679  50.4976082
  69.1383362  64.0756226  50.8264999  68.9482193  65.0651855  49.6970711
  75.6845703  55.0786476  17.0409069  75.1391373  54.3105965  16.8711033
  75.6018448  55.2276497  17.9828129  -0.2151411  39.2683144  43.4029808
   0.1072343  39.2809219  42.5017891   0.2214643  40.0088692  43.8239174
  82.4787292  52.1071587  46.7112236  83.4059143  51.9358025  46.5463066
  82.4750443  52.7080154  47.4563293  28.6252956   3.0250523   4.8362103
  28.6980095   2.0745399   4.7497754  27.9337139   3.1543248   5.4852362
  65.6153717  54.8138161  56.4362068  66.5185318  55.1308861  56.4348755
  65.1099701  55.5319595  56.8170853  72.9606476  47.7979698   0.7235510
  73.2593460  48.6785164   0.4962952  72.1077042  47.7168007   0.2967962
  10.4593306   0.6832551  46.0615082  10.6338692   1.4899071  45.5766563
   9.9616461   0.1396287  45.4507599  78.4970245  62.6191673  50.3903275
  78.1445923  61.8940582  49.8743401  78.4831696  63.3670654  49.7930908
  85.0016861  54.3920708  46.9021873  84.0511856  54.3254623  46.9935379
  85.3244629  54.4602890  47.8007355  33.4316139  26.4812012  77.1697235
  34.3454666  26.3393669  76.9227600  33.4509621  27.2642040  77.7199631
  65.1452103   3.9559333  57.3153114  65.3789215   3.0278025  57.3017159
  64.5744934   4.0703678  56.5554276  19.3821526  50.6968575  35.5499802
  18.7579556  51.2816505  35.9796600  19.3780098  49.9051361  36.0879326
  78.5805664  69.7119675  57.5181160  79.4672089  69.7373962  57.8778992
  78.0104828  69.6966553  58.2868805  45.9729919  63.4470367   7.2104173
  46.8254929  63.5033493   7.6420474  45.5662422  64.2984009   7.3715496
  40.1452065  61.0268250  69.4731979  39.4842262  60.4012871  69.1764755
  40.7006416  61.1699142  68.7068710  10.7197475  33.0780411  62.2808189
  10.4019079  33.6842155  62.9499702  10.1038551  33.1781769  61.5549545
  54.4478035   4.9962106   3.4682608  54.7110672   5.5532069   4.2008452
  54.1752090   5.6102304   2.7864230  76.2903900  41.9893265  34.4370003
  76.2318420  41.2204018  35.0040588  75.3809738  42.2024803  34.2278290
  55.3328705  30.7053986  25.4382286  55.7503319  31.0821724  26.2128277
  55.1949081  31.4509430  24.8539677  59.8755341   6.8534126  85.0736694
  60.1505013   6.0619645  84.6108170  60.2419472   6.7563567  85.9526215
  34.4216080  35.2118797  63.1940041  34.9669228  34.4739647  62.9213524
  34.5132675  35.8513031  62.4876289  25.4153175   7.2002711   5.5973201
  25.6269073   8.0392590   5.1879783  26.2661190   6.8008933   5.7786059
  65.8399124  56.8802338  31.8760662  65.3011093  57.4988899  31.3829327
  65.2540741  56.1458931  32.0598145   7.3952036  54.9141960   6.9410419
   7.1302600  54.0993042   6.5144415   7.1006155  54.8172455   7.8466082
  64.1070328  18.4663792  42.8562164  64.5851364  18.1392727  43.6182213
  63.2712746  18.0003490  42.8796730  58.4889717  21.2029152  82.8700485
  57.9696922  20.4975567  82.4839706  57.8701057  21.9253693  82.9763336
  39.6343002  19.3106594  76.8300476  38.9013252  19.3498020  76.2156830
  39.2228775  19.3144531  77.6943130  63.9772682  58.5598335  24.5326271
  64.2594528  57.7253227  24.1581993  63.5894852  59.0335770  23.7968140
   8.6073236   1.7030649  60.0849762   8.1821346   1.1536262  59.4265213
   9.4676037   1.3029035  60.2115517   8.0556803  68.6819611  14.4500284
   7.3425980  68.2575378  13.9729404   8.5317364  67.9603500  14.8609781
  26.8382778  70.2558289  29.5837708  26.7322216  69.8509979  28.7229004
  27.5916214  70.8377838  29.4836063  66.9088211   2.6369781  33.6645470
  67.7512894   2.2738295  33.9376717  66.5083923   1.9442223  33.1392136
  39.2288437  52.1541176  54.2815361  38.5376587  52.6610336  54.7075996
  40.0119438  52.3317146  54.8025360  13.6621094  63.6747055  71.5004120
  13.6020870  64.5795135  71.1938934  12.9654064  63.5958557  72.1520386
  84.7278900  59.0292511  84.5917740  84.1662064  58.2823677  84.7989197
  84.7134705  59.0820084  83.6361313   8.1779089  54.1468811  82.1485672
   8.9778404  53.9620895  81.6564407   7.5957761  53.4154205  81.9428635
  14.4476004  17.1030216  24.9135094  15.2462530  17.2478485  25.4208660
  14.3098660  16.1564369  24.9486542  35.9650993  23.2070389   1.1406709
  36.4543114  23.4020424   1.9399687  36.3455276  22.3890953   0.8205545
  79.4245911  46.1321983  41.5038223  79.2530899  45.2391052  41.2051544
  78.6183014  46.6093292  41.3076820  53.6137047  65.8806381  20.3089581
  53.3009377  65.9588242  19.4076843  53.1413422  66.5626526  20.7864189
  62.0622864  38.4591408  54.8796654  61.9988708  39.2819786  55.3645859
  62.5032005  37.8596878  55.4817314  32.4346657  67.6328888  76.6962357
  32.1011505  66.8251724  77.0868607  32.1256714  68.3262863  77.2792892
  27.1196861  63.7009163  21.8062687  27.3482800  62.7850113  21.6478462
  26.3578682  63.6610832  22.3844376  39.4039001  44.0546188  60.4543037
  40.2276573  44.3094330  60.0387039  39.6458855  43.8432083  61.3559570
  24.0181160  70.0749512  82.7812958  24.0886517  70.1843338  81.8329849
  24.2064247  70.9433289  83.1372223   0.9356917  20.4284229  57.5102272
   0.5463493  19.8214874  56.8807259   0.7313223  20.0502205  58.3654633
   0.6044852  26.5380878  41.9065170   0.5490890  26.7073364  40.9660301
   1.0630269  25.7004662  41.9725418  49.3875465  23.3602715   2.1902094
  50.1454315  22.9398823   1.7838662  49.5377159  24.2973003   2.0650780
  51.3140335   7.1305509   5.1407495  51.5887375   8.0387201   5.0142612
  50.3729668   7.1384144   4.9659424  70.9521408  57.7135658  45.9978828
  71.2090530  57.1241875  45.2887611  71.2849274  57.2934227  46.7909546
  86.4344330  43.4187775  68.6611710  86.0257034  43.2471161  67.8128204
  87.1169815  44.0627327  68.4722672  65.0705872  62.2147484  18.6391697
  65.9829102  62.3986244  18.8629913  64.8405151  62.8883896  17.9992447
  81.2868729  57.4532661  68.4523087  81.4761124  57.1343536  69.3347549
  82.0415039  57.1786194  67.9314194   3.1459696   5.7381821  81.1404114
   3.5272355   6.5646625  81.4367218   3.7799153   5.0725889  81.4074860
  26.6974030  59.9569855  76.0828400  27.2465973  60.3727417  75.4181824
  26.6423969  59.0412865  75.8095322  65.7787857  67.5876617  88.6284180
  66.2223358  66.9828644  88.0336761  66.4549179  67.8470688  89.2543488
  50.9834251  42.0411835  14.3076763  50.3984871  42.6795235  13.8995066
  50.8009224  42.1138306  15.2445049  60.3016472  50.9538078  68.0746918
  60.1610031  51.8613358  68.3445816  59.4674911  50.6867447  67.6885605
  25.3507156  38.5088120  88.1783829  25.0290985  38.3530273  89.0663681
  24.6351089  38.9712334  87.7421417  37.3239021  58.7267189  68.8284683
  37.2188721  57.8336906  68.5002823  37.7312126  58.6196480  69.6880417
  75.3513947  53.0463638  66.1103210  75.6498642  52.6727142  65.2811508
  76.1542892  53.1888847  66.6116028  66.2365570  56.8588676   0.4981906
  65.6553650  57.0034676   1.2448756  66.2821121  57.7096100   0.0618553
  52.9157295  57.9974937  39.6374474  53.6392136  57.5701103  40.0958633
  52.7072792  58.7600136  40.1772118  23.4142723  36.9827957  65.7514343
  24.2349834  37.2907944  65.3669891  23.1894970  36.2032852  65.2434235
  62.2056656   2.0548351  78.8189774  62.7126617   1.2664005  78.6251755
  61.5714073   1.7754718  79.4792099  59.4642677  14.1565151  79.1148605
  59.8422012  13.8517418  78.2899323  59.5783882  15.1066589  79.0940323
  56.5726280   9.1316729  43.1623344  56.9530373   9.0708857  42.2860794
  55.9743881   9.8772354  43.1125336  47.8850288  15.0797272  74.6726990
  48.4288979  15.8070507  74.9750900  48.4282799  14.3029451  74.8058243
  59.8938789  55.9493332   4.6467562  58.9834671  55.7567520   4.8710284
  60.4028587  55.5645905   5.3602962  31.2246361   7.1028214  10.0121727
  31.8874626   6.6615448  10.5433655  31.4552364   6.8823743   9.1096992
  17.9823208  24.5571213  75.6003036  18.1250801  24.2911320  74.6919556
  17.2373009  25.1567497  75.5600204  63.2873001  65.7451019  36.0122528
  62.4282265  65.6618729  35.5983658  63.5606422  66.6417465  35.8185081
  84.8879318  61.5593452  29.9798031  85.2647781  62.0435104  29.2450924
  84.9568329  60.6402359  29.7215023  53.4907341  51.7332649  59.0091133
  53.7040977  52.6234283  58.7292595  52.6250916  51.8093872  59.4104881
  29.1203403  57.1465378  28.6697979  28.4521675  57.3374367  29.3280811
  29.5106087  57.9976234  28.4708500  61.6249886  36.3270531  51.0253334
  61.2545280  35.7434349  50.3632278  61.0564156  36.2162743  51.7873611
   4.0426893  45.6476097  43.2397346   3.3637829  45.9379120  43.8488655
   3.5641451  45.1921730  42.5470543  73.1527023  40.2052917  36.0040207
  72.6788254  40.1675262  36.8348312  72.4736633  40.3622932  35.3479004
   4.1072502   6.4707241  50.5196075   4.1195011   6.8136468  51.4131889
   3.4577677   7.0078330  50.0658264  44.8950768  39.0212898  63.3345642
  44.3885078  39.3404694  62.5877419  44.6297493  38.1066246  63.4306030
  50.5213203  47.6195145   8.1530409  51.3421326  47.5671158   7.6633930
  50.4619980  48.5357094   8.4237757  63.5160713  60.7059326  66.9139481
  63.4844475  60.8125343  65.9632263  64.3444977  61.1095963  67.1727982
   8.0166101  53.9211235  42.0673599   8.6807566  54.6085663  42.0167198
   7.7578330  53.9055099  42.9887848   2.2211058  52.3763428  30.0264091
   3.1252155  52.2987709  30.3310394   1.8917184  51.4776077  30.0225525
  26.7393036  45.4743500  28.0499783  26.7763062  44.6876030  27.5060196
  26.0193748  45.9865150  27.6817093  57.9565887  36.8442688  25.2824650
  57.7597961  37.6847191  25.6961689  57.7148132  36.9667664  24.3644390
  78.2332306  66.5189972  33.1216278  78.4033737  65.6861725  32.6815414
  77.8799133  66.2706985  33.9758797  38.2213020   3.3062029  47.7195053
  38.9473610   2.7785819  48.0522003  38.6383934   4.0921607  47.3666077
  67.9223404  22.7953014  74.2851028  68.0400391  22.3990269  75.1484375
  68.4914780  22.2859364  73.7081604  13.2976427  60.4196281  17.6329498
  13.3323240  61.0251884  16.8924618  13.0824099  60.9721794  18.3843441
  45.7448921  42.5822334  75.4860535  46.3163109  42.2288971  74.8042450
  45.3709564  43.3736916  75.0987549  79.8448029  11.3525457  66.9344101
  79.6731873  10.4543304  66.6515808  79.0041122  11.7994738  66.8357391
  24.1417103  66.2384644  80.7216568  24.1904354  66.9040833  80.0354919
  23.5364647  65.5822678  80.3762360  28.3684006  48.1310997  82.5688171
  28.0439091  47.3655853  83.0430832  28.1883373  48.8683243  83.1521759
  72.7128143  58.0453072  42.3479309  72.6490250  57.4023285  43.0541458
  72.4896927  57.5549736  41.5567131  40.2412453  42.1186829   3.5826788
  40.0085182  41.9914970   4.5024037  39.7862320  41.4144516   3.1208849
  75.6638336  45.7869492  34.4803085  76.4088745  45.1868668  34.5125504
  75.6355133  46.0849876  33.5711288  78.5191879  63.3862076  81.7169113
  77.9564056  63.5168648  80.9537277  78.4408493  64.2001877  82.2144318
  85.5666580  43.8684769  77.6380692  85.9960022  43.9370193  78.4908295
  85.1711044  42.9968338  77.6384354  79.7624893  26.8015614  88.9349823
  80.1767349  27.3770866  89.5779495  78.8702698  27.1381283  88.8519745
  82.0128098  41.8654747  18.1483555  81.9297791  42.6839218  17.6589832
  82.6129532  41.3336830  17.6256218  58.9566498  59.1383514  86.3654327
  59.3120956  58.7327538  85.5746231  58.1355858  59.5395126  86.0805435
  50.3488770  60.2556000   1.0093267  50.1026649  60.3816948   0.0929687
  49.5624962  60.4885483   1.5028565  55.0731659  44.6718941  22.2765789
  55.7028580  45.2484627  21.8438091  55.6066399  44.1232109  22.8515453
  85.5716019  44.7923393   5.6853719  85.6831741  45.7277565   5.8550167
  86.3872375  44.5270424   5.2604055  11.6872463  65.9115753  66.1632919
  11.9647207  66.0131531  67.0737457  11.4271469  64.9930573  66.0932236
  70.1761093   2.7316771  30.1582127  70.1776657   3.5686691  29.6938057
  70.1136627   2.9709566  31.0829163   8.3483763   0.6731420  81.8045883
   8.6109886  -0.1881130  81.4797745   8.2499380   1.2067226  81.0160294
  85.4415436   9.7094574  84.0494385  84.6231384  10.0615759  84.3993683
  85.1765060   8.9341698  83.5545502  30.2016392  38.8338165  88.1371613
  30.0703201  38.2232895  87.4117355  29.9778786  38.3286858  88.9188309
  59.9681473  28.9798660   1.8587881  60.0649796  28.6352806   0.9710291
  60.3856239  28.3239899   2.4171510  67.7073822   7.3014846  60.9204521
  68.5581818   7.6725016  60.6865234  67.2816391   7.9856086  61.4371262
  84.2168350  71.2324753   6.8735585  83.5525742  70.5684357   6.6890368
  84.2713013  71.2577820   7.8288727  47.3736382  39.4952202  62.5787239
  46.5393867  39.3559685  63.0269012  47.8769531  40.0485497  63.1759949
  60.3178444  54.1335373  56.7928886  60.5845833  53.8069115  55.9335861
  59.5235023  53.6413345  57.0002060  51.2678261  53.1767578  83.5680084
  51.2997780  52.8067970  84.4502487  50.3371696  53.1824265  83.3442307
  35.2819748  33.6253891  83.6957703  35.1453667  33.8338661  82.7715912
  34.7300110  32.8592453  83.8526001  51.5155640  56.0124817  19.9364948
  51.3875847  55.8874092  18.9961700  52.4037323  56.3610916  20.0130520
  26.7478733  54.2339897  27.5937424  26.5646877  55.1664314  27.4787292
  26.7104683  53.8715897  26.7085876  10.9639215  64.6907654  61.7300148
  10.5467129  65.3419495  62.2940445  10.5613022  63.8604393  61.9843559
  79.8857193  10.7195549  37.8074379  79.0607986  10.2819300  37.5971336
  79.8002548  10.9613485  38.7296448  73.7086411   9.8158207  81.2588272
  73.5641251   9.4684582  82.1389923  74.1627808   9.1122084  80.7952347
  72.1279831  67.3776627  23.1959381  71.3488464  66.8319550  23.3025990
  71.8460007  68.2525635  23.4629002  59.3495750  27.4630127  22.9359741
  58.5271454  27.8522205  23.2332249  59.6295738  26.9091015  23.6646805
   3.8069797  18.6631355  89.0094452   4.1304846  18.9876900  88.1690674
   3.2224245  19.3529301  89.3236237  23.4782352   6.7999873  17.5631962
  23.7219009   6.3658466  16.7456493  23.4714088   7.7323103  17.3464947
  13.8894205  44.2550430  19.8996620  13.7874107  44.4078751  18.9602642
  13.4856939  45.0188255  20.3118153  69.9043808  30.1113396  11.9743233
  70.8602142  30.1614304  11.9637918  69.6440430  30.6580181  12.7156725
  33.4136810  62.9118919  25.4213085  33.6552010  62.6900177  26.3205700
  33.8721390  63.7336693  25.2459946  74.7992249  16.3928127  23.0859642
  73.9830475  16.8715343  22.9413757  75.0302277  16.0473175  22.2236977
  13.9401827  55.0289078  53.6123428  13.9348125  54.5615654  54.4476852
  14.4561872  55.8170319  53.7821350   7.6499972  42.2412224  83.1414795
   7.6959739  42.4550476  82.2096024   6.8069496  42.5935364  83.4267426
  64.5818024  23.9216118  70.8777695  64.5122223  24.8752403  70.9222641
  63.7055626  23.6068993  71.1000137  63.2853775  34.0200272  50.4437904
  62.4573441  34.5001640  50.4514198  63.8067589  34.4524536  49.7674751
  45.3186531   6.8842063  10.2551432  45.3906288   6.1275587   9.6733046
  46.1585655   7.3347926  10.1671066  73.5703506  56.8810577  47.6374168
  74.1317291  56.1982155  48.0045853  74.1186523  57.6656456  47.6338272
  33.5423164   0.7840194  79.6881332  32.7192726   0.6270059  80.1509247
  33.3034897   1.3633801  78.9645767  42.1861496  45.4442749   9.7087660
  41.5947914  45.0292282   9.0808611  42.6940269  46.0644531   9.1856308
  68.3645935  27.3401642  62.4434166  69.1971970  27.3724632  61.9722939
  68.3202057  28.1754017  62.9088631  41.9563522  32.2980957  46.5132599
  41.0500946  32.0314255  46.3589211  42.1104355  32.0996170  47.4368935
  36.8339920  40.0019302  21.4805660  36.2560692  40.6786537  21.8331051
  36.8821793  40.1923447  20.5437355  36.4620705  55.9655533  46.8834686
  36.0663795  55.1117630  47.0587006  37.1265564  55.7894135  46.2173882
  53.8010139  35.2145195   7.3982267  52.9284821  35.0339813   7.7479715
  54.3863487  34.6648445   7.9192572  71.2187271  47.4117546  64.7971191
  71.3375854  47.1564293  65.7119446  70.4673309  46.8981209  64.5007858
  82.8510437  38.2847710  42.1316872  83.1960144  39.1229858  42.4392891
  81.9004822  38.3959389  42.1494827  47.8090973  14.0030918  21.4449158
  47.0258141  13.8350010  21.9687862  48.5290298  13.6580820  21.9730225
  21.0536766  38.2730255  44.4721527  20.6148472  38.1438103  43.6313400
  21.9870872  38.2353630  44.2634468  71.3101349  26.3584118  29.6741905
  70.3677216  26.5024910  29.7598476  71.4907074  25.6101093  30.2431087
  65.8603134  66.4304810   3.0293286  66.4543381  66.8381805   2.3991258
  65.0358658  66.9050446   2.9230199  49.6520882  49.0111198  46.9333992
  48.7411118  48.8762131  46.6723328  49.6327248  48.9897804  47.8901634
  11.9070311  28.8005829  84.5430298  11.0468140  28.8067245  84.1232452
  11.7199974  28.6541729  85.4702911  55.9128990  22.8057709  69.5759506
  56.2853088  22.3216896  68.8389206  55.8951416  23.7159691  69.2802200
   6.4307790  33.3888321  31.5644722   6.7983308  32.7640038  32.1895561
   6.1682687  32.8527412  30.8161907  56.0892830  24.9381847  58.0031586
  55.4259109  25.6267452  58.0485115  56.3711777  24.8170910  58.9098587
  74.5445786   6.6604891  51.1031418  73.8644180   6.4258027  51.7344360
  74.4941025   7.6142817  51.0401764  23.0417919   1.1797373  74.5579300
  22.8838062   1.9777001  75.0624390  23.6783371   0.6895019  75.0782242
   9.7403793  67.4927444  11.6807680   9.3562746  66.7546158  11.2076302
  10.4077015  67.0968094  12.2412586  77.9937439  41.4598198   1.8871548
  77.3153915  40.9808006   2.3631952  78.1680908  42.2296448   2.4286356
   5.9173684  50.2088318  78.8989487   5.7040820  49.3163223  78.6266098
   6.7705593  50.1315193  79.3259354  59.1337128  70.9261398  35.6882362
  58.1973457  71.1128693  35.7559319  59.5329628  71.4481277  36.3841934
  69.3271408  44.1266174  27.1858673  69.4409714  44.7835464  27.8726826
  68.7228699  43.4875031  27.5635204  16.4583988  48.8613892  76.3874283
  15.8734636  49.6027184  76.5440063  15.8714762  48.1274338  76.2055969
  86.0717468  39.9078026   1.3178096  85.8790512  39.0571747   1.7121863
  85.4294586  39.9963493   0.6136393  30.7113934  68.6305466  16.6800537
  31.5556316  68.3589325  16.3198891  30.2159042  68.9399948  15.9217892
  70.5383682  21.2791233  19.1690083  69.7743912  21.4556446  18.6199951
  70.9054565  20.4689655  18.8152885  16.1481667   6.8962517  77.6089401
  16.2475758   6.0500903  78.0452423  16.2398071   7.5401063  78.3112793
  49.4714470   7.5561595  87.2538376  50.4055748   7.4637127  87.4411697
  49.4399261   7.9629421  86.3879471  25.1448917  36.9239540  35.4053383
  24.7749081  36.7122803  36.2623901  26.0531387  37.1638069  35.5891609
  25.2438507  61.9821434  57.5261803  26.1296597  61.8931351  57.1745453
  25.2695503  61.5148735  58.3611832   7.0697646  33.6453285   8.4266548
   7.8134189  33.1376762   8.7514629   6.3024259  33.1245041   8.6636486
  60.6350441  60.8079224  75.4119492  60.0062141  61.2307701  75.9967575
  60.3856697  59.8838120  75.4199524  25.9365959  59.1154480  66.5624619
  26.4221096  58.4759750  67.0835953  25.4089451  59.5942497  67.2016525
  31.3344002  44.0615578  62.0057564  31.8447857  43.7016106  61.2803764
  30.7517490  43.3480644  62.2659035  29.9785233  64.8298798  30.2781429
  29.5199852  64.2525177  29.6677074  29.3512268  65.5285568  30.4640942
  21.7877064   2.6115236  68.1083145  21.9582653   2.0369298  67.3619995
  22.6514797   2.9357266  68.3633041  80.0928650  27.7254047  50.4485970
  80.2524567  27.3238373  49.5944862  80.2124786  27.0115662  51.0749817
   1.8864888   9.7411070  83.7978287   1.2695379  10.4316702  84.0401611
   2.3258705  10.0759745  83.0161362  60.3425140  18.5271568  19.8886929
  59.4059258  18.6720467  20.0230160  60.7536316  19.3462353  20.1649666
  55.1711998   2.9621394  49.1335831  54.3360443   2.6671846  49.4965515
  55.0421562   2.9380081  48.1854286  24.3976917  67.3212280   4.0542617
  25.0248661  67.0930405   4.7404194  23.7476673  67.8676376   4.4960041
  71.4886932  59.2193298  76.2096710  70.7158279  59.0501938  75.6708679
  71.6692581  58.3829384  76.6387177  22.5993099  58.0871391  24.6911602
  21.8073139  58.3568954  24.2261810  22.3135395  57.9568176  25.5953617
  77.4717102  38.4992447  48.4235687  76.9485931  37.7890701  48.7953758
  77.4181595  38.3660355  47.4771957  39.7023697  35.2615395  68.1493454
  39.0455818  34.8634796  68.7206726  39.4985504  36.1966515  68.1652832
  49.0787964  24.4706821  88.2947540  48.9907875  23.5237293  88.1862869
  48.1780472  24.7934341  88.3214874  59.8809052  68.0247421  40.8568878
  59.5658493  67.1374435  40.6846237  60.8347740  67.9449997  40.8539505
  17.3893223  67.5879288  58.2447701  17.0803509  67.4625397  59.1420135
  17.0274467  68.4345245  57.9829483  55.6104507  40.0549469  61.7856941
  56.4529648  39.9116707  61.3545609  55.8096733  40.6489525  62.5093651
  73.7312241   2.3236852   2.1901011  73.3959274   2.1557741   3.0707917
  73.0144043   2.0702686   1.6085625  28.8574848  10.9456711  14.7099028
  28.9222660  10.4656277  15.5354900  28.6341877  10.2779179  14.0614614
  75.5291824   1.0202795   0.5783201  75.0086060   0.7671452  -0.1840125
  74.9311142   1.5407740   1.1146325  55.7041664  13.6089420  60.7022133
  56.0106812  12.7284536  60.9190598  56.4837341  14.0613432  60.3799706
  65.9327393   9.6556768  38.3828697  66.5369110   9.4880819  37.6595993
  66.3942032   9.3379126  39.1589546  78.4712448  48.3919373  19.2274990
  78.4281693  48.8652802  18.3966427  78.7862854  47.5197678  18.9902210
  10.1430264  47.3929749   8.7999411  10.8017712  46.7139053   8.9453707
   9.6603479  47.0970612   8.0281324  16.4884224  42.5527039  66.9609222
  16.0746269  41.7103119  66.7728271  16.9024429  42.4307251  67.8152847
   2.9865615  42.8885727  75.1950836   3.2911270  42.0090141  75.4183655
   2.0416617  42.8601875  75.3453903  60.5522499  31.6977043  12.0721769
  60.6029701  31.5990963  11.1214218  61.3746948  31.3297653  12.3953476
  71.4983139  68.3262482  63.8081322  70.5679092  68.1566696  63.6604156
  71.6312256  68.1394272  64.7374649  56.7446938  54.0857735  71.6264420
  56.6734276  55.0401306  71.6452789  57.5303459  53.9144630  71.1071854
   9.1739607  66.5340881  35.2745132   8.8289833  67.0504074  34.5460663
   8.8759575  65.6417694  35.0978889   7.1180239  61.9241180  43.7882843
   7.6937551  62.5640259  44.2069550   6.9300079  62.2981873  42.9275017
  77.4977875  33.9054375  75.6171112  77.6368561  33.9158134  76.5641022
  76.5603180  34.0670166  75.5109253  83.5773163  66.9648590  67.2936172
  84.4258041  66.5493240  67.4473419  83.6569214  67.3575363  66.4243088
  34.6622543  67.7165756  30.5289669  35.1894035  66.9572144  30.7773685
  34.0652046  67.3846817  29.8584404  16.1239014  20.1814823  72.1099625
  16.7888527  20.3305206  71.4377518  16.5282631  20.4923687  72.9199448
  21.0397987  33.0929680  84.8454361  20.4595585  33.8490677  84.9341202
  20.5428772  32.3646965  85.2181549  65.2603989  30.4082661  80.1583633
  64.4386139  29.9226990  80.0867538  65.8407288  29.9922714  79.5208664
  51.6324539  51.1727600  18.0160160  51.2748528  50.4494400  18.5309525
  51.9286194  51.8076439  18.6682758  70.7058792   0.9262506  54.0099487
  70.6521988   1.7214317  54.5400810  71.6386337   0.7119409  53.9934006
  34.5240784   6.0961576   6.7310977  35.4344597   6.3700628   6.6196842
  34.5516281   5.4573083   7.4433794   2.6536138  54.4963493  83.6677017
   2.3995779  53.8607597  82.9985809   1.8708161  55.0312347  83.7994461
  16.9821243  45.4226036  35.7965775  17.4453011  45.0530663  35.0448189
  16.2561340  44.8182640  35.9513168  38.4668655  22.8008404   9.0607367
  38.0825615  22.5132160   9.8888769  39.2417336  23.3008995   9.3171577
  56.1372871  26.7068539   1.1915249  56.8426704  26.5040283   0.5770893
  56.5341911  26.5991039   2.0558681  29.1056843  28.1312962  17.9431267
  29.5556583  27.7551689  17.1866322  29.0067997  27.3989410  18.5514908
  72.8047867  66.0535660  78.7734070  73.3096619  66.3922043  79.5127792
  73.3724899  66.1873169  78.0144272  37.0281601  55.3533478  27.7761192
  37.7369385  54.8513641  28.1784630  37.3698006  55.6046524  26.9180031
  67.4732285  56.6289787  12.7800999  67.1102676  56.6014214  13.6653881
  67.5856857  57.5616035  12.5962715   2.2553568  36.6611366  58.4090271
   1.7936299  36.2318459  57.6887856   3.0665343  36.1620827  58.5047722
   2.9386027  11.3514938  13.2795992   3.3122559  11.1109018  14.1273794
   2.3217511  12.0552397  13.4807644  39.0045586  68.4841843  21.8936691
  38.4330673  68.9832153  21.3100624  39.8510094  68.4716568  21.4469147
  66.2744293  50.2143402  16.3181496  66.5703735  50.7732124  15.5996037
  65.7750244  49.5186958  15.8904648   4.6410799  70.8431015   0.1251856
   4.3860340  69.9299393   0.2567763   3.8773603  71.2482605  -0.2856775
  49.6665840  56.4345779  32.4974670  48.9987183  56.6467705  33.1495132
  49.2702065  56.6776276  31.6607819  33.8824539  52.2281456  77.3292923
  33.2107391  51.8744087  76.7462769  33.7755470  53.1774902  77.2696838
  68.7984467  27.1398296   4.6771297  69.1213608  27.7827587   4.0457835
  67.8456650  27.2224579   4.6370811  69.1580353  45.1401787  59.1136055
  68.4301147  45.4483223  58.5737762  69.4918289  44.3722382  58.6498451
  18.5284939  55.3431969   0.5317587  18.5735970  56.2735634   0.3112715
  17.9673271  55.3075600   1.3063897  25.9729538  38.7106667  14.9181490
  25.4947453  37.9405556  15.2255173  26.4954720  38.9847298  15.6718721
  13.9144487  14.0920715  20.1664810  14.1298075  14.6988430  19.4581871
  12.9594812  14.0298662  20.1465111  66.8493500  61.3266602  34.2418404
  66.3676300  62.0496483  33.8400040  66.7991486  61.4987183  35.1821136
  66.0408554  30.4777431  62.0150032  65.5585709  30.0584679  62.7276268
  65.8673172  29.9268322  61.2517090  49.8024292  21.6546345  40.3082924
  50.6783485  21.3340912  40.5233459  49.4442482  21.9521809  41.1445999
  86.6473846  34.9792519  38.1456451  87.1425095  34.2227974  38.4600716
  86.3874207  34.7421532  37.2554550   0.6909735  47.4602203  67.1401596
  -0.1226366  47.2418365  67.5946655   0.4082854  47.7802505  66.2834778
  38.5642929  45.5466728  38.6362305  39.1773643  45.1743164  38.0024109
  38.9167862  46.4156075  38.8284111  35.4162140  62.0594978  64.9390717
  35.3973770  62.6267815  64.1683197  36.3473969  61.9172821  65.1090927
  44.9450417  63.2008095  54.8087883  44.8847542  62.9500580  53.8869858
  44.0460434  63.4151192  55.0579987  13.0552950   6.3023329  68.4667282
  13.5210838   7.0849118  68.1720352  12.4220695   6.6272893  69.1067734
   3.2619705  36.4716263  50.9841690   3.0602858  36.7143211  51.8878555
   4.2126122  36.3603783  50.9725151  67.5983124  29.8684158  33.3661499
  67.7537766  29.3242798  32.5941544  68.2081375  29.5322151  34.0228920
  74.9359894  40.7407036  41.0979080  74.0190659  40.8247147  40.8363342
  75.2144241  41.6369476  41.2862053  19.4090786  30.4511108  67.8505554
  19.9358006  30.6436825  68.6262512  19.7489414  29.6149769  67.5317993
  49.3745041  39.8651848  64.7692871  49.9758034  40.5501556  64.4769135
  48.8660164  40.2754478  65.4688263  75.7754898  41.3101959  22.5255642
  75.5142593  40.4678879  22.1533985  76.7141037  41.3699036  22.3476105
  15.5429583  69.2940140  64.9348755  15.3779421  70.0692520  64.3982086
  14.8240929  68.6985703  64.7229691  53.8345375  26.1129799  29.2093964
  54.5865364  26.6036377  29.5410366  53.9151382  26.1658955  28.2570629
  17.1454716  56.4459801  40.7517929  16.2847519  56.8362007  40.9038506
  16.9555779  55.5831451  40.3834419  10.4036388  60.0008926  26.4704437
  10.0877867  60.0362740  25.5675488   9.8790903  60.6541138  26.9334564
  77.1806488  65.5239868  76.3041229  77.5109940  66.0948639  76.9978104
  77.2748489  66.0404587  75.5037308   7.5595083  68.8870239  83.2308273
   7.3273892  69.1412659  84.1239777   8.5166407  68.8768387  83.2257919
  79.0758972  32.0932999  74.7149887  79.3694992  31.6534538  75.5128403
  78.5486145  32.8286934  75.0270844  55.6960793  39.6461487  80.3680573
  55.2555389  39.0412254  80.9648972  56.0770416  39.0829620  79.6943130
   2.8746052  49.9307632  76.0387421   3.6402445  50.3277893  76.4539490
   2.2783766  50.6636810  75.8852005  69.2470856  57.9878044  27.2259502
  70.0011749  58.3723450  27.6728325  69.4246826  58.1247482  26.2953949
  37.4498405  66.2165298  61.3558731  36.5651627  66.5639191  61.4694672
  37.5252190  66.0561371  60.4152222   0.7078159  61.9218102  71.5391235
   1.1711167  62.4803391  72.1633224  -0.1625789  61.8070679  71.9205399
  39.5021248  71.4397202   2.7607632  39.7124748  70.5627670   2.4399412
  38.6300545  71.3512802   3.1453438  67.8516693  66.7783737  86.7083893
  68.3689194  66.5325012  85.9414215  68.1899261  67.6377640  86.9599228
   7.5843830  62.4227219  85.3144684   8.0997314  62.9755936  84.7271194
   6.7209373  62.8353310  85.3355942  45.3119736  39.1727753  35.4684296
  44.5707054  39.7682037  35.3579216  45.9104271  39.4007378  34.7570114
  26.8717442  51.5641518  20.0936279  26.4034138  52.0369644  20.7816277
  27.7895679  51.5956764  20.3635101  86.2479019  20.8269920  48.0072021
  86.0210800  21.4977760  48.6512756  87.0298691  21.1671295  47.5723877
  57.4997253  13.2532539  56.6927261  56.6702843  12.7864895  56.7946701
  57.3082542  14.1468487  56.9774361  85.7659836  47.2450447   6.6102781
  85.1966782  47.8076591   7.1352482  86.2868042  46.7642975   7.2535930
  10.2283688   9.4395933  28.7434635  10.5456781   9.6099548  27.8566036
  10.7751007   9.9907084  29.3034534  80.7995071  62.9641762  40.6593666
  80.1326675  62.9203224  41.3446617  81.6226730  63.0822792  41.1333809
  55.9380760  58.4194489  12.6450558  55.1366081  58.0435600  12.2809277
  55.7599106  58.5016861  13.5819263  67.7585754  63.8140984  19.0108566
  67.8973999  64.0632935  18.0971489  68.2423553  64.4691620  19.5139256
  16.6327267  61.1805267  41.6058044  15.9684887  61.1886215  42.2949715
  17.4293957  60.8820305  42.0444946  11.9330368  44.6912880  87.8816147
  12.0097246  45.5010223  88.3862686  11.1190376  44.2930832  88.1899490
  82.7960510  41.6879959  72.9733124  82.4701080  41.6891670  73.8733063
  83.3100052  42.4925041  72.9036636  69.8139648  44.3833771  70.9845428
  69.3402634  43.5520210  71.0108337  69.2467880  44.9970779  71.4513626
  62.2114868  71.7438354   4.3595738  62.2201347  70.8017273   4.5286365
  61.7931061  71.8296204   3.5029340   2.2499542  14.4846754  50.4064178
   1.9354763  15.2812786  50.8339233   1.7362471  14.4263945  49.6008492
  33.0574913  58.7161751  62.6703758  32.1949501  58.4390717  62.3613892
  33.6103249  57.9421349  62.5632744  45.8144989  42.1417885  19.0131283
  46.4015312  42.8964958  19.0583572  45.6647644  41.8997154  19.9270267
  12.0388861  31.7949696   3.3489432  12.3454771  30.9638042   2.9864557
  12.8217173  32.3447456   3.3829174  55.7385521  66.1808929  52.5004616
  54.7891502  66.0653305  52.5393295  56.0834503  65.2946320  52.3917122
  84.1012344  61.0620537  80.8829193  84.1297836  60.1830254  80.5051270
  84.8457565  61.5164795  80.4886856  86.0729599  67.6569443  78.0493546
  86.6278534  66.8954926  78.2182465  85.4477158  67.3561325  77.3899460
  32.1982765  37.1505966  81.1386337  33.0445938  36.7552109  81.3475571
  31.9365692  37.5960426  81.9444351   0.7389068  65.1470032  78.0853577
   1.5730281  64.8303909  78.4320984   0.8094760  65.0207748  77.1391449
  80.0951385  42.3556557  15.0997534  80.2392349  43.3010063  15.1420078
  79.2295685  42.2277298  15.4879055  45.3837318   7.0281320  67.9187775
  45.8782654   7.1174593  67.1041031  46.0495453   6.8623199  68.5861816
  63.6085434  14.6394386  20.3868923  64.3542404  15.0566540  20.8182869
  63.3642883  15.2477322  19.6893597  30.4647999  21.1916981   3.0278599
  30.9841671  20.9060078   3.7794383  30.5544281  20.4824829   2.3912973
  36.0671997  58.7294579  13.9698954  35.4108810  58.4750748  14.6185579
  35.5615005  59.1248322  13.2598410  56.9543419  55.4103012  54.7248764
  57.2945633  54.6343269  54.2795143  57.6755104  56.0390015  54.6951561
  51.0544434  39.3939552  20.8827724  50.5076256  39.9692650  21.4177856
  50.7387199  39.5266037  19.9889297  16.3926029  68.1133881  25.8390217
  15.4401827  68.0687714  25.7545357  16.5407410  68.7269516  26.5586243
  84.7557907  36.9984741  14.7806892  83.8561478  37.2605515  14.9761343
  85.2398148  37.1853638  15.5850649  45.2471924   3.7468174  31.4944611
  45.2527275   3.0459225  30.8425808  44.4409523   4.2316594  31.3180103
  41.8781204  57.6552773  37.2798042  40.9823341  57.9633064  37.1422615
  41.7989731  56.9830208  37.9565887   6.3936658  61.2516022  29.1667652
   6.3438044  62.1434441  29.5108128   5.9230361  60.7204323  29.8091011
  74.7323608   6.6877284  29.6244602  74.7797089   7.5714078  29.9892921
  73.8892975   6.3490677  29.9257660  55.9893570  25.6138992  52.3026848
  55.2394409  26.2032318  52.2217827  56.6780853  26.1543980  52.6896553
  17.6452961  20.2760429  69.9301300  17.1196175  19.9145565  69.2165375
  18.5449829  20.0328484  69.7118454  37.4794044  65.5116501  69.7829666
  38.3429947  65.2733612  70.1201172  37.4295197  65.0836487  68.9282379
  11.0979042  59.8604279  33.2920227  10.8144579  60.7224617  33.5966377
  10.5658407  59.2424202  33.7932243  75.5855103   8.0797844  64.2027588
  75.0198669   8.5111380  64.8432312  74.9802322   7.7020602  63.5646362
  54.6334915  18.9021320  61.9136353  55.1815147  19.1614704  61.1729279
  53.8661308  19.4712658  61.8546753   4.5804019  65.4706650  31.9550800
   4.5642676  66.3663788  32.2922325   4.9642239  65.5503235  31.0818291
  59.1695709  42.0349350  58.2322922  59.3040314  41.1663475  57.8532066
  58.2911873  41.9976997  58.6108208  18.7520199  13.3452406  26.8318520
  18.8587132  12.7275209  26.1084785  19.6317902  13.6904297  26.9837742
  23.7727146   7.7017064   7.9347601  24.3915482   7.6098180   7.2103066
  24.2823963   7.4816065   8.7145119  83.3210983   0.0739830  46.1902542
  83.8421021   0.7770983  45.8024254  83.9128571  -0.6780383  46.2129822
  77.3223343  57.9785042  54.0706482  78.1610565  58.0657425  53.6176834
  77.1081772  57.0481644  54.0010643  42.0102119  23.7716560  18.9730835
  42.9239616  23.5275593  19.1204281  41.8572006  23.5796261  18.0479126
  83.3628159  32.6047783  43.4400253  83.2444153  31.7503719  43.0250549
  83.7761307  33.1435051  42.7653580  84.9215775  15.7607269  56.5197754
  84.5123901  14.9688187  56.8685951  85.6797867  15.4425974  56.0297318
  35.7610130  29.5399647  83.1337662  36.2345772  29.1361313  83.8610153
  34.9250450  29.8108120  83.5132828  69.1738663  38.8551941  56.2442207
  68.9762039  39.7165108  56.6120453  68.4262085  38.6584587  55.6798286
  31.7057095  42.7497940  19.7864475  31.5583096  42.7008209  18.8419342
  32.5602570  43.1720886  19.8739204  39.7511482  56.5664482  47.4103241
  39.6967545  57.4842529  47.1440353  39.3963890  56.5535431  48.2992592
  78.9451904   0.2797345  80.2992706  78.9794998   0.4574421  81.2392044
  79.8457336   0.0554112  80.0648956  51.8413506  32.5337563  69.8202744
  51.1304550  33.1112671  69.5421753  52.2275963  32.9762039  70.5761108
  26.6538010  12.2044306  37.3810959  26.3175354  12.9390726  37.8943787
  27.4556370  12.5396538  36.9799538  58.2997780  12.1638155  88.1639557
  58.9168282  12.8167324  88.4943771  57.8522491  12.6019592  87.4400864
  10.6553383  53.1380501  51.9572830  11.0594540  53.9987411  51.8471260
  10.8719997  52.6669769  51.1526833   1.1847172  66.7533798  12.7788925
   0.9865035  67.4464111  13.4086962   1.3164400  65.9721222  13.3160238
  19.2577248  65.0182343  40.2045403  19.9243526  64.9621658  39.5199242
  18.9397202  64.1208191  40.3032608  49.6334457  24.3176079   5.2416439
  49.9000359  25.2345486   5.1754417  49.9833755  24.0266399   6.0837359
  64.5236893  35.8037262  69.4716034  63.8491516  36.4470749  69.2540436
  64.3958206  35.6285820  70.4039154  17.6764736  23.9741573  12.6708393
  17.4909897  23.4243736  11.9095478  18.0659389  23.3762741  13.3088703
  14.0130816  45.1759338  17.3866100  14.8592672  45.5993042  17.2418442
  13.3810682  45.7493668  16.9530621  47.2393723  35.0249443  27.4741039
  47.1063614  35.4083939  28.3409977  47.1526413  34.0819244  27.6134567
  68.7962036  35.1620483  29.1843204  68.1305923  35.8408165  29.2959995
  68.3052826  34.3884926  28.9071198   2.5728843  70.6172638  55.6289749
   2.3142440  70.6185684  54.7073784   2.9720581  69.7578964  55.7645035
  39.1502838  44.3912354  65.8305893  38.5039177  44.5944519  65.1544647
  38.6611290  43.8978081  66.4889908  51.8919868  50.4802094   3.2985198
  52.7866783  50.2220535   3.0769000  51.3618965  49.7113228   3.0886352
  30.5591888   7.2116933  18.6713467  29.8929787   7.7950325  19.0348206
  31.3649025   7.7281861  18.6884670  73.9077911  25.8499985  58.9474335
  73.0228577  25.7850475  58.5883942  74.4690552  25.9685555  58.1811676
   9.5351191  55.4280128  30.8001347  10.0298700  54.9230080  30.1548271
  10.1261454  56.1369629  31.0537338  21.4847145  13.7887001  64.3709869
  22.0077286  13.7018976  63.5740204  21.9974194  14.3708992  64.9317093
  63.7340126  36.3527336  47.6160545  64.6709442  36.2020111  47.4908524
  63.6870079  36.9885597  48.3300171  78.4324570  31.2433529  63.1244087
  78.7732162  31.8759480  63.7568169  78.9494781  31.3936234  62.3329926
  41.0209732   4.2448483   8.2710609  41.8953171   4.5930538   8.4457331
  41.1658134   3.5386112   7.6413927  54.5800133  13.7330084  50.1953506
  55.4196358  13.3471479  50.4451065  54.2409363  14.1137171  51.0054855
   7.8063340  31.0542946  82.6114655   8.0672016  30.1743698  82.8833313
   7.7036047  30.9910011  81.6619034  26.9677906  68.2296906  60.9955978
  27.0134125  68.3332748  60.0451126  27.8196087  67.8666229  61.2381210
  68.2269516  64.1525421  25.9581203  69.1838989  64.1687317  25.9733887
  67.9663849  64.9342422  26.4452324  12.3817177  38.0721245  26.4799919
  13.1606798  38.5991325  26.3019104  11.6482229  38.6535263  26.2795124
  39.3808861  27.9314823  11.0838890  38.9994202  28.8050461  10.9966984
  39.4881287  27.8100300  12.0272770  75.2605057  12.9788265  55.4678040
  74.3739090  12.6300287  55.3755035  75.8286133  12.2122364  55.3915215
  50.1343269  34.1775780  21.9182892  50.1323051  35.0908012  21.6314888
  50.1220551  33.6713943  21.1059742  86.2557144   8.7150545  75.2058868
  85.6006699   9.3929863  75.0398865  87.0629044   9.0643301  74.8281631
  69.3727875  44.3777046  61.8878174  69.0290146  44.8222504  61.1129417
  69.2282410  43.4475479  61.7141762  38.9086990  37.8578873  13.7772579
  38.4623528  38.5160217  13.2444668  39.5527000  38.3547745  14.2818308
  27.8605213  42.2400818  12.5806656  27.5252838  41.3974113  12.2744684
  27.6263294  42.8572044  11.8874512  10.6631231  71.1195145  57.4259338
  10.2451258  71.7761383  56.8688316  11.4647770  70.8843079  56.9587479
  37.6823082  21.5584431   6.8673682  38.2702789  20.8099251   6.7661643
  37.9743385  21.9852161   7.6728573  65.9400406  15.4454985  67.5108719
  66.5232773  16.2012482  67.5809708  65.0669403  15.8251266  67.4118271
  57.6148643   9.0810032  65.9598618  58.5254898   8.9990597  66.2431870
  57.4500771  10.0238876  65.9530182   4.4318767  15.1822767  64.6827011
   4.1902432  15.6856394  63.9052200   4.4853287  14.2774143  64.3751297
  20.4757938  46.7009430  52.2045670  20.2126446  47.6149673  52.0971222
  19.6523056  46.2129898  52.2042122  48.2742424  43.3473740  39.9820099
  49.0719337  43.2306709  40.4980507  47.5698051  43.3618355  40.6299210
  20.8826714  17.9366550  27.4618130  21.2081947  17.6717072  28.3220844
  21.6013088  18.4392681  27.0781822   5.1312017  22.4287052   8.5132608
   4.9741364  22.5040207   9.4544783   4.2609882  22.3044987   8.1344042
  76.3815079  71.6992874  30.8333931  76.4031830  71.5241318  31.7741833
  76.8530731  70.9640045  30.4419518  22.8094063  41.2292137  84.3731232
  22.0405006  40.8028908  83.9946213  22.9577522  40.7669830  85.1980896
   2.0041397  46.3513336  12.3068256   1.0641956  46.5166550  12.3803511
   2.3897986  47.2170334  12.1724329  62.6413918  25.6584759  32.6652527
  62.7941704  25.7543125  31.7251949  63.4938354  25.4092426  33.0222626
  38.9419098  63.4550438  20.1732712  38.1415825  63.0389023  19.8530598
  39.5999870  62.7604294  20.1471672  11.9124203  67.1923599  48.2828445
  11.6300611  66.3188019  48.5537834  12.1473589  67.0927277  47.3602867
  21.0434666  32.3592339   3.6466174  21.0536900  33.2330551   3.2560263
  21.9674206  32.1239738   3.7314372  52.1457138  69.3469009  67.2537384
  52.5435944  68.6754761  66.6995697  51.5840378  68.8586655  67.8557129
  69.5329895  40.0821953  63.6408005  69.6054459  39.1288681  63.5944977
  69.5468750  40.2782364  64.5776062  28.2170753  53.3412323  29.6184311
  28.8873768  53.9290924  29.9667816  27.6526279  53.9070129  29.0916290
  52.7574005  40.9504433  12.5875664  52.2805786  41.1556931  13.3917694
  52.7825317  39.9939308  12.5615101  70.8443604   8.1032457  70.3205795
  70.8000946   8.4087715  71.2266235  71.7635345   7.8695011  70.1912766
   9.4311314   9.1706638   6.6266670   9.6656933   9.7658939   5.9146886
   8.5186768   9.3816814   6.8244791  83.9530640  50.0045815  53.4943542
  84.5287628  49.9635620  52.7307281  83.1550293  49.5545654  53.2171135
  39.9722977  23.8902340  45.5663338  40.6768913  24.1014881  46.1788330
  40.3481522  23.2258205  44.9888229  45.1345215   4.8983798  16.7646027
  44.6343803   4.5068517  16.0485039  44.6124802   5.6531453  17.0366917
   8.2470226  69.8857498  56.6557961   7.3880086  69.6811905  57.0252342
   8.7564383  70.2092133  57.3988304  52.0013618  31.3524704  12.5324917
  51.1491928  31.7744350  12.4230318  51.9960861  31.0325089  13.4346151
  70.3070068  36.2931366  50.9847260  70.0454102  35.5368919  51.5099831
  70.3023376  37.0257645  51.6007385  23.9538116  30.4633484  10.5614653
  23.7362003  30.2886105   9.6458540  24.6568928  31.1116314  10.5210352
  69.5151367  55.4706192  14.1603966  69.2065735  55.4895058  13.2544937
  69.2028656  54.6329041  14.5023718  44.9843063  51.2094955   7.4680476
  45.4123650  51.2466087   6.6127000  45.6645737  50.8937149   8.0628176
  27.7338638  63.3062630  67.1577072  28.5590668  63.7684860  67.3047409
  27.3684292  63.7126541  66.3718719  44.6335831  47.3683929  23.9956055
  45.3692513  46.9122581  23.5869923  43.9276085  47.3089905  23.3519421
  82.4166946  22.0231056  44.1279793  83.1287766  21.4312916  43.8852310
  81.6754227  21.4448204  44.3078156  81.9294662  29.3890495  78.5768738
  82.4391937  30.0123348  79.0944824  82.0540390  29.6717262  77.6708832
  47.1941109   5.3861365   2.3537071  47.2982216   4.8947186   3.1685088
  48.0719566   5.7135015   2.1576130  68.9426422   1.6134788  64.4663467
  69.2118454   1.5581772  63.5494423  69.7465134   1.8284483  64.9394302
  81.6203384  45.7539978  46.6224594  81.7954025  46.6554604  46.8925514
  81.2350388  45.3426933  47.3961563  52.3846054  61.8639488  72.7092819
  53.1218262  62.2085686  72.2053223  51.7988663  62.6129417  72.8195267
  19.5745640  70.0534134  60.6507111  19.4501190  69.3452988  60.0187912
  18.7289810  70.1315994  61.0924187   2.7683034  45.3750687  83.4431992
   2.0484869  45.9920769  83.3113022   2.9139450  45.3756409  84.3892517
  13.1430178  65.6310883  23.1242886  12.8647041  64.8298340  23.5678730
  13.9690762  65.3962479  22.7015476   8.3991213  42.1896095  19.6678581
   7.8843446  42.2151642  20.4744473   8.2192593  41.3260460  19.2961922
  61.4886360  67.2668457  67.3494110  61.0957832  67.4249039  66.4909744
  62.1315613  67.9686050  67.4514618  40.2812729  41.3873215   9.3900604
  40.5613251  40.7385406   8.7443943  39.9145088  42.1013260   8.8686066
  39.6141434  50.2866478  52.2489586  39.4297752  49.3657990  52.4341011
  39.2886200  50.7553062  53.0174828  20.4165878   5.2806406  67.4200974
  19.5620804   5.6420937  67.1847305  20.2350998   4.3708701  67.6559219
  55.6769371  18.3063030  84.0660782  55.0433464  17.7313900  84.4953384
  55.4198494  19.1885204  84.3340912  75.5232391  51.9550400  32.9812126
  74.9628754  52.1957512  32.2434578  75.5441513  52.7379494  33.5315285
  43.6413612   8.0911369  77.4602966  44.2223167   7.7386622  78.1344528
  44.0913277   8.8735399  77.1415329  21.1797066  20.7208595   2.9254940
  22.0090656  21.0040379   2.5405197  20.9561501  19.9204006   2.4506023
   2.2930613  41.8427315  52.9664307   2.3731515  41.9571037  53.9133911
   3.0884974  41.3740959  52.7136536  78.1937103  18.6399517  31.2465916
  79.1118774  18.9079895  31.2098522  78.1494751  17.8602848  30.6930599
  21.0768051  70.8441544  69.8389053  21.9995556  70.5898438  69.8482895
  20.9512215  71.3202591  70.6597519  55.2331657  15.6018314  85.7365341
  55.1230011  16.0887890  86.5532150  54.3649483  15.2432852  85.5524826
  61.4939880  56.0787697  70.6073990  61.1954727  56.1193161  69.6988449
  62.4420815  56.1990280  70.5535965  15.3134089   5.7125120  23.3925724
  14.3574915   5.6970487  23.3455181  15.5297689   5.0797276  24.0774097
  80.1939545  14.6164112   7.0657396  79.5032806  14.2176857   6.5363779
  79.8140106  15.4386721   7.3751998  19.6864929   1.1228732  84.1086349
  19.2439346   1.8612719  83.6901398  19.2107258   0.9921163  84.9288712
  61.9862251  23.2456608  81.0607147  61.7253342  22.4889584  81.5856628
  61.8218956  22.9780121  80.1565018   4.8908453  37.3278809  81.4401093
   4.1651011  37.1372108  80.8458252   4.5777788  38.0581360  81.9739151
  71.3814468  44.8791122  22.8276939  70.8926086  44.2016068  23.2948704
  72.1576004  44.4282379  22.4952297  41.9023857  29.2217293  24.7246971
  42.8185425  29.2707539  24.4517765  41.7136726  30.0874863  25.0867538
  31.8664951  32.7102127  13.8439112  31.0314350  32.7853241  14.3057175
  32.5257416  32.9200554  14.5054197  36.1477814  27.7379837  87.1071548
  35.7236938  27.7882881  87.9638062  36.1700363  28.6433983  86.7973862
  22.8862896  40.2903023  86.9339905  22.0075817  40.1819801  87.2978210
  23.2295971  41.0724983  87.3658981  44.2126541   9.4961624  66.0881500
  44.3842392   9.0060654  66.8922577  44.9662628   9.3093023  65.5283356
   4.4873466  71.6723785  57.3382721   3.9290080  71.8104935  56.5731506
   4.7055922  70.7408066  57.3104935  65.3910904  68.6376877  12.8820868
  64.6439590  68.2043381  12.4695005  65.0829239  68.8620834  13.7601051
  83.9758606  61.6354675  12.2109795  84.1806641  62.2251625  12.9366159
  83.1300507  61.9423294  11.8843822  81.7376556  67.0006027  42.3568878
  81.9487381  67.5860596  43.0841522  80.8353653  66.7277374  42.5232010
  36.3230820  44.2921066  15.0135098  35.9197044  44.9036980  14.3974924
  37.2637749  44.4404831  14.9170046  35.4815025  45.4994926  73.7713318
  35.0192757  44.8756638  74.3311691  34.8374710  45.7496796  73.1088638
  20.2433357  39.5574303  60.7136383  20.9913177  39.7838364  60.1609192
  20.2700787  40.1960106  61.4261894  48.9833984   1.6758648  85.4446487
  48.5504417   1.6786441  86.2983322  49.2664490   2.5812607  85.3167038
   9.2622414  34.1333046  69.5490189   9.4076204  34.9988213  69.9310837
  10.0979033  33.6795998  69.6587906  35.1277466  45.0209694  78.0575027
  35.5686569  44.8246918  78.8841248  35.7270966  45.6110954  77.6005936
  50.9287148  55.5017166  27.6387234  51.6529427  54.8971901  27.4766445
  50.1438866  54.9995041  27.4194984   2.0897138  66.3508682  29.4554405
   2.3128133  67.0419464  30.0790329   1.5153884  66.7780228  28.8198910
  51.6897011  21.4176140   4.9339275  50.7862549  21.5472946   4.6454835
  51.6573524  21.5358810   5.8832421  86.1545639  68.6574173  61.6344185
  86.4494553  69.2386856  60.9334183  85.2021027  68.7524033  61.6395569
  42.9187202   7.9335055   2.1477225  42.3501205   7.1859798   2.3324628
  42.4625587   8.4169502   1.4589337  45.8452072  29.0563831  62.4543610
  45.3340569  28.2742653  62.6623268  45.9935493  29.4776726  63.3009682
  11.3542366  34.2004089  52.7157249  11.5507641  33.9476852  53.6177979
  11.2107544  33.3707542  52.2604027  70.7746353  35.1396370  83.5032043
  71.5621338  35.6785088  83.4277725  70.5160217  35.2206306  84.4212418
  23.9428730  67.5442123  21.6763935  23.6792965  66.7033463  21.3026295
  23.1208115  67.9566574  21.9415989  15.0256262  61.0501556  75.2716827
  15.6857996  61.5233078  74.7651978  15.3923063  60.1729889  75.3828354
  30.7945995  53.7095795  50.7493782  30.3230858  52.8852501  50.8693314
  30.1113281  54.3798676  50.7585869  85.7414703  18.4514790  56.9070930
  85.4610138  18.3676987  57.8184395  85.9608459  17.5585747  56.6409569
  76.0364075  12.4400139  30.2340717  76.7466507  12.8496532  30.7280140
  76.4035492  11.6097631  29.9305553  75.0005264  26.5383263  14.2953186
  75.0037537  26.6418381  15.2468996  74.3472595  25.8583698  14.1305761
  40.9197121   1.9531622   6.7970300  40.2311020   1.2950287   6.7026358
  41.7018547   1.5347458   6.4372940  32.5999374  33.2031670  87.7063751
  33.4598045  33.0497246  88.0979309  32.7910118  33.6033020  86.8580704
  44.7396049  60.6823425  67.1652679  45.1707115  61.4363289  67.5676117
  45.3051224  60.4475288  66.4295425  43.5165062  70.1780319  34.8791084
  42.9021683  70.8472824  35.1806564  42.9968643  69.6185379  34.3019028
   1.5373452  33.7100906  63.1570969   2.3792100  34.1523590  63.2661629
   1.6715066  33.1190338  62.4162331   4.1709409  66.0100250  73.1682510
   5.1181860  65.9664001  73.0376511   3.8006845  65.7010117  72.3414230
  24.5303802  66.5602264  10.1178722  23.6006718  66.4400864   9.9243689
  24.9777412  65.9487228   9.5329218  16.1019344  66.9712296  60.8390579
  16.7847023  66.4827652  61.2989120  15.3919725  66.3396454  60.7237511
  16.0360718  64.7763519  82.1135025  16.8904037  64.9658432  82.5013733
  16.2340126  64.5146332  81.2143097  53.3177299   1.4849064  75.4183273
  53.1481705   1.3823979  74.4818573  52.5322876   1.1401097  75.8431015
  56.9920616  28.5994644   6.3829041  57.0944214  29.4281406   5.9148746
  56.1488533  28.6788635   6.8289170  28.1421337  68.6944580  85.0175476
  28.9587097  68.2069550  85.1260452  28.3114624  69.5405655  85.4318619
  58.9681473  15.4577951  85.2595673  58.8733330  15.2708521  84.3255997
  59.6205215  16.1571522  85.2988281  26.2636032  57.4732666  45.9761124
  25.8337421  57.2321243  46.7966614  27.1701851  57.1870422  46.0875282
  83.3033295  13.7692814  54.1055641  83.6445465  14.6617279  54.1633759
  82.7472382  13.7754755  53.3264923  14.7060080   9.5728741  71.2122803
  15.1632261   8.8776789  71.6854477  15.2444391  10.3518524  71.3519821
  17.8935375  63.1309052  30.3559608  18.0630398  62.5316238  31.0828495
  18.7458553  63.5221672  30.1643848   2.0657742  47.1831703  87.7511826
   2.3232133  48.1031227  87.6908493   1.6513052  47.1063080  88.6105652
  72.6550064  27.9524689  71.2220535  72.8948898  28.1163197  72.1341019
  72.2497635  28.7691879  70.9305420  57.2491379  24.2238293  13.8935785
  57.4833755  23.3834839  14.2875128  56.6109543  24.6022587  14.4983463
  32.2263031  49.0642242  60.3323784  32.0358620  48.6917686  61.1933327
  31.3786583  49.0865860  59.8882713  24.2186050  42.5218391  78.2054367
  24.8789482  41.9096298  78.5300598  23.5934582  42.6039085  78.9256363
  82.8536224  64.2630615  35.8850746  82.3859177  63.6325874  35.3373604
  82.3759003  64.2605057  36.7145348  34.7172165  66.2282410  59.5804787
  34.7755089  67.1097794  59.9488983  34.9852066  66.3320465  58.6674385
   5.7476897  58.7770233  47.4219589   6.1673841  58.4401321  46.6303825
   6.3116827  59.4971008  47.7041550  51.3545609  71.4219284  85.2840271
  51.0315819  70.5251999  85.1958008  50.6684952  71.8766174  85.7727051
  81.5992432  36.5394630  84.7078476  82.1905975  35.9916801  84.1916428
  80.7289963  36.1791077  84.5374374  79.6805725  58.8816719   4.2527299
  78.9388657  58.9873924   4.8484855  80.3326569  59.5070839   4.5687633
  40.5378189   0.1327427  26.7471066  40.7732315  -0.4541697  26.0285320
  39.7378807   0.5663506  26.4499283  20.7626400   5.5472784  25.0661869
  21.0046940   5.2604437  25.9467354  20.8262024   6.5017920  25.0992813
  72.3072586   7.5865788  73.5585938  72.6129608   6.7820959  73.1395645
  73.0337067   8.2013016  73.4555054   3.0960927   3.0495775   2.2711151
   2.2747617   2.6045773   2.4799740   3.6466417   2.9102752   3.0416489
  32.8239555  70.4837952  69.2403946  32.6454430  69.6576233  69.6896286
  33.7054634  70.3765335  68.8830872  35.8055534  64.4387894  38.5809784
  34.9250679  64.1879654  38.3015862  35.6691132  65.1928558  39.1545639
  76.4529953  18.9115734   8.5820913  75.6166458  19.2977009   8.8422070
  76.4699631  18.0601578   9.0191641  32.6172981  67.3245010  42.4090843
  32.9004631  66.4546585  42.1272659  33.2961006  67.9149399  42.0822182
  48.6316376  28.8860664  70.5143814  48.5295258  27.9569092  70.7204666
  48.4281235  29.3369312  71.3338547  84.8269501  12.8756409   3.0248978
  85.5522232  12.5063915   3.5287395  85.2482529  13.3210135   2.2897968
  15.4631548  32.1367416   1.1703480  15.5824881  31.3957844   1.7644643
  15.4995813  31.7504120   0.2953315   1.1366464  17.7706623  80.5088882
   1.2484269  18.4485817  79.8424301   1.3170654  16.9507313  80.0491104
  67.0393677  37.4904442  82.4693909  66.7173233  37.7764664  83.3242111
  67.0376358  36.5346031  82.5203629  72.1158066  39.9615631   1.4247370
  72.4523087  40.4781380   0.6925128  72.0236664  39.0767899   1.0712984
  54.9957390  57.0743980  55.9121208  55.6892815  56.4941406  55.5982208
  55.1493607  57.1433678  56.8543930  33.4215317  39.6874657  82.2373276
  33.9728966  38.9050636  82.2458191  32.6492500  39.4417877  82.7466965
  19.5899830  18.3129387   9.3474293  20.0837402  17.5037956   9.2142963
  20.2334652  18.9322891   9.6917667  26.1884804  31.9321899  14.8502188
  26.2993469  32.0711975  15.7907600  26.4848309  32.7499733  14.4506683
  12.4918509  60.3660355  52.2552681  13.2429476  60.9310875  52.4363861
  12.7283573  59.9036484  51.4512177  74.9939499  61.8730431  69.4252625
  75.1620789  61.1052971  69.9716415  75.2210693  61.5908508  68.5392532
  82.7001114  10.3114777  83.4432831  81.9433060  10.8673210  83.6290665
  83.2811661  10.8646660  82.9211807  54.6422348  48.1495094  34.3320961
  54.2078552  47.3391800  34.5983963  55.3247070  48.2827644  34.9898987
  63.4070816  33.5253448  17.6050415  63.2507401  33.8384552  18.4959679
  63.5220909  34.3224754  17.0877495   1.5723870  12.5071907  15.5316086
   2.1629169  11.9242659  16.0087929   1.3211751  13.1714010  16.1734409
  41.0039635  57.5807152  56.5230293  40.2505226  57.8747635  57.0349846
  41.7406693  57.6278419  57.1323509  52.3400040  55.3214722  77.9478455
  52.7697144  55.2763939  78.8019867  53.0234222  55.0795212  77.3228455
  40.8880234  39.5659447  80.8365936  41.8057404  39.2955284  80.8065414
  40.4338760  38.9345245  80.2786636  77.1316605  31.6966972  20.6171570
  77.0217438  31.6348610  19.6683025  77.0043488  30.8017159  20.9318485
  20.2983303  53.9156685  24.9011135  21.1355915  54.1396255  25.3073997
  19.9406548  53.2225456  25.4559841  65.9787445  26.8141537  23.8000984
  66.4833527  26.6891918  22.9963665  65.6250992  25.9470024  23.9981384
  78.4234619   0.3903630  38.0149307  78.7678299   0.0449218  37.1913338
  78.9930115   1.1317029  38.2205048  52.1328125  38.5117722  11.3973684
  52.4194145  37.6303673  11.1581697  51.8362122  38.8989525  10.5737476
  77.8551331  21.6688290  22.3725357  77.5438309  22.5678158  22.2669811
  77.1291504  21.1262589  22.0646420  47.3219986   4.0642257  39.8619919
  47.5637665   4.6735940  39.1645317  46.4682693   3.7225399  39.5962334
  20.3834610  46.2593536  45.5762405  20.2589226  46.3127823  44.6286812
  21.0378971  46.9304657  45.7700195  39.5803680  14.1342068  12.5921774
  39.3728447  15.0602732  12.7169428  38.7325478  13.6915140  12.6303253
  85.6393509  37.3664780  48.3879433  85.6876373  38.1081924  47.7848167
  86.1309280  36.6706085  47.9516563   0.1622302  34.1364784   6.7618160
   0.8803772  34.7584915   6.8784108   0.5770881  33.3589592   6.3881969
  62.0251503  48.7230072   6.0026679  62.3069420  48.8709030   6.9054151
  61.5773277  49.5322113   5.7559257  18.0879650  37.7444344  80.2865143
  17.6598206  37.1126556  80.8642502  17.5041714  37.8120232  79.5309677
  37.5565491   9.6519184  72.0544968  37.7057457   9.5437450  71.1152039
  36.7355423  10.1406794  72.1118774  62.5876312  10.0856361  33.7714386
  63.0758362   9.2644339  33.8307266  61.9551163  10.0405502  34.4884605
  66.0592270  62.6741028   0.4966371  66.5498810  61.9671288   0.9157759
  66.6103058  62.9456787  -0.2373832  65.0034943  28.3166447  13.1040144
  65.8744125  28.2437916  13.4944353  64.5148621  27.5789738  13.4691362
  32.7613792   7.5962548  81.7565308  32.9881897   8.4003191  82.2237320
  32.8119316   6.9101601  82.4220810  34.9522476  35.4823227  73.5953445
  35.4040565  35.9578781  72.8982468  35.0050659  36.0629044  74.3545303
  55.0094681  30.6043873  13.9089994  54.5085564  30.1409702  13.2377586
  55.8916702  30.6739788  13.5441608  30.2619591  64.6556702  33.0816231
  29.3341484  64.4203796  33.0878677  30.5682659  64.3991013  32.2118073
  80.5120621  13.7795963  42.1645660  79.7483368  13.5577126  42.6972198
  80.2192307  13.6539631  41.2619591  29.4836197  61.4580612  62.2514534
  28.6174507  61.6884422  61.9154320  29.5122089  61.8460312  63.1260338
  31.2828712  12.5209808  79.0640182  31.2070351  13.2584734  78.4585571
  31.4360008  11.7628670  78.5000687  85.2867661   9.6755285  80.0807190
  86.0804672   9.6723757  79.5456772  85.4965820   9.1097870  80.8237839
  79.8212738  26.1864300  11.6742048  79.4196014  26.4051380  12.5150747
  80.0480347  27.0331459  11.2896519  75.6816788  12.7715330  84.6637421
  75.8604736  11.8961744  84.3202133  75.0284882  13.1347284  84.0656967
  75.9521179  38.8520203  27.4519482  75.0329666  38.6194534  27.3204174
  76.1355896  38.6007156  28.3571644  54.0722237  68.2435303  37.1013718
  53.4222298  68.9409180  37.1873627  53.5559425  67.4384689  37.0617981
  55.5701141   9.1487579  76.7510300  56.2202911   9.2058048  77.4512100
  55.9474945   9.6553736  76.0318909  63.7545662   3.3020713  52.8814278
  63.5184326   3.9020286  53.5889053  64.1838913   2.5689456  53.3223763
  12.7140045  53.2977524  38.3646164  12.2674446  52.5436554  37.9797134
  13.1784897  53.7010422  37.6312370  18.9006996  11.8226414  85.2086868
  19.2164516  12.2891626  85.9825668  18.4427910  11.0588722  85.5597000
  64.1127319  28.9576035  24.5885735  63.2743301  28.5394592  24.7847176
  64.7036667  28.2300186  24.3945503  73.0963058  62.5813065  55.3315010
  73.9591217  62.3376770  54.9962006  73.2686615  62.9278221  56.2069740
  55.4904823  71.0228195  71.5891037  55.4858208  70.8235703  70.6528854
  56.2681122  71.5667267  71.7143555  79.7143250   3.7793112  83.4171600
  80.1517563   3.7071302  82.5688248  80.4011536   4.0708137  84.0167618
  70.3005905  47.0766068   7.1136346  71.0857773  47.6081467   7.2446923
  69.6394348  47.6974182   6.8075323  33.1825447   8.5613146  75.6046219
  34.0362129   8.6220779  75.1759109  33.3864975   8.5121279  76.5385437
  12.7380028  50.1364098  24.9990311  11.8297100  50.4095497  25.1279907
  13.2330828  50.9552460  24.9738979  37.1925125  62.7480812  46.2044373
  36.7355270  61.9092369  46.1433105  37.9693832  62.6381149  45.6561584
  83.3328629  34.5161095  35.7648621  82.5620575  33.9506645  35.7163162
  83.7808609  34.3825798  34.9295769  27.7546482  31.7348232  65.8356934
  28.1196938  31.4053116  65.0144806  28.0655575  31.1196766  66.4998932
  84.1109924  20.9486580  23.5142155  84.3390045  21.8763466  23.5745068
  84.5313339  20.5487328  24.2755318  42.4199677  30.1482162  11.8813162
  42.2400436  30.2803917  12.8121166  42.8419228  30.9604607  11.6012354
   6.6826854  17.0122395  83.7503586   7.1263909  17.2832336  82.9466705
   7.0601640  17.5686588  84.4316330   6.0941229  69.2949524  73.6181335
   6.6405292  69.8050461  73.0202408   6.6710820  69.0898132  74.3538437
  81.4667206   9.3119736  36.0011215  81.1117020   9.9022169  36.6658058
  81.5963440   9.8672857  35.2323189  39.8428497   5.4265003  36.3605003
  39.4863052   5.3590932  37.2462540  39.6257896   6.3161941  36.0820007
  24.8230648  41.7627907  63.5341568  25.7362633  41.6278534  63.2809906
  24.4674263  40.8790741  63.6279335  72.4370956  62.7439804  37.8331108
  71.6729279  62.2874146  38.1850014  72.1643295  63.0309944  36.9616432
  84.4487228   0.3739431  53.9241982  83.5010834   0.3965466  54.0572472
  84.5554428   0.2733902  52.9782944  83.0201035  54.2223015  55.6270485
  82.5692902  53.3956566  55.7992477  83.5149536  54.0623741  54.8234444
  86.7531433  65.6687012  53.4102974  86.0449295  66.2839203  53.2201195
  86.3180161  64.8198776  53.4902687  34.0695076   6.7511292  10.8670387
  34.5440941   6.6217694  11.6881752  34.2828903   7.6468763  10.6056261
  84.9242096  31.2062836  22.7205219  84.7008438  30.4631424  23.2809505
  84.4862595  31.9536133  23.1278687  71.8042145  34.2915535  62.3797684
  72.5447769  34.7405777  62.7874107  71.8503113  33.3974686  62.7184639
  69.6046524  69.6852722  10.7497168  68.6863480  69.4315033  10.6572771
  69.8288574  70.0837021   9.9087543  10.5673332  51.6185799   1.4352601
  11.4186611  51.2575493   1.1880158  10.7130718  52.0062828   2.2982080
  65.9618530  23.6502209  23.8892918  66.2344513  23.1738071  23.1051044
  66.7677612  23.7629662  24.3933029  60.2069054  36.5584030  75.3282471
  60.8828583  35.9590187  75.6445618  60.1957054  36.4278755  74.3800583
  47.1011543  39.5707779  48.6053772  46.4198532  39.5532646  49.2775040
  46.7992096  38.9502525  47.9420471  66.2808304  34.6087456  53.0129929
  65.4946976  35.0509300  53.3334656  66.2704773  33.7563438  53.4483490
  59.7007294  46.4411697   5.3873887  59.8624992  47.0448837   6.1123648
  59.8911171  45.5757408   5.7493496   6.7035246  62.0466423  78.3971100
   7.2338295  61.2509766  78.3532715   5.8214078  61.7598801  78.1607437
  70.0085526  10.2197409  82.1188965  70.0657806  10.5535383  81.2236099
  70.8484650   9.7850409  82.2665863  37.8893585  68.7740631  64.8539658
  37.0078621  68.6741562  65.2134247  38.4322701  68.9980621  65.6098175
  58.7517967   1.8229063  31.6513996  58.1092377   1.1279917  31.5084267
  59.0558472   2.0523477  30.7732525  10.1522264  31.1906090   6.2078581
  10.7063780  31.5745964   5.5283718   9.8960037  30.3385887   5.8548098
  59.5076904  33.3668327  33.7917328  58.5562401  33.4464111  33.8598595
  59.6565552  33.0181580  32.9128151  25.1393757  23.4965801  17.4921913
  24.7074757  24.1815071  18.0026493  24.6337318  23.4476261  16.6809216
  51.6044693  17.1483326  69.1760864  50.8234978  17.0619164  69.7227478
  51.9518280  16.2586651  69.1123047   2.1198916  51.1672745   0.4319235
   1.7195498  52.0354195   0.4796949   2.2950397  51.0352325  -0.4998060
  68.1187973  35.8385658  21.0678005  67.3556290  35.7672882  21.6411495
  67.9912720  36.6643639  20.6008625   8.4509325  50.8862648  46.6843643
   9.1026535  50.2545967  46.9884796   7.7028937  50.3504410  46.4206161
  56.7031517  68.2356415   5.6153836  56.6918526  69.1789017   5.7777367
  55.8852196  68.0630493   5.1490870  72.2372971  40.7726707  26.4088001
  72.4109802  41.3352470  27.1634998  72.9340515  40.9837341  25.7873383
   4.1518826  42.3045540  28.7141571   4.6546803  41.7641144  28.1047707
   3.9009776  41.7039642  29.4159908  79.8209381  33.6595116  20.4643078
  79.4612427  34.3594780  19.9194241  79.4929657  32.8533173  20.0659199
   7.5372291  45.5426788  49.0830078   7.5602818  45.8344231  49.9943733
   8.1810331  46.0942612  48.6385918  61.3788376  37.9386177  14.1695967
  61.7818069  38.7603645  13.8892698  61.5682755  37.3246841  13.4600687
  73.8622513   3.0785892  80.2783508  73.4132919   3.6614542  79.6660233
  73.1658630   2.7399848  80.8410416   3.5479410  59.0770454  87.8810120
   3.9017360  59.8805695  88.2623367   3.5794101  58.4394035  88.5942078
  36.7775040   3.3815279   6.7811337  37.2709923   3.3884482   7.6012874
  35.8607750   3.4265807   7.0528183  37.8968735  40.6386719  39.2029991
  38.1567154  41.3479042  39.7909660  37.6512260  39.9212151  39.7870712
  11.0518551  29.0547905  31.1595192  10.9085627  28.2475185  31.6534958
  10.8206949  28.8285503  30.2586231  58.7009239  29.4414711  82.9966431
  58.0197296  30.0783920  82.7809143  59.3868179  29.5950127  82.3468628
  71.7331467  25.3111305   7.4261661  71.5387344  26.2115059   7.6864696
  71.4082184  25.2459583   6.5281658  19.6844234  13.1419210  59.7678299
  19.7930050  13.2507601  58.8230591  20.1824932  13.8640022  60.1509209
  35.3115654  10.1075516  14.6660709  34.6714935  10.4591541  14.0472679
  35.7138214   9.3727360  14.2029619  53.7937317   6.7686548  49.2662697
  54.4414597   6.9081059  49.9570885  53.0178299   6.4486666  49.7265015
  72.5174484  65.4452972  47.9880371  72.8358688  66.0187225  47.2908821
  72.0600739  64.7409973  47.5286827  70.6255798  33.0242691  30.3436394
  69.9907532  32.7116699  30.9882412  70.2011261  33.7792397  29.9360905
  70.9669037  38.1440544  29.6709461  71.3386536  37.5128365  30.2870636
  70.7388382  38.9004555  30.2113876   8.8673601  63.8535728  47.1827049
   7.9247417  63.9204674  47.3351135   8.9762955  64.0707703  46.2568626
  12.5783415  40.3790588  75.6263504  11.9882965  41.1269341  75.5327454
  13.4206839  40.7667923  75.8637314  29.2954559  58.3163452  53.4340477
  28.8965588  57.6400108  53.9814796  28.6958160  59.0597992  53.4968262
  67.8780746  41.2088661  77.3843079  68.3114548  41.4586830  78.2004013
  67.0199432  41.6304626  77.4300308  30.5637112   6.2842774  32.8476410
  30.4709644   5.3787394  33.1436691  30.6705856   6.2163444  31.8988571
  53.4619026  26.3008137  26.3949413  53.2891426  27.0849762  25.8739071
  52.6765518  25.7641907  26.2877235  55.3516846  48.7222137  12.9741974
  55.7598000  48.1132431  12.3587046  56.0157623  48.8613014  13.6493931
  72.5057144  23.5416908  75.5687561  72.7696075  22.6245022  75.4955368
  72.3463135  23.6711521  76.5036697   7.4414086  55.9235878  76.3088989
   6.6965728  55.4094429  75.9972839   7.2119384  56.1567001  77.2084732
  17.1314030  29.2035084   5.3530526  17.4369888  28.4705124   4.8186684
  17.9140263  29.7342110   5.5016661  66.5860901  60.7337227  28.3551044
  67.4984665  60.7355843  28.6445713  66.4275513  59.8342819  28.0685692
  61.3407288  68.9838333  60.3041992  61.9168968  69.3774185  59.6489487
  61.0810509  68.1454697  59.9221687  45.0560455  69.5568848  75.3812408
  44.2301064  69.9794464  75.1456604  45.4458389  69.3088608  74.5429230
   9.5574427  32.5190697  31.0431919  10.4541416  32.4616661  31.3731422
   9.5316496  31.9027824  30.3112373  32.3233681  10.6067142   9.4731989
  33.1449242  10.2233973   9.7803516  31.8986034   9.9022474   8.9837761
  60.9558296   6.2592258  80.9363861  61.2663574   5.7197409  81.6635437
  61.4009209   5.9036045  80.1671982  34.2939491  56.8785057  39.6329117
  35.0567207  56.3205910  39.4807816  33.6214447  56.5294991  39.0479698
   3.3225615  20.8496380  38.4784203   3.2213490  20.3535728  39.2907677
   3.1493373  20.2124043  37.7854881  18.0318432  44.6293755  55.4889488
  17.3167629  44.0943451  55.1445084  18.0119839  44.4762650  56.4336128
  79.9720078   0.9232142  59.6815186  79.9895401   0.3852352  60.4730377
  79.5256805   1.7269508  59.9480400  74.8390656   8.4296789  77.1330795
  75.5015335   9.0679264  76.8684845  74.0225983   8.7640123  76.7618179
  49.8216286  63.0332336  18.8552856  49.1341591  62.6524124  18.3088474
  50.5812912  63.0948257  18.2761917  66.7843170  23.4392624  42.4357300
  66.1697235  22.7440090  42.6705208  66.2283936  24.1902046  42.2277298
  60.7048035  41.3469276  20.9390640  60.3675613  40.4511299  20.9456711
  59.9295654  41.8955879  21.0582676  72.9178619  69.6168060   1.8832622
  73.6982651  69.7969055   1.3590878  73.0127487  68.7017059   2.1475024
  53.5613289  49.6155128  10.8284311  53.9557114  49.3176575  11.6481743
  52.6461411  49.3417969  10.8896027  40.3445168  40.2302170  62.7012558
  40.6927567  39.9883041  61.8430977  39.3988152  40.1070099  62.6193771
  80.5023575  13.3544073  25.6831093  79.9661636  12.8580132  26.3014297
  80.9536209  12.6862268  25.1672344  84.3518753  28.8356133  49.7152596
  84.4892273  29.4211674  50.4599037  85.2017670  28.8032150  49.2760963
  45.8675117  40.8007240  21.7804756  45.3808670  41.0691261  22.5598125
  46.2125435  39.9352341  21.9998245  35.5685654  25.9990387  84.9295425
  34.8816986  26.2208080  84.3008423  35.7564697  26.8227444  85.3794708
  44.8082581  55.5198059  81.5149002  44.9054146  56.0843849  82.2817383
  45.6859703  55.4783478  81.1352463  60.5989838  42.9281921  50.5857391
  60.0236130  43.6889534  50.5055962  60.1236649  42.3278580  51.1601143
   6.3216543  55.6298256   3.0570366   6.7998853  56.2688103   2.5286181
   6.2978134  56.0137291   3.9335532  46.6802444  20.9115906   5.4773235
  46.7616653  21.8607616   5.3841615  45.7694855  20.7737217   5.7375884
  81.6332397  41.6364594  44.2978783  81.8053360  42.4024315  44.8455086
  82.4906693  41.3950043  43.9475174  49.1193123  65.1696625  10.8759365
  48.5797501  65.6928177  11.4687405  49.8507462  64.8725204  11.4171724
  41.3521805  48.6812706  68.8956833  41.3391151  47.7274895  68.8159485
  42.1734123  48.9450836  68.4806900  54.1697350   5.1176534  81.0927505
  53.8977127   4.2402015  81.3616638  53.8815422   5.1894040  80.1827927
  43.9762573  70.2238007  47.7129173  44.2563057  69.4926605  47.1622467
  44.6072693  70.2370605  48.4325562  18.0862579  64.1370468  37.2168350
  17.6869812  64.1833878  38.0855484  18.3809280  65.0305710  37.0407028
   8.9765635  39.9414558  35.8954391   8.5315666  40.3911667  35.1771278
   8.6291924  39.0498276  35.8715858  75.5354233  35.8839455  22.6052475
  76.0851593  35.6473656  23.3522797  75.4613953  35.0761986  22.0970211
  77.3690872  38.5484924  76.7685776  77.1225739  37.9930077  76.0290451
  76.5873642  39.0715218  76.9462891  37.9434700  27.6905880   4.3029666
  37.9324493  27.9825191   5.2144961  37.3928413  26.9076557   4.2955427
  19.6211662  36.0924339   1.0968337  20.3917141  35.6134758   1.4019367
  18.9062576  35.4586906   1.1560754  63.0604477  15.5899706  69.9479446
  62.9858017  16.4844894  70.2803574  63.5062523  15.6837139  69.1061020
  12.9728613   0.8453287  22.1409245  12.9166985   0.0875687  21.5587940
  13.8942766   1.1028354  22.1106625  34.7830505  36.6551170  82.0444183
  35.7052116  36.4743042  81.8623276  34.6663857  36.4050293  82.9609756
  66.0532684  44.1258125  31.5083447  66.9971848  44.2489586  31.6087856
  65.9444580  43.8371811  30.6022072  82.4289703  -0.0108641  16.6533909
  81.6307831   0.2185216  16.1774540  82.2299118   0.1930119  17.5671978
  70.7522812  10.7068758  71.9672318  71.0961456  11.3231993  71.3206024
  71.4156647  10.6884775  72.6570282  51.0360565  60.7340965  13.5203323
  50.1440201  61.0599098  13.4005709  50.9504471  60.0338554  14.1672983
  26.2861366   4.7576914  73.0190048  26.7706490   5.5817742  72.9703445
  26.0520000   4.6717176  73.9431381  63.3307648  16.6786976  80.4591751
  62.9427910  17.3394852  81.0328217  63.7587852  17.1834259  79.7676010
  33.2317505  35.1227798   8.0541077  32.3573456  35.2421989   8.4247637
  33.6732750  35.9579926   8.2080784  43.6665802  53.8492432  34.9090691
  43.7776909  54.7912979  34.7809410  44.0391808  53.6796150  35.7743034
  82.2041473  63.0666199  68.2591095  81.8641129  62.1730652  68.3056412
  81.9657059  63.4576988  69.0996017  75.1651154  70.4937134  71.3536148
  74.8629227  71.2893753  70.9156265  75.8629456  70.7917862  71.9370651
  81.4637451  32.3314781  59.8247108  81.4781570  32.6696472  60.7200661
  82.3543396  32.0146904  59.6739731  79.0616760  10.9289026  63.6964188
  78.6798248  10.2412033  64.2418442  79.6910400  10.4709387  63.1392746
  16.8975143  33.7915382  69.0754395  17.2370911  33.4952278  69.9199066
  17.6199818  34.2843857  68.6863708  18.4719524  18.9965706  28.5688171
  19.2399006  18.4936314  28.2976322  17.8049355  18.7863178  27.9152775
  26.0792522  43.2958946  76.3239136  26.3230247  42.4181709  76.0299530
  25.5019398  43.1460266  77.0725632  83.0554733  30.5506687  73.1095352
  83.2737274  31.1137409  73.8521957  82.4991150  29.8669739  73.4827042
  14.3268995  67.2397079  84.7981339  13.5712252  67.8047714  84.9590454
  15.0813332  67.8257294  84.8584518  35.3723984  58.1619339  79.7168274
  35.0140114  57.3357620  79.3924408  34.9388161  58.2966461  80.5595016
  22.9985161  57.7217598   8.7575607  22.7207088  58.4521294   8.2047319
  23.6343136  58.1063957   9.3609247  58.7645416  12.4109802  22.9632797
  58.9562836  11.4734507  22.9408379  58.5272331  12.5851812  23.8740864
  23.4094963  29.5740414  69.9146500  24.0017776  30.0817165  70.4693604
  23.9479904  29.3089275  69.1690140   2.6619046  42.7257156   6.1104593
   2.9328659  41.8742294   5.7672668   2.7463584  42.6391335   7.0599866
  45.3337860  69.0424194  41.4049835  46.0994110  68.6073380  41.0298119
  45.0220032  69.6208725  40.7089844  78.0070114  63.1365585  46.6537590
  77.1139297  63.0804482  46.9935875  78.3602524  62.2534866  46.7616386
  41.7118835  47.7449837  48.0276413  40.9808884  47.5536385  48.6152344
  41.5852280  47.1521645  47.2868614  44.6434708  66.1168289  12.4148531
  43.7553711  65.8128510  12.2274752  44.5200920  66.9113541  12.9342108
  40.6091995   1.8694321  79.8582535  39.7908478   1.4196973  79.6478424
  41.2934418   1.2378352  79.6366043  42.3794785  10.7687788   7.8652458
  42.8463783   9.9793873   8.1392832  42.0282516  11.1334658   8.6775732
  10.0315819  31.3179111  70.2379761   9.3992062  31.0952282  70.9211655
  10.7645197  30.7203255  70.3860474  82.6230164  48.0289040  31.7355022
  83.4173355  48.2186012  31.2362041  82.9372406  47.8199234  32.6151733
  75.0696793  32.3030930  65.5263214  75.8101273  32.0864792  66.0929260
  74.3023834  31.9877205  66.0038528  22.5707130  55.8038177  49.5314407
  22.4399986  56.3296547  48.7423630  23.3931942  55.3394127  49.3762589
  85.4720154  56.1043243  72.0268936  85.6622314  57.0385094  72.1126022
  85.8823853  55.8512154  71.1999969   2.7534697   0.9069732  75.9270020
   2.2063103   0.1406905  75.7547836   2.1587887   1.6514013  75.8352737
  14.0659866  36.8751030  46.8902130  13.8164778  37.7982559  46.8481865
  14.9806957  36.8611641  46.6085320  79.3183899  15.8075123  66.6044617
  78.4092178  15.5158844  66.5366974  79.2764359  16.7548256  66.4738159
  25.0245266   4.0936985  49.2147636  25.5038586   4.9206858  49.2654076
  25.7029667   3.4312551  49.0839195  83.1179810   5.5677862  26.2449684
  83.2076950   5.1708965  25.3785610  84.0173340   5.6667891  26.5573559
  24.9902534  60.3057518  71.3381805  24.5955696  60.5526237  72.1745529
  24.4808178  59.5495453  71.0468750  77.4984055  67.1885757  35.8696098
  77.2603912  67.8997574  36.4644241  77.4054642  66.3946686  36.3962097
  64.0045700  21.8958511  25.6597595  64.8754959  22.1747646  25.3770638
  64.1474075  21.4985504  26.5188179  66.8700562  60.8727264  70.9682312
  66.5525513  61.7261734  70.6731949  67.6952438  61.0650444  71.4135590
  27.5281525  64.8164291   5.1231356  27.4543037  65.7231903   4.8255358
  27.8947468  64.3474350   4.3735466  71.5534592  21.4962349  88.9109726
  72.3717804  21.9651451  89.0744019  71.7671204  20.5775681  89.0741806
   5.4606552   5.8699012  10.3438206   5.0513139   6.6198030  10.7754679
   6.3575263   6.1546860  10.1684580  43.1205750  37.2179413  29.6824188
  43.1058960  38.1574631  29.4998875  43.2344818  37.1600037  30.6310501
  77.4188309  24.6636829  61.6517792  78.2488403  24.4727020  61.2149200
  77.2093811  25.5593834  61.3870506  32.8983154  16.9105701   7.4588366
  33.1963768  17.7626133   7.7772889  33.2363701  16.2840805   8.0987272
  50.2406120  39.2665901  15.1545944  50.0673027  40.2057991  15.0906496
  51.1954079  39.1988373  15.1569214  82.3317032   3.7261498  32.2560997
  83.1640472   3.2541063  32.2314644  82.2569122   4.0327921  33.1597633
  64.0047073  60.1851349  60.2692223  63.2412872  60.0657234  60.8341637
  64.3077850  61.0726929  60.4605751  26.2113972  49.3842583   9.3728542
  26.0055580  48.7002449   8.7356853  25.6680794  49.1751556  10.1326656
   3.0487552  12.5704031  54.1041489   2.1210990  12.7528191  53.9544487
   3.3698306  13.3366032  54.5796280  76.7625122  18.7538166  83.4525986
  77.0690842  18.8123093  84.3574829  77.5292740  18.4642220  82.9581833
  81.4443512  15.8781319  25.6662292  81.2745285  14.9448071  25.7938843
  82.3090439  15.9104567  25.2569637  70.2361603  67.3565216  54.8365898
  69.9951553  67.8559418  54.0563812  69.7663803  66.5275879  54.7449455
  19.5317993   6.8390412   8.5006266  20.1627254   7.4066978   8.0579882
  19.6131458   5.9964037   8.0538864  41.8674507  63.9548454  63.1695099
  41.5189209  64.0001755  62.2791710  41.3503456  64.5923386  63.6618919
  48.5581703  69.6998520  62.3587418  49.4506416  69.3714752  62.2496719
  48.1559410  69.0970840  62.9841385   7.6443076  39.5855408   5.9877844
   7.4210501  40.1784134   6.7053437   7.2902522  40.0108185   5.2067485
  48.6167603  52.3452530  10.0994158  48.1376457  53.0893974  10.4640121
  49.0113144  52.6847763   9.2961197  84.6769867  43.4488068  65.3172684
  83.9015045  42.9181252  65.1349564  85.4109039  42.8423462  65.2182846
  39.8405075  33.8709373   3.5293660  39.9650955  34.1930199   2.6366336
  39.2585716  33.1170845   3.4329815  84.3887863  22.4594593  58.9035759
  83.9929047  21.6064358  58.7250671  83.8573532  23.0793819  58.4040680
  86.3897781  24.7031631  15.1847019  86.7873001  25.1909237  14.4633846
  86.5962601  25.2182446  15.9646311   0.2458148   2.6963599  72.0791473
   0.6081725   3.5715563  72.2168427  -0.6456334   2.7492764  72.4237518
  11.2549601  19.2661171   6.6282215  11.6608810  19.7558155   5.9129195
  10.5837889  19.8558960   6.9716177  39.5504341  14.5750380  83.7160721
  38.7185173  14.6763096  84.1785507  39.3524246  13.9774332  82.9950333
   2.7518091  41.3383904  23.9948025   3.7080154  41.3728867  24.0214767
   2.4920638  41.1893806  24.9039574  39.8342781  51.0314102  25.5771694
  39.5083313  50.2246742  25.9761257  39.5613937  51.7236328  26.1793308
  23.1472950  12.4180145   9.0089855  23.9785347  12.0744371   8.6815281
  22.7231712  11.6657286   9.4218016  59.6782303  58.6929741  51.0519867
  60.4423790  58.5332069  51.6058693  59.9369125  58.3712463  50.1883850
   1.3258691  16.3987389  47.0409584   2.1491554  16.6601601  46.6285400
   1.2158618  17.0131092  47.7666855  21.0552902  47.8322334  34.3909760
  21.1225071  46.8778152  34.4192848  21.2743721  48.1142120  35.2790756
  71.2565918  29.7163582  29.1015778  70.4300003  29.5319424  28.6555176
  71.1754379  29.2764339  29.9478130  56.5549812  57.2760849  51.4692421
  55.9845543  56.6832581  51.9585266  55.9994926  58.0282021  51.2643433
  63.6891441  33.5329132  13.1331367  63.6927719  33.5218544  12.1760073
  64.4720688  33.0413132  13.3813133  84.7358475  47.9887390  46.3633537
  84.5950089  48.8754539  46.0314865  83.8635406  47.5947304  46.3716202
  84.4023590  12.3038197  27.6282463  84.2080765  11.7958736  28.4159489
  84.1259308  13.1946125  27.8434391  36.1159515  65.2619553  86.0647736
  35.8463707  65.4713287  86.9590454  36.9908714  64.8856125  86.1602707
  25.0377560  56.5755081  26.9787369  25.0325584  56.1970901  26.0995312
  24.1314392  56.8441620  27.1292229  41.2833862   6.9201927   9.9567261
  40.3340683   6.8033881   9.9195080  41.6232376   6.0519185  10.1731386
  12.5799246  21.9898243   2.0836067  11.8601007  21.4286213   2.3719409
  13.3457937  21.6560326   2.5507898  78.5503845  52.4347000  33.5766182
  78.7641296  53.2139778  34.0897179  77.5969849  52.3674850  33.6290627
  18.4821987  69.3073502  66.3900909  18.1198158  68.4704666  66.0993500
  18.8668556  69.1174622  67.2457809  10.8837748  -0.1807168  63.3109360
  11.1062441   0.7271906  63.5169525  10.5721140  -0.1516035  62.4063644
  77.5502625   7.1824379   5.1312380  77.9633255   6.9134426   5.9517598
  77.1842346   6.3745651   4.7712445  15.9012938  69.0647430   6.6616669
  16.2015343  68.3871613   7.2674518  15.8385105  68.6196976   5.8165469
  80.0894012  59.6390648  18.2121449  80.5155334  58.8650093  17.8440723
  79.1549225  59.4886246  18.0695038  68.1122360  41.1863976  74.6866226
  69.0067139  41.0311127  74.3832550  68.1645279  41.1037674  75.6388092
  22.1608181  21.3675823  77.1562500  21.5012608  22.0475731  77.0190277
  21.6567364  20.5579758  77.2379227  25.1570778  60.7057152  30.9688263
  25.2720547  59.7601013  30.8748684  24.8309269  60.9932365  30.1160717
  51.8392143  44.4064636  79.6756668  51.9222260  45.1809654  79.1193390
  50.9204369  44.4017525  79.9441071  57.4799728  21.7581158  32.1725655
  58.0072861  22.5569668  32.1690826  57.0205345  21.7780609  33.0120583
  28.0430489  34.8196526   3.8858533  27.5474968  35.2335129   3.1791861
  28.7009983  34.2882004   3.4376428  49.4959755  63.3009567  23.1538525
  50.1175117  63.8525085  22.6787529  49.2276039  62.6389160  22.5167408
  18.9714622  27.4425182   6.9343929  19.6909103  26.8155079   6.8603406
  18.9699154  27.9053402   6.0965233  18.3571301  45.4975281  75.7416306
  18.6486511  44.8868523  75.0646362  19.1140194  45.5934410  76.3196869
  48.8643761  69.1865158  12.2698498  49.2491302  69.3017578  11.4009905
  48.1882553  68.5203781  12.1459589  68.4563446  23.5761738  24.9658298
  68.5093536  23.1225739  25.8070602  69.1130219  24.2699852  25.0260315
  22.2473564  -0.1034645  21.3053188  23.1811619   0.0104733  21.4821186
  21.8420143   0.6998715  21.6317844  54.4348183  31.5140820  30.3190002
  54.4304543  30.8331718  29.6462631  55.2901955  31.4292145  30.7401390
  32.5942001  62.4801331  89.0270615  32.7579155  62.3117485  88.0991211
  32.9291153  61.7028999  89.4742432  86.4566345  59.5385780  26.3773556
  85.6953659  58.9812202  26.2159653  86.3935394  59.7675934  27.3046112
  73.2057495  61.2800255  23.8021297  73.6781311  62.1093597  23.7294064
  72.4570007  61.4793434  24.3641644  14.6385803  44.3423958  40.6592827
  14.7405243  43.7122841  39.9459839  14.2649813  43.8322830  41.3779182
  23.5921497  32.3862953  87.3050995  22.6970310  32.0471878  87.3066254
  23.9435883  32.1385460  88.1602859  72.6406097  44.5759048  69.8974915
  73.1466980  43.7660522  69.9626083  71.8786926  44.4279099  70.4576797
  12.3560305  61.9424706  58.3721123  12.1486197  62.7355804  57.8779564
  11.5906935  61.3798027  58.2542229  69.7580338  29.1640720  53.0833664
  69.4442596  29.0893574  53.9845886  70.5950165  28.6996517  53.0818825
  14.6489477  66.0238571  45.1889076  13.7264595  66.0130692  44.9336967
  15.0353441  65.2830429  44.7218781  17.9932213  55.7172203  32.4505615
  17.0442581  55.6493607  32.3452339  18.1151028  56.4450722  33.0601540
  22.2597313  48.9092865  47.1211815  23.1552296  48.6184311  46.9487991
  22.0626736  49.5145149  46.4062691  47.1351013  66.7130890  75.1427231
  48.0299530  67.0490875  75.0919876  46.9654579  66.6241837  76.0805664
  56.7698097  39.0531921  64.6183167  57.5050240  38.7381287  64.0925522
  56.2087097  38.2857246  64.7296371  19.6329250  56.7953072  75.4265289
  19.7217350  57.7441292  75.3366318  19.5107002  56.4802742  74.5309601
  37.0926590   9.2772684  77.4483337  36.7753143   8.3861704  77.3018188
  36.9889107   9.7107773  76.6012573  82.2852325  40.2172394  26.4154148
  81.4529495  40.1287956  26.8798561  82.9486389  40.1864166  27.1047497
  43.4119225   3.9028809   2.8531291  42.6516953   3.3218639   2.8265271
  44.1069489   3.3703558   3.2398920  55.6516266  35.1952133  76.0008621
  55.9533653  34.8797493  76.8527222  56.2269630  35.9337578  75.8014450
  10.3152180  64.3086700  37.2692871   9.3834114  64.2509079  37.0580215
  10.3401499  64.3877029  38.2228928  71.9180756  22.4554768  38.4344978
  71.3723526  23.2388077  38.3651352  72.6878433  22.7425671  38.9256897
  84.8871078  65.1201935  43.5797195  84.8590240  64.5449448  42.8151779
  85.1465683  64.5471649  44.3012123  84.6509857  56.1202545  56.9001389
  83.9974289  55.5342903  56.5183754  85.0393143  56.5680618  56.1485367
  55.3833809  28.0347824  30.6633606  55.2590523  28.6307411  29.9247074
  54.6319809  28.1994133  31.2330360  66.8088684  38.4856110  58.7879524
  67.7095871  38.4542389  59.1103630  66.7719574  37.8069496  58.1139450
  11.7353382  22.1921520  84.9331055  11.5467434  22.2796688  85.8674545
  11.8948421  23.0879936  84.6360168  14.8352356  56.1965714  84.9919281
  14.0839367  55.8505211  84.5102310  14.5449810  57.0532341  85.3051605
  33.4796867  65.3010559  63.5082664  33.2451019  65.8273621  62.7439346
  34.1469231  64.6950302  63.1861343  70.1912231  57.7342186  10.2716599
  70.6785049  57.3341293  10.9918766  69.4294357  58.1343040  10.6910009
  73.8411255  27.2314377  88.0781021  73.8964005  26.3470325  87.7161636
  73.0502167  27.2206192  88.6171646  22.1492748  14.0192680   1.7327807
  22.4969711  14.8440924   1.3936597  21.2112980  14.0600491   1.5463159
  59.7598381   1.1920654  21.3597736  60.2845497   1.6574301  20.7083549
  59.2173653   0.5930398  20.8468208  71.6714249  21.3979702   6.5519180
  71.9863815  20.4978218   6.4696364  71.4836578  21.6691036   5.6533294
  59.0465889  53.9501572   0.9237486  59.9627533  53.8228073   0.6774591
  59.0155334  53.7275543   1.8541870   4.7839308  22.3151093  13.4038582
   4.9353771  21.4846916  13.8551903   4.1766157  22.7891617  13.9719028
  10.5560360  10.6020622  88.8283386  10.0152950  10.1107101  88.2099457
  11.1351986  11.1268215  88.2756805  61.9147911  59.9068527  61.8961906
  61.9399567  59.0463524  62.3146858  60.9949837  60.0331116  61.6632881
  52.4802818   6.8880329  61.3914528  52.1224060   6.5022674  60.5918655
  51.7104340   7.1196699  61.9109879  13.6792164  51.7601471  22.5343494
  13.6404009  52.1176758  23.4214230  14.0119400  52.4811554  21.9998665
  32.4729004   7.2925963  79.1513748  32.3623123   7.2565532  80.1014786
  33.1024513   7.9996729  79.0101700  28.4805965  22.7377014  78.8082199
  29.1007996  22.0086803  78.7978821  27.6244621  22.3254719  78.6927490
  51.2749443  57.7535553  77.8372192  51.4084625  56.8061066  77.8644562
  52.1549683  58.1166840  77.7375717  55.3389549  14.5058203  80.1622620
  55.8980942  14.0020361  79.5708237  54.9408569  15.1740227  79.6043549
  32.6957016  25.0508785  81.6391602  33.5615273  24.6455708  81.5911255
  32.0904846  24.3535461  81.3868256  57.2441864  25.0983467  60.5428085
  56.8678932  24.9344616  61.4075470  57.7352257  24.3020058  60.3404427
  70.5454559  30.1000366  61.9301224  70.9687653  29.2627125  62.1196785
  70.9221497  30.3750496  61.0942421   4.2551370   9.7316990  25.1893291
   5.2073050   9.7887859  25.2690125   3.9369535  10.5757551  25.5095787
  77.3343124  24.6306076  86.7870026  77.2967682  25.3925304  87.3651810
  76.5815353  24.0979366  87.0435486   4.2023439   3.1704607  62.1094475
   3.8053842   3.2621441  61.2432785   5.0346260   3.6384573  62.0422401
  15.6409512   8.9953575  79.4297409  15.2516556   8.2528057  79.8915863
  16.4419632   9.1874132  79.9173203  18.1159897  23.3400631  84.7672119
  17.7007885  24.1587181  85.0385818  17.5870476  23.0362797  84.0295334
  45.8678551  34.3523712   4.5095530  46.5372047  34.1902351   3.8447890
  45.4605560  33.4980545   4.6526837  59.4930305  38.9109383   3.3632555
  59.5395050  38.9128761   4.3193245  58.6174278  39.2431908   3.1653507
  29.1658497  46.3973656  20.3170185  29.8828621  46.1171989  20.8859043
  29.1761570  47.3529510  20.3716393   0.3260786  25.1360741  60.9077759
   0.7307369  25.5556812  61.6669960   0.2815827  25.8275299  60.2473679
  45.3042183  23.2033749  67.2364426  45.5815506  22.3746166  66.8459549
  44.5601463  22.9695568  67.7913513  65.4007034  23.7249565  84.4315796
  65.5171738  24.0165405  83.5273438  64.5980072  24.1583900  84.7214966
  45.8539047  28.9885273  86.9339218  45.7439537  28.4527130  86.1484070
  45.4569550  28.4708900  87.6344376  78.3931274  36.9898262  21.1574020
  78.0754929  37.8317032  21.4838619  78.9756165  36.6701012  21.8463955
   1.1490818   9.9864960  59.7252846   1.0145438   9.3511381  59.0221100
   0.4099623  10.5897455  59.6476669  71.3184204  52.3496094  18.1290245
  71.2919846  51.8114357  17.3378830  70.7250443  53.0774307  17.9435368
  46.6737671  61.0752106  23.0255871  47.3172722  61.7028160  22.6965847
  46.0121078  61.6150398  23.4580479  80.9141846  47.6422806  73.8302536
  80.5545578  48.3134003  74.4103394  81.1139603  46.9069672  74.4095993
  68.8762894  27.0658684  41.2405167  69.2222366  27.8520298  41.6630096
  68.9220200  27.2575226  40.3038177  82.8719330   6.3269114  63.9514580
  83.2472534   7.1829600  64.1577301  82.6400528   6.3841133  63.0245323
  28.5815964  35.0722733  74.4749603  28.7552052  35.8351555  73.9235077
  28.9144211  35.3196335  75.3376770  55.9168892   2.7959790  19.7942123
  55.0803909   2.9393594  20.2368641  56.3715401   2.1565795  20.3425694
  82.4488220  15.5934639  70.2592545  81.5024261  15.7059374  70.3482285
  82.6242599  15.7634296  69.3337479  38.2520218  10.0366182   5.6917763
  39.1674805   9.7848730   5.8133769  37.9325638   9.4531460   5.0034895
  83.4667969  57.8046913  58.5253601  83.6563568  58.5687981  57.9808922
  84.1097946  57.1503983  58.2520523  33.6440964  54.4377098  29.4873734
  32.7089920  54.5582771  29.3222103  34.0607986  55.1883812  29.0641880
  49.3003387  42.5337181  53.5550461  48.5739021  42.0734482  53.1347198
  48.9659729  43.4169159  53.7112274  41.3127861  31.8271961  80.8367386
  41.1270142  31.8061256  79.8979721  40.4648399  32.0023918  81.2448196
  67.5050201  17.7498417  53.9965477  68.3724594  18.1319466  54.1298714
  67.0169220  17.9822903  54.7864571  41.0942879  46.6689758  63.1521225
  41.8832016  46.1629944  62.9576302  40.9957924  47.2564964  62.4028893
   5.7944484  32.4234772  47.6198921   5.5793662  33.3560600  47.6358414
   5.0069156  31.9903812  47.9492149  20.6667557  59.4756813  58.5249825
  20.8984489  60.4041824  58.5039864  20.1628857  59.3363686  57.7231483
  26.1447735  57.2665405  74.8966751  25.5884552  56.4895515  74.9516830
  26.8454342  57.0172768  74.2940369  28.2103329   7.6193771  32.7208366
  29.1243477   7.3518848  32.6246338  28.0935478   7.7384014  33.6633987
  44.0060272  45.4155540  25.8175488  44.4363480  45.9615746  25.1595821
  43.2859573  45.9556160  26.1432228  85.6812668  22.5047131  21.2886238
  84.8010254  22.2432022  21.0183811  85.5433273  23.0337448  22.0743275
  69.6305542  20.9418392  73.2369080  69.7476425  20.3406868  73.9725266
  69.5406570  20.3714828  72.4734650  51.7155037   3.8828802  56.3287697
  51.6279068   3.9015989  55.3757706  52.5374985   3.4178433  56.4846497
  44.4496117  53.0126152  64.0790329  43.6959648  52.4590569  63.8745270
  44.3252296  53.2573357  64.9960251   8.6201792  50.0798683  62.3316193
   8.0837622  49.6285324  61.6798630   8.5579109  51.0050049  62.0939789
  57.5620193  21.4152641   7.7222247  57.4457054  20.4872208   7.9257922
  57.6272659  21.8415661   8.5767651  25.0086918  57.8360443  83.4257126
  25.3564491  56.9955292  83.1276627  25.3831596  58.4777489  82.8222046
  80.4607849  27.4667568  33.1803513  81.2040787  26.9171562  33.4287033
  80.5310287  27.5491371  32.2292938  31.6777611  66.0471115  24.5249710
  32.2247276  66.7859955  24.2583103  32.2962265  65.4043045  24.8721523
   3.4551637  70.6595840  45.1153793   3.5843801  71.5427399  45.4611855
   2.9927871  70.7917099  44.2877426  50.5300560  42.0550652  63.6458015
  50.9136162  42.9301414  63.5878372  51.1313362  41.4968681  63.1527405
  84.2008209  24.7212830  36.8020363  83.7014923  23.9355736  37.0246658
  83.9471130  25.3624249  37.4659653  51.0366898   9.5869999  49.6722565
  51.4556313   8.7509413  49.4679832  51.6026878  10.2438889  49.2668190
  20.7429829  49.0188446  40.3372765  21.6025352  48.6044502  40.4126205
  20.1213398  48.3190575  40.5374947  19.5176353  52.2472496  21.3989201
  20.0621834  53.0303421  21.4793320  19.1289368  52.3143349  20.5267715
  74.3210526  59.1935310  70.4689331  74.1773911  59.1170197  71.4121933
  73.6408005  58.6453438  70.0778122   7.2618022  37.2764969  80.0674667
   7.3126092  37.5988808  79.1676254   6.3239374  37.2343178  80.2541809
  43.2924843  53.7352943  12.8193684  43.4890823  54.6676674  12.9102373
  42.7072144  53.6864777  12.0635185  74.8091660  59.6187744  82.8246231
  75.6249008  59.7951012  83.2933655  74.1656036  60.1932564  83.2393875
  56.7641869   2.4376805  33.5112419  57.5618744   2.7683039  33.0981827
  56.4761505   1.7256210  32.9400711  37.0385971  43.6945381  41.9609947
  36.6408043  43.9570084  41.1308708  36.3744812  43.1495514  42.3830986
  63.1240501  38.7001076  72.5797119  62.2392921  38.4743500  72.2925339
  63.3413010  39.4913063  72.0867233  74.7131729  12.0126429  75.0078583
  75.5649109  12.3982096  74.8026581  74.9044724  11.3471775  75.6687622
   3.3609350  25.1220951  76.9547653   3.0135005  25.2196808  77.8413239
   2.8591006  25.7464638  76.4307785  79.7735062  20.4585114  44.5939331
  79.0802460  20.3118248  43.9504166  79.4306488  20.0833645  45.4050674
  25.3777351   4.1316557  23.0869637  25.7317276   4.4315896  23.9241962
  24.4542351   4.3819613  23.1139278  40.8074303  41.3897400  50.1250153
  41.0368195  40.9100761  50.9209671  40.3147087  40.7596321  49.5992584
  37.0113373  23.1526661  78.3303299  36.8018684  22.4366512  77.7305984
  36.6090927  22.8956013  79.1599960  78.0138550  54.6469498  62.2435074
  78.6559525  54.8934631  62.9092216  78.5302277  54.2229042  61.5581017
  60.4356613  66.2259521  69.5776291  59.8496094  65.7512512  68.9881973
  60.9304085  66.8107834  69.0036697   9.9423904  59.9191284  51.3642120
  10.1037388  60.5764160  50.6873283  10.7728472  59.8517227  51.8354149
  52.3447189  58.4826622  18.1491413  52.9327736  57.8013992  17.8230915
  52.8761902  58.9807014  18.7702103   0.5145551  32.9681206  22.9039364
  -0.0246235  33.2866096  23.6278706   0.2424448  32.0581627  22.7849140
  86.0334625  71.0410080   4.0053396  85.4104080  71.5587769   4.5151854
  85.4901276  70.4124146   3.5300560   6.7037358  61.4897423  57.1583138
   6.5965805  61.4392509  58.1081581   6.0850039  62.1662521  56.8831062
  20.6166992  65.1100922  60.1702843  20.9661942  65.5309906  60.9557304
  20.7582760  65.7498932  59.4725456  71.9569321   3.9862511  69.4278030
  71.9580917   3.0444651  69.2567215  71.2491302   4.1140804  70.0593948
  16.5820599  67.1993866   8.5463133  17.0456715  67.9509888   8.9156284
  16.7528648  66.4865341   9.1618633  36.8572922  51.5702362  57.2383919
  36.5895691  52.2871361  56.6634064  36.5809975  50.7778931  56.7778625
  55.6071129  18.9358578  66.3446503  54.9042854  18.8687344  66.9909897
  56.2611885  19.4982166  66.7595825  58.4608269  42.4833450   0.9408129
  58.0985451  43.2517242   1.3819205  57.7213402  42.1129379   0.4589516
  71.6300049  48.3223152  54.9447174  71.2854996  47.6294403  55.5081635
  72.4933701  48.0068054  54.6777229  15.2816095  51.9282684  58.4892273
  16.2358704  51.8551140  58.4728813  14.9738512  51.0267258  58.5827370
  52.8971024  66.5132065  31.6537380  52.0859528  66.9579620  31.4078560
  52.9227142  65.7359314  31.0956936  35.1076202   4.1033821   9.8678703
  35.7110863   3.5400083  10.3522959  35.2036819   4.9639716  10.2757788
   2.2380829  23.8552742  17.6092529   1.4143479  24.2800007  17.8486271
   2.6488478  23.6401920  18.4466572   3.6895614  30.7135296  48.5090523
   3.7716725  29.9998703  49.1416473   2.8409302  31.1106777  48.7048302
  14.8306894  14.2999620  15.6902628  14.0977983  14.6947632  15.2177858
  15.5998020  14.5159760  15.1629715  63.8312263   8.2011137  52.9826851
  64.7841187   8.1577959  52.9029312  63.6450577   9.1285238  53.1292572
  65.2021790  62.9181519  50.9014664  65.2003555  63.3818436  51.7388573
  65.7503357  63.4566498  50.3306961  56.9917221  22.7412243  71.9440613
  56.3866272  22.5640411  72.6642685  56.4391212  22.7454147  71.1624908
  86.0155869  56.1697655  17.9623241  85.1110306  55.9768257  18.2088680
  86.5397034  55.5516014  18.4716415  38.8640556  57.0784111  61.7474632
  39.7021713  57.3082542  61.3462524  38.9767189  56.1724739  62.0352402
  42.4353905  50.4727173   8.8782167  43.0646591  50.9385567   8.3275404
  42.8888931  49.6692085   9.1330500  10.7335958  48.2438164  33.5599861
  10.9593697  49.0455551  34.0316620  11.4666557  47.6519737  33.7290344
   1.6777322  55.3023643  79.6067505   2.0580914  56.0212364  80.1115112
   0.8064643  55.1797638  79.9837036   2.6667862  52.4978485  74.2301559
   1.9034872  51.9923820  73.9506760   2.3074441  53.1812134  74.7959442
  35.0801620   4.5042968  74.0988846  35.2398605   5.1436481  74.7931137
  34.8677368   5.0335364  73.3301086  48.7983398  31.3726711  72.0278549
  49.4071388  31.9855595  72.4401169  47.9308624  31.7067013  72.2561874
   6.7922206  16.0685158  87.0584946   7.1090269  15.2038460  87.3196640
   7.2519197  16.2548084  86.2398300  58.8931007  21.5357838  74.1466141
  58.6311150  22.0501518  74.9101715  58.2761192  21.7929153  73.4614487
  30.2556000   1.8452384  27.1808929  30.8033848   1.1589444  27.5618973
  30.2897758   2.5597026  27.8169785  75.3121185  19.2628975  31.1473446
  76.1504593  18.8526058  31.3596592  75.3824005  19.4848213  30.2188816
  74.0318146  67.4918823  34.1610146  74.8350372  67.3313751  33.6657410
  73.3393784  67.4943161  33.5001373  12.0070305  38.9119492   9.1046391
  12.3113222  38.1801949   9.6414604  12.7431087  39.1054916   8.5241537
  45.0540161  67.9047546  27.8393860  44.2619820  68.4393311  27.7833595
  44.9901772  67.4704590  28.6900005  87.1134338  57.8718872  15.8040705
  86.8533478  57.1130180  16.3262768  86.2876511  58.2940826  15.5672913
  53.4308319   5.1503162  63.4655190  53.4602318   5.9947286  63.9153366
  52.7715530   5.2662435  62.7813072  35.8302841  36.6654625  75.8040161
  36.4183998  35.9104576  75.8218918  36.3943863  37.4030266  75.5715942
  55.8666916   7.5659919  19.6004143  56.3186874   8.1004696  18.9475250
  56.0880241   6.6645088  19.3668060  37.0825653  50.7643814  18.6501122
  37.9532394  50.5261841  18.3316517  36.6731567  51.2165794  17.9124584
  28.3568306  46.0514221  14.0185165  28.5250454  45.7878609  14.9232101
  29.2159481  46.0238838  13.5973415  60.0753365  66.0555649  74.5008774
  59.8689728  65.7137146  75.3708115  60.6758118  66.7825928  74.6654739
  78.3897018   1.2113891  74.7462158  78.2962875   1.8619117  75.4421539
  77.5637741   1.2557739  74.2644424  81.7529144  42.3525887  48.3602333
  82.2961273  41.5676384  48.2895393  82.1023178  42.8180199  49.1201820
   0.3921151  55.9129829  83.9618530   0.2401249  56.6047516  84.6057434
  -0.4521890  55.8032036  83.5244446  65.6236496  63.1616631  45.7850876
  65.4044571  62.9024620  46.6800728  64.9736023  62.7171288  45.2409744
  78.2404861  51.7158241  39.4842834  78.3954086  51.8087349  38.5442810
  78.0244446  50.7906723  39.6011276  26.1497421   6.1241479  83.6499481
  26.0106640   5.1957278  83.8368301  26.7751675   6.1315422  82.9253693
  84.9424591  26.0898342  51.4875984  85.0796509  26.9994831  51.7520752
  84.6933975  26.1436253  50.5649376  31.3403950  37.6553154  21.5314598
  32.0676842  37.8944550  22.1059990  31.1423550  38.4579735  21.0490208
  21.9621906   0.2758321  63.3497276  22.2069626   1.0785109  63.8101883
  21.6252346   0.5770116  62.5059357   7.3300605  24.2203293   8.2278862
   6.7685537  23.4704132   8.4242706   6.7312474  24.8855534   7.8885765
  39.1086578  24.3337803  70.4709167  39.9529800  24.6658573  70.1658325
  38.5300102  25.0960045  70.4506378  19.2077427  46.3278503  42.6010857
  19.4076366  45.8722534  41.7833405  18.3273411  46.6799316  42.4700737
  16.6009541  57.5831184  63.8513451  15.8726025  58.1214752  63.5416565
  16.9487953  58.0609856  64.6042633  18.5225658  58.8237610  87.8787308
  18.1894875  58.7076149  86.9888992  18.7322483  59.7559395  87.9362106
   5.9918046  37.0331421  36.5943260   5.7695169  37.2247849  35.6832314
   5.6810994  36.1385460  36.7335892  75.6360855  42.4160767   5.8808684
  74.8658676  42.7314987   5.4080982  75.9824905  43.1929817   6.3197856
  34.1011848  48.6731071  73.8760910  34.0898170  48.2564735  73.0143967
  33.8792076  49.5879364  73.7027588  83.1261215  38.8213043  84.5387192
  82.7120132  38.0034485  84.8141403  82.7839127  38.9785500  83.6587219
  35.3019485  67.0349579  20.6035748  35.1359291  66.1151352  20.3971958
  34.6513557  67.5163116  20.0924377  54.5898552   7.1439013  78.7136841
  55.0335579   7.3952065  79.5237503  54.6647453   7.9143534  78.1506348
  85.2149811  32.4539337  15.0979767  84.8416901  33.2551041  15.4654121
  84.4565048  31.9483681  14.8058195  48.5525169  61.0498009  53.4300385
  49.2490234  60.6489677  53.9500847  47.7524414  60.8739319  53.9251976
  47.5731354  50.4742241  58.3378754  47.7896271  51.3508148  58.0201454
  48.0537262  50.3925781  59.1616440  18.4957905  21.3079529   3.7560604
  19.4048481  21.0347042   3.6328466  18.5585270  22.1761417   4.1542354
  65.2039413  34.7589455  88.7317963  65.4919128  34.0483017  88.1588364
  65.8934708  34.8286438  89.3920441  49.9365768  35.2174454  80.9626236
  49.5882034  34.5192184  81.5170135  49.8414001  34.8846855  80.0701828
  56.0467987  27.7549496  14.4850035  55.6212387  28.5818119  14.2582283
  56.1261482  27.2900734  13.6520405  85.6405563  28.2792034  47.0260544
  86.2908707  28.1296692  47.7123146  86.1039429  28.7933922  46.3649063
  72.4332047  41.4250565  77.2874069  73.0360947  42.1296082  77.0499802
  71.6132202  41.6538506  76.8497849  57.8908615   4.8678088  86.3601379
  58.7627373   5.2061667  86.5640488  57.6825981   5.2426209  85.5043564
  48.4495621  48.9745331  22.5701714  48.4488220  48.6151466  21.6830006
  48.4748039  48.2058182  23.1399689   5.8171563  43.5631905  31.0543327
   6.7722020  43.4991646  31.0588036   5.5700336  43.3942337  30.1451492
   5.6093421  28.1033936  10.1902351   5.0923705  27.5313568  10.7574625
   4.9889231  28.4084129   9.5282116  42.5237808  60.8579178  23.0345402
  43.3185425  60.3371048  22.9190311  42.3613052  60.8409958  23.9776974
  77.8692627  64.1403580  61.2758064  78.6628571  64.0800323  61.8076019
  77.1618118  63.8966866  61.8727760  64.9084244  47.3911324  66.2438049
  65.4214478  46.7129898  65.8043060  64.2040024  46.9128609  66.6811523
  65.4819489  13.0245352  27.3081169  65.0963669  12.5140581  28.0201340
  66.1786041  13.5306005  27.7262154  82.0808487  36.2570648  12.8498011
  82.6530304  37.0124893  12.9846020  81.2222061  36.6371002  12.6639471
  19.5521564   8.7144604  61.5776291  19.9404030   8.3011093  60.8065033
  19.0551014   8.0139990  62.0001488  11.1905718  63.4652824   9.2831917
  11.9182739  64.0854187   9.3291483  11.3758011  62.9357071   8.5076466
  66.0189514  40.8503876  84.3971634  66.2597046  39.9309845  84.5110168
  65.1265106  40.8233299  84.0521317  12.5057364  68.0493011  32.7506752
  12.7941065  68.9257584  33.0054245  11.7014894  68.1969681  32.2530670
  54.1807938  25.2759018   2.8327310  54.5561256  25.5786018   2.0058513
  54.0904732  26.0698948   3.3596547  53.4862366  61.1022034  14.5023251
  54.0413361  60.5747528  13.9279652  52.6282082  61.0958176  14.0780916
  43.7141953  19.8213806  21.4853687  44.3521118  20.1887951  22.0971680
  43.8058739  18.8737164  21.5841637  51.0830612  17.6889248  82.2875519
  51.8450394  18.2618599  82.3733902  50.6938744  17.9322281  81.4475708
  70.2255630   4.5373726  55.7548676  70.6232529   3.7032943  56.0046387
  70.9687958   5.1210399  55.6026611  83.8503952   2.8603010   9.1949263
  83.0684128   2.3521705   9.4106703  83.5329666   3.5550482   8.6180401
  24.1161003  66.9528885  83.3346634  24.1679001  67.9069290  83.3925476
  24.3709450  66.7534027  82.4338303  86.0171585  15.7851076   9.7473459
  86.5520248  15.0747061  10.1015749  85.1938858  15.3643789   9.4994669
   4.9872041  54.7222710  75.7752151   4.5206103  54.0784874  76.3081970
   4.2990870  55.2904625  75.4289780  59.8311195  64.8571320  23.8437653
  60.4228630  64.3290176  24.3796425  59.0002327  64.3823853  23.8655796
  61.2732811  19.4846058  46.6357880  62.1572876  19.1286373  46.5460777
  61.4027252  20.4294662  46.7177277  48.8833847  11.4661398  48.2113304
  48.0117111  11.0712843  48.2337723  49.4749451  10.7548046  48.4568787
  36.6328506  59.9290771  31.9895592  37.1983833  59.9473000  31.2174988
  36.5222092  58.9982834  32.1834908  22.4921036  39.2901421  68.2713089
  22.3370609  39.6908035  69.1266861  23.2470512  39.7616768  67.9192581
  46.9925842  13.9555235  71.4448318  46.9244080  14.0323048  72.3965073
  47.0687180  14.8585110  71.1365356   7.5721097  54.0139923  36.2893906
   6.6987219  54.3455200  36.0807877   7.4136720  53.2733536  36.8746986
  34.4286690   1.6856395   1.7675027  35.1169472   2.0196652   2.3427708
  33.6124001   1.9383788   2.1988461   9.4952917  43.2647781  86.7766266
  10.0794725  42.5239410  86.6150055   9.7062683  43.8915672  86.0846329
  46.7703705  64.3842163  56.3022728  46.8849983  65.2288895  55.8668098
  46.1558266  63.9082298  55.7437019  55.3408699  21.0864124  13.5760202
  55.1063499  22.0123978  13.6375351  55.1839561  20.8599834  12.6593199
  57.9525108  59.4105721  10.4237013  57.3184090  58.7133942  10.2561150
  58.6355820  59.2760544   9.7667742   8.6145010  46.6434784  25.3955593
   9.0043917  47.2162819  24.7351665   9.2637377  45.9524345  25.5266342
  82.7127457  54.6421585  81.5657730  82.1469193  55.0488548  82.2220383
  82.3894348  54.9777908  80.7296829  39.3147926  55.1798172  88.6339340
  39.8661194  54.9118805  87.8987579  39.9130821  55.2192535  89.3800735
  21.3216743  41.0334969  33.5915031  22.2516861  40.9168320  33.7856674
  20.9879150  41.5540314  34.3221741  14.4901476  27.8400383  21.1438255
  15.3765726  27.7950439  21.5022354  14.4098291  28.7354698  20.8152180
  20.6309528  49.4954605  51.1421089  21.3764935  49.7077980  50.5805855
  20.8724575  49.8407097  52.0015945  18.5660400  27.2282829   3.8367779
  19.3899860  27.5973873   3.5188074  18.0987549  26.9667797   3.0433722
  76.1149826  54.9215469   4.8291130  75.9178391  54.0572624   4.4680362
  75.5434418  54.9979897   5.5931320  67.6117020   8.9674683  35.7151222
  67.4741821   9.9025002  35.5633430  68.5461960   8.8909874  35.9077568
   6.1871052   5.3221059   2.1632230   6.4487729   5.5321951   1.2667722
   5.7870264   4.4549046   2.0989509  12.2431736   8.7485561  25.6647644
  12.7627182   9.5491171  25.7383041  12.8388357   8.0505800  25.9372501
  82.0371170  63.4054337  46.4227524  81.8542023  63.7550430  45.5506592
  81.7010727  62.5095291  46.3969650  70.2126617  49.2978973  14.0757866
  69.4839630  48.7093620  14.2729168  70.8986359  48.7239075  13.7348976
  13.5537472  30.8119640  17.1624603  14.3033838  30.5555305  16.6253204
  13.4922438  31.7606087  17.0505543  72.2424698  32.9193230   5.5286827
  71.5204239  32.3133850   5.6951509  72.9538574  32.6029625   6.0855298
  69.4156799   2.8879235  78.2632980  69.5969315   3.6833766  78.7639313
  68.5130997   2.6631567  78.4892578  56.3068657  28.7018490  76.5000153
  56.1929131  28.5073376  75.5697403  55.4231720  28.6539059  76.8647308
   3.4684169  39.7170219  33.3964233   3.0861750  38.9223595  33.7687607
   3.4524994  40.3496666  34.1145706  43.4710464  53.3164062  83.5467377
  43.5508003  54.1222992  83.0364380  42.5408363  53.0952988  83.5014343
  11.4528856  41.4858284  39.6539268  12.0206280  40.8233795  39.2601509
  10.7428150  41.5989418  39.0220718  30.8669300  44.9911652  30.9561882
  30.4293861  45.4970322  30.2714367  31.2396164  45.6513443  31.5405693
   8.0065145  42.1772728  11.9795465   7.5933142  41.7448807  11.2321959
   8.2797270  43.0302086  11.6417761  24.6910000  28.6871357  12.7644405
  24.5290756  29.2706928  12.0231762  25.6416931  28.5766888  12.7791004
  33.3454971  59.9189644  20.1178360  33.5836868  60.6212502  20.7230568
  32.4322128  59.7224655  20.3264751  30.2420750   7.3950400  22.6779671
  29.5452480   7.1919932  23.3020172  29.9054527   8.1374884  22.1762829
  84.2459793  32.1780090  85.0644531  84.9945526  32.6728249  85.3976593
  83.5584946  32.8336525  84.9472656  56.0311584  60.9398651  58.7732048
  56.1834602  59.9958458  58.7300453  55.1092300  61.0228424  59.0169067
  17.5404053  35.2825050  75.9631195  17.8196678  34.9484138  75.1106949
  16.7346458  35.7652512  75.7788925  33.2920494  67.7640305  73.0058670
  32.8302994  68.2851486  73.6627197  33.4022751  66.9058151  73.4151917
  36.4034119  35.2089615  13.3367739  36.4606438  34.5237350  12.6708755
  35.7550125  35.8234711  12.9929867  36.0906067  50.0919228  25.4629955
  36.6564026  50.6403008  24.9195004  35.2015839  50.3347359  25.2043133
  52.2153587   1.8006083  83.5696487  51.3690872   1.3989010  83.7663269
  52.6853790   1.7893600  84.4034271  27.4980640  62.4907570  69.7857208
  26.7623901  62.9870796  70.1444397  27.3896160  62.5539360  68.8367844
  68.2462692  62.5472336  59.1595116  68.4294434  62.9414253  60.0123253
  67.6857758  63.1843376  58.7165909  53.9722710  29.0370636   7.0581160
  53.2602577  29.2014713   6.4398575  53.6710854  28.2916107   7.5775571
  48.6216393   7.2183371  58.5346870  48.4989090   7.0551591  57.5995178
  47.8214340   6.8874173  58.9426041   4.3719783  47.8548050  36.3093872
   4.3790612  47.9470367  35.3566666   4.4715190  48.7485619  36.6372871
  46.0927811  19.0631676  87.5615921  46.2491531  18.8020916  86.6540527
  45.1716881  19.3228912  87.5807800   1.8593900  61.0542946  35.3225670
   2.1355476  60.1414452  35.2408676   1.0587548  61.1099205  34.8009148
  14.5173531  40.1810913   8.6518106  13.9905758  40.7121773   8.0545788
  15.4224033  40.3608475   8.3972483  30.1358223  46.1173935  68.3048630
  29.6652393  46.2610130  67.4837875  30.8909798  46.7033653  68.2537689
   4.2010536  42.6066360  83.5960159   4.4894409  41.7486076  83.9072266
   3.2688918  42.6385612  83.8111572   5.7628870  44.8882713  82.1652374
   5.6898088  43.9787560  81.8759689   5.3493247  44.8990364  83.0284195
  76.6274185  39.3058319  58.8127403  75.8473434  39.5078659  58.2961235
  77.2324295  40.0230217  58.6234360  81.7778091  37.3577423  25.5164127
  81.1128464  37.6489449  26.1403103  82.6049042  37.6662712  25.8864861
  79.3019791  38.8077812  84.5241089  79.7062607  39.6675606  84.6406097
  80.0008469  38.2611961  84.1648483  83.1372147  43.3418655  34.8193054
  83.7252731  44.0895882  34.9257774  83.7069244  42.5764122  34.8951111
  49.5510979  60.0777168  78.4061279  50.2086830  59.4002113  78.2486649
  49.8455734  60.8234482  77.8832474  24.8998833  36.6164093  10.1217346
  24.9406071  37.3556824  10.7284040  24.3723793  35.9608688  10.5780668
  33.2172279  33.3088684  73.6151657  33.7768173  32.6108627  73.9555664
  33.7339668  34.1066551  73.7280807  39.6148300  52.8316994  71.3232803
  39.3021545  52.6525574  72.2100525  39.4715385  52.0128212  70.8487930
  69.4071655  17.1689701  46.0114021  70.1264496  16.8720837  46.5688210
  69.1355972  16.3854828  45.5332451  45.8585205  50.0082626  86.2809143
  46.1227150  49.1854706  86.6925507  44.9910927  50.1894341  86.6428223
  29.8891430  70.9488525  60.6664772  29.2444344  71.5744400  60.3359909
  29.4755974  70.5645599  61.4394798  38.0082588  33.5464973  17.8292885
  38.5786400  34.2674141  17.5625038  37.5056763  33.8980675  18.5641613
  30.2056446  67.6450119  67.8935852  30.4351463  68.2358398  68.6108627
  30.8309574  67.8558502  67.2002182  83.7101440  33.8355675  52.6626778
  83.7193375  34.3649864  53.4600868  83.3248138  34.4081688  51.9994431
  23.4966431  17.6967525   8.1659765  23.5454330  17.0877209   7.4291387
  24.1220760  17.3521194   8.8033886  13.7151299  49.4510117  33.6093750
  13.0038214  50.0509300  33.8338127  13.7280712  48.8162193  34.3256874
  48.5953445  59.2390671  86.3063202  48.7554817  60.1110611  86.6671677
  49.4654427  58.8470802  86.2320938  70.1781540  43.3856697  65.5921860
  70.9632797  43.0785522  65.1388779  70.4587326  43.5114708  66.4986572
  53.0705719  11.6265516  48.7003670  53.9838676  11.9125767  48.6826935
  52.5655670  12.4392271  48.7279892  42.9578400  12.5999098  60.1882477
  43.1257629  11.6594191  60.1289940  42.8647652  12.7679768  61.1259727
  49.9130554  64.6143646  47.3870201  50.3025055  64.9899216  46.5973892
  49.4074974  63.8652153  47.0717087  24.7980900  54.0082207  38.2878647
  25.7064610  54.3098793  38.2976799  24.8616142  53.0549965  38.3475380
  36.8234329  55.7833099  43.0678291  35.8921242  55.8270988  43.2845764
  36.9312973  54.9309845  42.6457634  55.2550583  27.0643921  37.4258537
  54.3160477  27.0307598  37.6085014  55.6306152  26.3759232  37.9746666
  31.7133465  45.6641846   8.1557255  30.9972515  45.0346260   8.0714912
  32.2319031  45.5449753   7.3600364  72.6924286  48.1257973  85.2972717
  72.6519852  47.3020210  85.7830582  73.5959930  48.1757927  84.9853363
  49.3980560  49.5022163  60.6020393  49.2057152  48.5714874  60.7159615
  49.4213829  49.8527069  61.4924583  42.4278526  33.5070457   4.7044911
  41.8460808  33.9673157   4.0995703  43.0620270  33.0667953   4.1386027
  19.1491833  39.8583298  68.6951523  19.3435650  39.6115150  69.5993195
  19.9999237  39.8503075  68.2565079  61.8404579   6.0248637  53.0199776
  62.7412186   6.3433342  53.0785751  61.5346680   6.3272223  52.1648140
  14.3812895  33.2402611   3.6869807  14.5736866  33.6248131   2.8318002
  15.2402287  33.1021767   4.0862160  30.6129761  35.1115189  20.3304234
  30.6924572  35.9620895  20.7622223  30.3598328  34.5101089  21.0307503
  72.9752121  24.3582916  56.1815300  73.8276138  23.9358101  56.0759544
  73.1825104  25.2784157  56.3447189  38.9525566  24.9310684  73.2001114
  39.6597633  25.4193840  73.6215820  39.1792984  24.9358482  72.2701645
  79.1231613  55.6467552  55.7472305  78.6514130  55.8009415  56.5657082
  80.0239639  55.9090691  55.9369125  64.3215485  67.9724960  35.2157593
  63.7406693  68.5312500  34.6994171  64.9990921  68.5659637  35.5397415
  65.9997940  50.0681992  63.7342453  66.1959686  50.7317734  64.3956223
  66.7983246  49.5434799  63.6772118  61.0057526  13.8445559  86.1912384
  61.7713776  14.4003334  86.3366928  60.3149300  14.4525976  85.9280243
  69.2423553  32.3644409   0.7966453  69.6127396  32.1091919   1.6415675
  68.4186859  31.8800831   0.7400477  30.2313175  66.5143661  85.5658340
  30.6234684  65.6825943  85.8315430  29.7514763  66.8108215  86.3392029
   9.8285408  69.4824066  71.9333649   9.5855036  69.9398346  72.7383041
   9.1901255  69.7814178  71.2858734  14.0730114  24.7103424  52.8051147
  14.0783491  24.3973923  51.9005356  13.6093731  24.0287457  53.2916298
  58.6319504  32.6475410  49.2229538  58.7607460  31.8573780  48.6982803
  57.6818924  32.7582359  49.2599831  53.3690262  33.4412346  62.9727058
  53.1075554  32.5915108  62.6179810  52.6391106  33.7009811  63.5348320
  73.2838287  40.9190216  74.3692245  72.9610519  40.0873909  74.7162628
  74.2227478  40.7790604  74.2464905  18.9748669  48.2589912  11.0839052
  18.4746933  47.5440521  10.6903057  19.3875294  47.8672104  11.8536129
  15.8498039  64.1313248  73.3232040  15.5771799  64.8596649  73.8812637
  15.1155767  64.0016632  72.7229309  68.1150818   3.9080846  27.1575680
  68.9620743   3.9031816  26.7116852  67.8335648   2.9932797  27.1470318
  51.2233124  61.4266968  38.7382507  51.3254356  60.8636017  39.5055351
  51.9022713  62.0938911  38.8387337   6.8704433  14.6525097  82.6017838
   6.7556329  15.5810490  82.8039322   7.1485405  14.2598438  83.4292526
  15.1188698  55.7419548  14.0350733  15.3447905  55.4869957  14.9296055
  15.6540232  56.5170403  13.8645401   5.2564421  46.6956253  62.9637146
   5.5641589  47.6011124  62.9232445   4.3566484  46.7625008  63.2832947
  48.2428169  29.7433968  47.9934616  47.5429306  30.3190823  47.6852798
  48.6670189  30.2367210  48.6955414  36.9653244  56.4227219  17.8928032
  36.7534065  55.6833687  18.4626102  37.6620407  56.0948792  17.3241768
  33.8483543  15.6552515  14.5652943  33.6979752  14.8558245  14.0607815
  33.0358086  16.1528187  14.4734907  64.6845779  48.2653542  12.5658512
  64.7207031  48.2061119  13.5205326  65.5123901  48.6782951  12.3200054
  59.1324959  32.6808281  43.2363892  59.1305923  33.6375046  43.2048378
  60.0555840  32.4461632  43.3316422  16.3539200  42.4154930  54.5824623
  17.0629139  42.2467194  53.9619179  15.5591221  42.3948135  54.0494537
  35.4378433  35.0584450  22.0006409  34.6411324  34.6062431  22.2781258
  35.6691055  34.6469841  21.1679039   4.7604551  63.3853378  84.7767258
   3.9027038  63.7533150  84.9890671   4.8802776  63.5781975  83.8468475
  18.6941929   8.7490139  80.2600327  19.6292210   8.9198418  80.3730545
  18.4224472   9.3521109  79.5681839  43.7413712  29.9712334  17.2947121
  43.0950012  29.2716141  17.3894405  43.2277527  30.7398129  17.0462875
  63.4266205  64.0057678  88.9532928  63.4970932  64.3348541  88.0572052
  64.2477722  63.5367355  89.1014633  44.4953804  61.1287231  20.5341663
  45.0685349  61.8933334  20.5898151  43.6097221  61.4907036  20.5626221
  39.7621384  47.9070358  39.1393967  40.5615120  48.0768509  38.6410027
  39.8509102  48.4460297  39.9254227  83.3388901  55.6162109  42.9017105
  82.4619141  55.5847397  43.2840271  83.5241089  54.7108040  42.6523819
  17.7742043   6.8214960  27.8175468  18.5827236   6.3247743  27.9432278
  17.0805492   6.1628203  27.8525085  63.9236565  65.0458069  52.8348732
  63.7720261  65.9852448  52.9382401  63.2765121  64.6342850  53.4076653
  19.6352272  54.5042152  80.8157425  20.4276066  54.8201752  81.2499542
  19.9468651  54.1287804  79.9922409  84.5732574  27.7779598  22.1247368
  84.6053009  26.8409481  21.9318275  84.6346588  28.2010479  21.2683163
  65.5598755  43.7843819  63.2537346  64.8405151  43.2412186  63.5758057
  65.9050522  44.2135353  64.0366211  22.1221638  14.0497675  34.3686829
  22.8563442  14.6471310  34.2259674  21.6097488  14.1030178  33.5619431
  68.7823792  30.3883209  40.9805183  68.4439163  30.3073311  41.8722115
  68.7280197  31.3243427  40.7877960   9.4084635  61.0659065  18.8638306
   8.9439192  61.3643188  18.0819225   9.0176020  61.5662003  19.5801868
  60.1868935  35.2923126  25.6575508  59.4298401  35.8689117  25.5544300
  60.4459877  35.0747490  24.7621365  40.1404572  64.2636490  17.0733624
  39.8115387  65.1478348  17.2354088  40.4716187  63.9718857  17.9227352
  67.8654861  53.2374840  61.7314110  67.4315186  53.6559639  62.4748993
  67.2417374  52.5764694  61.4310265  51.3586388  21.5004597  13.1122437
  51.1634750  20.6973896  13.5951757  51.7896500  21.2000294  12.3121157
  20.9006329  29.3279724   1.7986042  21.2595196  29.9996376   2.3785148
  21.0803471  28.5023289   2.2483256  73.6045151  69.7437744  27.7003536
  74.2160645  69.1605148  28.1498547  73.5623245  70.5214615  28.2568150
  73.1021042  65.0365295  21.3512650  73.7590408  64.4163818  21.0348988
  73.4488602  65.3468018  22.1877613   2.6517460  36.4096718  27.0772781
   2.9772840  35.7369270  27.6753349   3.4338408  36.7284050  26.6267586
  76.3814545  11.1051292  66.5397873  76.5420761  10.2909508  67.0167999
  76.5832520  11.7961483  67.1706543  19.2061443  37.2677002  16.2907715
  19.2256145  37.6211319  15.4014235  19.2030487  36.3180199  16.1710815
  57.8082161  67.9226074  35.3513680  58.1438522  68.0861511  36.2327499
  57.0346336  68.4820633  35.2820282  85.5776291  32.8069992  41.3539925
  86.1229248  33.1657372  40.6538506  85.1437988  32.0519142  40.9566689
  11.1141844  32.5960388  67.6596222  10.8692446  32.2277908  66.8107224
  10.8968611  31.9094887  68.2902222  60.1705475   2.7370667  29.4614468
  61.0965805   2.8270020  29.6863995  59.9314270   3.5851705  29.0875835
  85.6019135   4.4393816  54.7009430  85.0860214   4.8025255  55.4208107
  85.1593781   4.7472777  53.9099998  84.1929626  59.1170998  44.2289963
  83.8630447  59.1290207  43.3305283  83.7670364  58.3597374  44.6305161
   1.2574537  21.3986015  68.4767532   0.3984840  21.8126087  68.3930740
   1.8612533  22.1269722  68.6221313  48.0252380  33.5267143  43.1241646
  47.1197510  33.3627739  42.8606339  48.4530411  33.8420258  42.3280487
  64.2900696  56.5156021  69.2970886  64.4872894  55.8029633  69.9049377
  64.8084564  57.2538490  69.6172485  80.0556183  25.8361073  66.6980743
  79.3709183  26.4759960  66.5032349  80.4791412  25.6743183  65.8550491
  76.2083817  71.7890167  13.7833176  75.9280243  70.9260864  13.4783688
  76.8199844  72.0929871  13.1126642  32.1545029  36.9475365  75.2398071
  31.5411453  37.6226845  75.5299759  32.7302284  36.8078690  75.9916458
  26.6755619  48.3984909  27.1494102  26.8620472  48.1725121  28.0606670
  25.7490616  48.6389542  27.1470585   8.6106310  46.7557182  30.0612316
   8.0201044  46.7408867  29.3080444   9.4483671  47.0491753  29.7030239
  61.1108055  28.8338127  10.7885427  61.5752716  29.2645550  11.5061522
  60.9791336  29.5248966  10.1394672  77.1898422  10.2919788  29.4431362
  77.6255035   9.5246229  29.8140793  77.7135544  10.5162497  28.6739426
   4.0943012  56.2064171  81.3949890   4.6093721  56.9059715  81.7969284
   3.9647503  55.5700455  82.0981827  50.9540634   1.5699173  40.5371666
  50.6718903   2.0722368  39.7727814  51.1806221   2.2330301  41.1892281
  30.5314217  47.9940033  10.7398081  30.5600204  48.1509438  11.6836214
  31.3478622  48.3691521  10.4097795  77.8332672  34.8845787  72.8630676
  78.7430191  34.9936905  72.5861511  77.8919907  34.4400253  73.7087402
  68.2022324  52.7502098   9.2743845  67.6470490  53.3721924   8.8041258
  67.8845978  51.8901520   8.9993572  85.0228806  47.4303284  56.0445099
  85.4686279  46.6801147  55.6511688  84.0980377  47.2943916  55.8385735
  18.1332340  35.3792953  10.4556246  18.1385231  34.8958130  11.2817307
  17.7644005  36.2335014  10.6803942  48.1776085  11.2954597  83.3410645
  47.9729805  11.3014421  82.4060135  48.7264099  12.0688572  83.4710999
  47.6507339   0.1444944  69.3061066  46.8045235   0.5531768  69.1240463
  48.1356583   0.8068836  69.7983627  81.2519455   3.4697623  76.7802200
  80.9218521   2.6081815  77.0350647  80.9754562   4.0512781  77.4884796
  26.6480541  21.8057594  19.1643486  27.5527134  22.1154366  19.2082233
  26.1795425  22.4998035  18.7006321  42.8819313  44.6440315  13.3854733
  42.2338104  44.0440331  13.7544861  43.3216400  44.1331711  12.7058353
  46.3811607  24.0897942  42.8772583  46.5822029  23.9829388  41.9475288
  47.0022469  24.7512627  43.1821251  12.0291605  27.3308754  10.9647665
  12.3318691  27.2401237  10.0612383  11.7670012  26.4462280  11.2195301
  80.1221313  52.9352608  52.7469444  79.4461441  52.3020096  52.5055542
  80.2079163  52.8439865  53.6959152  46.8333549   7.7742219  54.5700569
  46.1286621   7.3572969  55.0658493  46.5838966   8.6974516  54.5294456
  38.6372375  71.6485214   6.2457728  38.8549614  70.7856598   5.8932152
  38.0279350  72.0209198   5.6083527  75.2166595  46.8773575  37.0129166
  75.4026108  46.5531425  36.1317024  75.1852493  47.8291473  36.9162712
  80.3144913  43.6968918   4.1171732  80.5609894  42.9035683   3.6416626
  81.1479416  44.0864182   4.3814812  86.8237000  40.8737640  79.7880020
  87.0978012  41.7907295  79.7713470  86.1459045  40.8386040  80.4629745
  66.8874130  40.4332008  70.1039581  67.7500153  40.8181763  70.2586823
  66.6764908  39.9818001  70.9212570  64.9356842  22.9274960  38.8608398
  64.8433228  23.2679176  37.9710007  65.7453613  23.3217144  39.1852570
  58.6392555  13.9224510  60.6930199  59.4296455  13.5188541  60.3343735
  58.3139763  13.2869110  61.3306046   5.4759665   5.8769474  86.5969009
   5.9614511   5.0676489  86.4369888   5.0775952   6.0880980  85.7525406
   6.1125278  47.5010796  82.4461594   6.7765203  47.6779823  81.7797852
   6.1524105  46.5539093  82.5784988  10.2881451   7.9854002  16.0491676
   9.7540321   8.7786655  16.0081139   9.6631708   7.2696214  15.9338398
  54.3091393  56.5547256  11.8654528  53.7238617  55.9859505  11.3652744
  54.9800110  55.9649544  12.2094526   4.1725407  21.5902710  82.8875885
   4.4882097  20.7183495  83.1249542   3.9779823  21.5281963  81.9524307
  35.8240318  49.3052597   8.3384151  35.9748192  48.7328606   7.5861812
  35.4588737  50.1055527   7.9610233  74.9408340  11.9794025  70.9062500
  74.9584503  11.7023497  69.9901962  74.6545105  12.8922396  70.8749313
  26.3140602  14.5735168  71.8345718  26.0117188  14.1763620  72.6513290
  25.6900902  14.2698860  71.1752548  14.9168386  13.6049786  55.5560455
  14.3426018  12.8755646  55.7893677  15.4236517  13.2819824  54.8110313
  72.9380264  46.5064468  58.5437431  73.6432037  46.8820839  58.0166245
  72.6758270  47.2142944  59.1323280  50.3716431  28.2686806  48.0766373
  49.5870171  28.7785625  47.8751144  51.0159760  28.5546455  47.4291077
   0.5935785  19.0003605  11.2381296   0.6519492  19.1565857  10.2955704
  -0.2357566  19.4023685  11.4966345  41.8891449  45.1341820  65.4926376
  42.1297302  45.9587555  65.0702209  40.9755592  44.9949379  65.2432327
  17.6695042  27.2669430  68.8767624  17.6398487  26.4502239  69.3750839
  18.3331299  27.7946301  69.3210373  50.0618591   1.9972061  88.8242493
  49.1053391   1.9642600  88.8390808  50.3235016   1.7601849  89.7139664
  48.8922234  26.3837013  13.1447344  49.7102280  26.7341194  13.4973068
  49.0418663  25.4401550  13.0850821  60.3198814  44.6095085  86.7038727
  60.3395729  45.0792809  87.5376358  59.3884048  44.4986839  86.5133438
  17.9801636  25.4784451   1.5734198  18.3818951  24.6103935   1.6098601
  18.3765144  25.8938313   0.8075264  35.2434158  62.2066879  76.1626358
  34.5336838  62.7981110  76.4131012  35.7757759  62.7165108  75.5519791
  26.5976467  53.0455742   0.7702870  26.9786415  52.8159370  -0.0772636
  25.7921829  52.5306358   0.8182270  55.6468430  38.9066277  34.2651253
  55.0340958  39.5103111  34.6850510  55.0898170  38.2338562  33.8735466
  69.0179520  13.9486504  18.6900558  69.2572098  14.0479670  19.6115341
  68.6294403  13.0754995  18.6362419   4.6649556  18.8443661  86.0472107
   5.4979920  19.2683392  86.2534409   4.8216653  17.9148369  86.2134857
  15.6399908  23.3867779   6.2329664  15.6921644  24.1592426   6.7958221
  14.9255476  22.8684292   6.6032586  61.2618179   2.4641242  51.2254219
  62.1032486   2.6897254  51.6220741  60.9742393   1.6846770  51.7008095
  67.4570160  56.8140259  75.2760849  66.6894073  57.0015221  75.8163223
  67.0968170  56.4620857  74.4620667  58.6145668  53.8296165  87.4665375
  58.6886482  53.9887314  88.4075089  59.5142555  53.8796654  87.1436005
  50.6816444  45.2262459  53.9535370  49.8664780  45.4821663  53.5219803
  51.2013054  46.0296783  53.9796333  64.5315933  61.7467957  73.8925705
  63.7147293  62.0050468  74.3195038  64.2800217  61.5578270  72.9885559
  61.5264549  56.9465523  28.2140503  61.4337234  57.3420181  27.3473091
  61.4731750  57.6847382  28.8210697  59.9730606  42.6940193  39.5694580
  60.3510284  41.9819717  40.0855560  60.5744476  42.8010674  38.8325005
  54.4818115  17.6475716   6.2666521  54.5203705  18.4505272   5.7470274
  53.7128792  17.1841412   5.9346771   0.3568563  47.7204285  52.3850937
   1.2104595  48.1223755  52.2237549  -0.2737179  48.4190636  52.2104149
   6.8207383  65.6190643  55.5732460   6.6354375  65.5707550  56.5110970
   7.7424521  65.3720016  55.4981804  56.7832260  41.7495117  86.1146927
  56.2348099  41.5314980  85.3610687  57.6553726  41.4363747  85.8748245
  57.1140900  50.9230042  13.3380632  57.7874260  50.2433510  13.3077049
  57.3731689  51.4843483  14.0688171  47.0253372  38.0746422  66.1569595
  47.7382393  38.2851830  66.7600174  46.5992393  38.9147911  65.9871902
   7.9579854  36.6385384   6.8205795   7.5724850  36.1494179   7.5474782
   8.4977484  37.3075752   7.2416253  60.3982239   9.3673134  66.4098663
  61.0651436   8.7190809  66.1835022  60.8335037   9.9522476  67.0300369
   5.6440368  69.0968781  12.8257427   4.8501158  68.7303696  12.4363947
   5.3601422  69.4352493  13.6749430  28.9936104  32.0676727   0.6911110
  28.7496948  31.1724720   0.4558307  28.9058628  32.5618896  -0.1239224
  48.7419777  10.0250216  58.4000816  49.5571136  10.2848120  58.8293800
  48.7771759   9.0687256  58.3779144  11.2797527  44.8089256  57.9693871
  10.9451361  43.9167404  57.8784561  11.8182058  44.9434280  57.1895103
   4.3538127  36.8983269  68.7199936   4.8118448  36.8316154  67.8821411
   4.1322217  35.9945831  68.9444427  48.4758987  29.7397308  87.4304733
  47.5528946  29.4924240  87.4864731  48.9472885  28.9893761  87.7924042
  61.6572227  22.6044102  58.4521790  61.2527657  22.2662125  57.6532593
  61.3884239  21.9901066  59.1352692  47.5043144  23.5900612  28.3316746
  48.3934937  23.2477779  28.2398243  47.1016273  23.4434471  27.4757652
  83.4993668  39.1070099  31.6830368  82.6962051  39.4316368  32.0901947
  83.6140747  39.6567726  30.9078999  17.5115051  57.9516106  72.5653458
  17.9873085  57.2227478  72.1670990  18.0220490  58.7269363  72.3320084
   2.9708593  48.7967110  69.7863464   3.0013518  48.5284882  70.7046890
   2.2120314  49.3775787  69.7315521  65.7321930  48.1119461   8.8097839
  66.3386765  47.7059479   9.4291153  64.8667526  47.9673958   9.1923428
  69.6094131  38.2919044  35.7279854  70.0931015  37.9874954  34.9601212
  70.1205444  37.9767990  36.4734344  57.4914169  46.2862587  27.1379738
  57.7368660  46.9350700  27.7975426  57.8074989  46.6528244  26.3121681
  43.0446968  15.3747845  66.1094666  42.5378685  15.4118118  65.2983017
  42.4705505  15.7647600  66.7686386  78.0612946  71.5627594  27.4305687
  77.5811920  70.8109818  27.0833321  77.7805176  72.2984085  26.8863182
  26.6211433  21.3534737   0.6907994  26.6245060  20.7271729  -0.0330563
  26.9892426  20.8681335   1.4291620  71.4938965  26.4906635  49.2240715
  70.8428955  26.7013893  49.8934174  71.0716400  25.8257198  48.6802139
  11.4619551  54.2844353  43.9324760  11.6837416  54.0859833  43.0227203
  12.0966644  53.7866249  44.4478035  14.2950058  47.9399757  56.3925858
  13.6810122  47.9496536  55.6583176  14.5333843  47.0184250  56.4933434
   9.5988245   5.9987650  30.1985607  10.0928726   5.1789317  30.1939011
   8.8407068   5.8183908  30.7544003  17.2798481  49.2683449  69.0308456
  17.9172134  49.7569885  68.5100555  17.8095379  48.6707115  69.5585709
  24.5029011  45.5138016  46.4998131  24.4728813  45.1569519  47.3875008
  24.8753281  46.3891563  46.6060371  35.8184853  36.5375061  34.5849724
  36.3433037  37.2076721  35.0227852  36.2626686  36.3934288  33.7494087
  68.3473511  50.6754837   3.1322203  68.1866760  50.0947533   3.8759744
  67.7432785  50.3704033   2.4552712  45.7733765  28.7177849  76.5417633
  45.7252731  28.0074711  75.9019394  45.1097450  29.3446941  76.2539902
  39.6396027  10.2668715   1.1841646  39.5112991  10.8939257   1.8959036
  39.1561356   9.4884119   1.4607323  71.0921249  45.1326675  73.9341660
  70.3885040  45.4988594  73.3983917  71.0711365  45.6469879  74.7411728
  16.5794563  25.9925346   7.2035179  17.2427235  26.6198368   6.9157662
  16.8503895  25.7462921   8.0879335  17.2520695  20.4082241  74.6729279
  17.8319359  19.7622395  74.2695770  17.8017635  20.8542595  75.3172302
  48.2909317  27.8799000  59.3727226  47.4095802  28.1065769  59.6694870
  48.8347626  27.9566402  60.1566811  19.8134632  69.9020004  15.9953651
  19.7362366  69.2218018  16.6643944  19.3439522  69.5490036  15.2395992
  30.5654640  50.5667610  52.4380226  29.9961586  50.9031868  51.7459641
  30.5784531  49.6198997  52.2983208  35.7077446  55.2667694   3.5035243
  34.8819122  54.8246269   3.3066952  36.1680717  55.2988243   2.6648934
   4.1982961  30.2234497  87.6685486   3.9998214  31.0999603  87.9980469
   3.3416622  29.8328800  87.4957352  14.4404726  48.8358116   2.8591292
  14.2197351  48.0824356   2.3114662  14.9179821  48.4618835   3.5996656
  14.6179771  68.0187912  77.9825592  14.1887846  67.4958115  77.3054123
  15.3332548  68.4615173  77.5258255  36.4360199  16.7393856  15.6812344
  36.4027214  16.3047047  16.5333939  35.7034264  16.3645096  15.1923513
  64.5661392  42.9920349  33.6182404  64.9289017  43.4422340  32.8553810
  65.0133438  43.3889847  34.3656845  13.2178812  14.9885139   8.7302666
  12.8480310  15.8643246   8.6189213  13.5865183  14.7734890   7.8734689
  20.3415165  12.7574167   6.6525807  21.1307449  12.2846956   6.3882270
  20.5548611  13.6793060   6.5082359  61.0406380  49.1441269  64.5311508
  61.6530380  48.6834755  63.9575691  60.9046097  49.9907227  64.1057053
  32.4996376  30.1338654  12.7073650  31.7954750  29.4915504  12.7957802
  32.1220703  30.9499035  13.0356293   5.9493599  42.1235313  59.2937088
   5.1540222  41.7330780  58.9314766   6.0894227  41.6595955  60.1191673
  54.3625069  61.5059242  16.9688396  54.3145943  60.6769295  17.4449787
  54.0509644  61.2949600  16.0886879  48.0259705  61.0863800   2.2730181
  47.4930534  61.5873146   1.6555260  47.4660683  60.9812622   3.0422339
  86.1015701  65.1776962  73.4198074  86.9615173  64.7616653  73.4801559
  86.1861877  65.9786911  73.9369812   2.4206803  62.8850212  60.8930435
   1.6155959  62.3749886  60.8039513   2.1224639  63.7908173  60.9757042
  49.5436745  22.9295959  22.5515842  49.2445068  23.8003178  22.8134499
  49.2147827  22.3473282  23.2364388  19.5162010  58.3710785  28.9526768
  18.9124546  57.6719131  28.7019100  20.3256378  57.9164200  29.1857605
  58.1303978  31.0661564   2.1311643  58.6541977  30.2663212   2.0850186
  57.2515755  30.7924175   1.8685390  12.2708292  55.3353691  84.6207428
  11.6950855  55.9769745  84.2046967  12.1900597  55.5132065  85.5578079
   7.7593727  70.9020920  12.5900097   7.8268809  70.4676514  13.4402637
   6.8212495  71.0498886  12.4703741  67.1584473  16.0824661  85.6029129
  66.8958893  16.9994068  85.6836243  67.6848831  15.9143820  86.3844757
  60.5883675  45.5487251   0.5509617  60.6021767  45.4116402   1.4981940
  61.4157410  45.1785469   0.2432971   4.9103680  12.4902649  30.3877392
   5.8191509  12.7882318  30.4272404   4.4764652  12.9488459  31.1072273
  25.8368473  33.2443542  72.7116318  26.7276917  33.4561081  72.9905396
  25.7199001  33.7295265  71.8948288  59.1865425  46.8332176  76.4964371
  58.3077812  46.5536156  76.2398529  59.7059860  46.7549095  75.6962662
  75.8684082   9.7823076  23.6679306  75.2222672   9.5118217  23.0155716
  75.4594116  10.5215120  24.1179657  43.7012978  50.0979691  77.3906021
  43.8874779  49.4791794  78.0967712  42.7486763  50.1911392  77.3987503
  78.1843185  56.6494980  71.3501740  77.9902344  57.5862045  71.3840179
  77.3917389  56.2536163  70.9877853  26.5034161  19.8335037  33.6887321
  26.8626213  20.6799355  33.9547348  26.4542351  19.8835220  32.7341042
  66.9927139  20.6744385  23.5791779  67.8899994  20.6053905  23.9052811
  66.6588974  19.7776985  23.6047821  60.8493385  65.2292404   3.3120463
  60.5471115  65.9112091   2.7122121  60.1444397  65.1454697   3.9541790
  57.2479553  63.9100304  83.2376785  56.4994583  63.3153763  83.2864151
  57.3067436  64.2932892  84.1128311  47.3698158  46.7255707  49.7351074
  46.6706314  47.3778687  49.6917305  48.1291504  47.2096024  50.0596962
  41.8011513  48.2563896  54.7002869  41.6483307  48.6493568  53.8409538
  42.7542114  48.2114525  54.7770386  57.0777245  47.4770088  67.0185852
  57.7885590  48.0978851  66.8590317  56.9680328  47.0191650  66.1851730
  41.7126732   2.1964638  35.2398796  41.8650589   2.0936241  34.3004990
  40.8180809   2.5312088  35.3021660  81.6471176  57.7709465  14.1245203
  80.9796295  58.2013092  14.6588287  81.4752045  58.0771370  13.2340574
  56.8199692  60.2414436  68.1859741  55.9534798  60.4684944  68.5234299
  56.7497520  60.3696938  67.2400131  32.4530869  45.6794548  19.4348278
  31.8031998  45.1573372  18.9644356  32.2309341  46.5860634  19.2228279
  44.2421188  27.1050816  25.5359116  43.8274536  27.9411850  25.7485504
  45.1403236  27.3364868  25.2994480  46.0107613  45.8061790  13.7553883
  45.1424141  45.4395256  13.9220257  45.8404922  46.7009544  13.4610882
  62.8346252  22.3563499  44.2417717  63.6750374  21.9967289  43.9578552
  62.8882980  23.2878799  44.0282249   4.2444234  34.9388428  58.6444702
   5.1783404  35.0925636  58.5016365   4.0948772  34.0518608  58.3171616
   5.7349095  63.5744057  33.3368340   6.5644107  63.9733734  33.5994759
   5.2621841  64.2766953  32.8901215  66.2455826   7.3755465  14.7702160
  65.9286652   7.6397514  13.9065065  66.5152283   6.4640093  14.6578770
  77.5276566   0.8641319   7.3713446  77.7437286  -0.0377449   7.1343551
  76.7118912   1.0455439   6.9046035  45.3316574   2.4210927  33.9454842
  44.5056114   1.9559233  33.8131905  45.4512711   2.9296403  33.1434250
  47.4542885  54.8827286  48.3869362  47.8104744  54.1046181  48.8157845
  48.1989441  55.2601624  47.9186783  48.2165833  28.0046635  36.6375694
  47.4403801  27.8517475  36.0987206  48.7039528  27.1819592  36.5944519
  25.5334454   0.4767442   7.7443233  25.5512943  -0.4508620   7.9798222
  24.6728935   0.7806285   8.0330076  85.8509369   2.1523476  81.2583542
  86.7883453   2.2577395  81.0959015  85.4319077   2.4731483  80.4597702
  64.0284348   5.8295870  21.3290844  63.1112976   5.7939954  21.6007881
  64.3341751   6.6854749  21.6294365   5.8546777  50.6292534   8.6139145
   6.2919574  49.7822304   8.7009220   6.3002677  51.1947517   9.2447004
  51.6682281  43.3987350  48.5167542  52.5469894  43.1472054  48.2325974
  51.3967361  42.6954002  49.1065369  53.1342468  30.1248932  88.5481491
  53.7595215  29.4800301  88.2173691  53.2227173  30.0778942  89.5000916
  34.5399742  42.6496124  43.2094536  33.7138710  42.4430237  42.7722931
  34.7586594  41.8549309  43.6961670  37.7482033  46.1865807  87.6840591
  38.2795563  46.9825401  87.7025757  38.1343765  45.6251183  88.3562698
  80.3760605  68.1041718  59.6825027  79.9877014  68.8591766  60.1245232
  79.6553040  67.4802170  59.5963402  69.6280899  11.4914742  40.0095978
  69.7545853  10.7441177  39.4250565  69.6102142  12.2508154  39.4270935
  54.7187386  33.2903061  82.0464478  54.4289551  33.4749870  82.9398422
  55.2157097  34.0672874  81.7904129  23.4537849  23.5869465  15.5418262
  22.6735268  23.1883163  15.9272108  23.1153278  24.1572018  14.8515463
  80.0241013  38.2929153  27.4578686  79.7100296  39.1968575  27.4360638
  80.1023865  38.0889702  28.3898067  27.9024734  13.1267042  10.1574383
  28.7695656  13.2637358  10.5390205  28.0147247  13.3294868   9.2287235
  71.2476959  19.9373055  55.7221832  71.2521057  20.8890667  55.8239861
  71.5796814  19.6056519  56.5564651  71.3945007  25.3246994  21.9789066
  70.9900513  26.1132832  21.6172600  71.5779572  24.7777672  21.2150745
  71.6131897  23.2265148  27.4938602  71.7373657  23.4566002  26.5730591
  72.3437500  23.6478367  27.9466324  54.6432838  63.9637642  44.1764717
  54.9423256  64.2034225  45.0536079  53.9662209  64.6080780  43.9698792
  56.4547348  26.2313290  42.7607460  57.1338692  26.8536453  42.5004883
  55.8924484  26.7258968  43.3569603   8.4960318  51.7376976  15.7020187
   8.1007776  52.5872612  15.8975954   7.9910669  51.4035759  14.9606657
  42.7497292  24.0764446   2.6686006  43.4008598  24.3428211   3.3176785
  42.8771133  23.1323833   2.5750387  72.4213257  39.3381500  40.4314880
  72.8567123  38.8006859  41.0931587  72.4940720  38.8294449  39.6239243
  65.5563507  46.3540611  49.0755501  65.2564621  46.4179459  48.1687851
  64.8935471  46.8249016  49.5807571  10.2489777  65.9536667  84.8121643
  10.8426971  65.3860855  85.3036728   9.6913242  65.3496552  84.3218384
  34.4256363   3.3306339  37.8480263  35.1729965   3.7861104  37.4604340
  34.5186920   2.4244554  37.5540657  34.7339211  55.9897652  89.3800888
  33.8630180  55.6727486  89.6193771  34.9006653  55.6053047  88.5195007
  84.5148773  19.6221237  11.4621859  83.7588043  19.6287212  12.0491571
  84.3941727  20.3927994  10.9074612  60.2218475  63.5287552  68.3235168
  60.2319069  62.9607925  69.0939407  59.4142151  63.2964783  67.8652496
  20.7135544  57.0246162  10.3387413  21.6072407  56.7739029  10.1048565
  20.7725334  57.9576530  10.5441561  45.4259300  71.2107925  86.6913376
  46.2728386  71.4493713  87.0682449  45.2887039  71.8465195  85.9890137
  80.3042450  52.9248085  17.2995319  80.5070724  52.2247200  17.9199886
  80.8456421  52.7309723  16.5343227  63.0300255   1.3985280  33.5228577
  63.1489296   2.3235760  33.7382164  63.4518661   1.2950519  32.6698761
  28.4960556  47.6850815  25.2475719  27.8989067  47.5143814  24.5192146
  27.9265461  47.9683723  25.9628601   0.7012107  43.7511368   4.2548151
   0.2120989  42.9935646   3.9337418   1.3913673  43.3762741   4.8019843
  65.4242935  54.5399284  34.7975273  64.9301758  55.0294800  34.1399422
  64.9328918  53.7261658  34.9095840   3.2098298  68.2131958  11.8415117
   2.5870776  67.6007233  12.2330303   2.7613177  69.0584869  11.8648787
  14.3183346  58.9705696  79.7429276  14.5546455  58.1413498  80.1585999
  14.8520603  59.0011330  78.9489288  69.0225220   6.5627451   6.8544192
  68.9095230   5.7990427   6.2885380  68.3462219   6.4662056   7.5248923
  46.1465607   7.2002430  78.3908539  46.0298843   6.9946141  79.3183975
  47.0913239   7.3144455  78.2878418  82.7736359  70.7133331  68.5144348
  82.5462646  69.7945023  68.6568909  81.9339218  71.1726227  68.5272217
  20.2808647  12.1196470  51.6981888  20.8887730  11.3804369  51.7139244
  19.4254131  11.7301369  51.8790627   1.4348093  43.1040268  82.2768936
   2.0535562  43.7264709  82.6589203   0.8506715  42.8730774  82.9991684
  77.0872879  42.1055756  52.5396347  77.7204971  42.5142365  53.1297798
  77.3520050  42.3952103  51.6665535  23.5293579  27.2229099   1.2383285
  23.3452206  28.0340405   0.7646279  22.8097954  27.1425610   1.8644319
  20.9882965  66.5387421  62.7269745  21.8184280  66.5725174  63.2023392
  20.6003284  67.4035034  62.8607521  45.1109810  19.3022575  71.1203156
  44.7696457  18.5461750  71.5978699  45.4712448  18.9334450  70.3138275
  70.2612686  41.3059998  40.1459160  69.8199081  41.0844688  40.9658890
  71.0824280  40.8150406  40.1756783  55.0316353  32.0315208  37.2414932
  55.6791191  31.3665371  37.4755630  54.6037750  31.6842003  36.4588470
  66.5766144  57.2342148  18.5177956  66.4402847  57.0852699  19.4534569
  65.7080154  57.1292763  18.1295090  34.4673729  37.9907494  68.2482300
  34.4766350  38.8737297  67.8787842  34.3834152  38.1268539  69.1919708
   4.2943792  36.0700226  16.6253376   3.6199384  36.7491837  16.6355343
   4.8800611  36.3247757  15.9123793  38.8677711  31.3932667  88.3500977
  39.2917061  31.3513680  89.2072754  39.5623512  31.6705379  87.7526779
  14.8270178  18.7154484   0.9556468  15.1458015  17.8353310   0.7556406
  15.4400644  19.2994499   0.5091629  57.9581833  58.7222595  46.1106262
  57.2215462  58.1199875  46.2148705  57.8090668  59.1383476  45.2615852
  86.8274918  25.0221405   2.5589559  86.3767929  24.1974277   2.3774312
  87.2292786  25.2642117   1.7245672  63.6215324  38.5210381  69.4135513
  64.2674789  38.5839043  70.1171341  63.9752502  39.0702095  68.7138901
  25.2782116  48.7589111  43.6148682  24.4526691  48.2965736  43.4701080
  25.6113548  48.9354095  42.7350388  52.1075211  50.2005119  55.3539925
  52.5048523  51.0288467  55.0852470  51.1720467  50.3930740  55.4175301
  52.2529755  53.5760765  17.0874119  51.6880989  53.9792709  16.4281826
  51.9487877  52.6701241  17.1417408   3.9079711  59.8326836  59.9413223
   3.0633612  59.6652756  60.3594627   3.7030451  59.9083214  59.0093803
  54.1271591  67.4426804  66.6280746  54.5485802  68.2318420  66.2876816
  54.3947105  66.7491684  66.0250015  80.1966782  57.3170166  85.3116531
  79.5183792  56.7874680  85.7308350  80.0921326  58.1876564  85.6954269
  51.1225586  32.6366310  82.7871170  51.3197708  32.8332901  81.8713303
  51.8667984  32.1138229  83.0854568  36.5839119   3.2611916   4.0472431
  36.8896866   4.1166101   3.7455940  36.7913933   3.2485013   4.9815998
  83.5187454  36.5954170  45.9286003  84.4169388  36.8600807  45.7300262
  83.1204758  37.3735123  46.3187027  47.0514679  55.4201431  79.5177536
  47.1427650  54.8865662  78.7283325  46.4222298  56.0997505  79.2760544
  64.5960464  51.1123390  24.7563992  64.5411606  51.8786850  24.1854897
  65.2053375  50.5243073  24.3100662  44.3625946   7.6747451   4.5086684
  44.8392982   8.4381971   4.8344359  43.7637024   8.0289030   3.8512981
  68.4556122   5.7211094  75.3794098  68.7588959   4.8813334  75.7244110
  69.2539062   6.2382073  75.2718124  17.5221767  55.0460434  55.0717621
  16.7114887  55.0937195  55.5784607  17.2944469  55.4184837  54.2199059
  21.9282646  45.6349831  62.9663506  21.0989895  45.4124336  62.5432625
  22.5096531  44.9052620  62.7525177   8.9910107  32.4514580   2.9399307
   8.6196804  32.4315376   3.8219450   9.8974190  32.1661873   3.0551596
  52.5734177  22.5650082  29.0449123  52.4853058  21.7925854  29.6033306
  51.7355461  23.0197258  29.1311321  54.7192879   7.0979481  38.4022179
  55.6506615   6.8772712  38.4110794  54.2733841   6.2527070  38.3477249
  37.2731171  71.3146973  71.3323135  36.9605141  71.9053040  70.6469727
  36.5927200  70.6448288  71.3999176  56.4557991  16.1241455  34.4820175
  56.1214752  16.3905735  33.6255875  55.8302002  16.4895401  35.1075974
  74.7927475  26.6642075  79.6820831  74.0605164  26.0897026  79.9057236
  75.5089417  26.3693905  80.2445526  55.8926964  20.5286388  87.0704727
  56.3904228  21.1699715  87.5776138  56.5597153  19.9838047  86.6527710
   7.9956932  37.0409813  24.9456749   7.7989326  36.1767235  24.5843239
   8.6056280  37.4295692  24.3186092  39.8055305  13.7315454  48.4322624
  39.8012428  13.1658230  47.6601410  40.5430336  13.4173260  48.9553146
  51.2361031  37.9235764  60.7558136  50.5356979  38.4982643  60.4469490
  50.8344307  37.4128838  61.4587250  59.0513954  57.9731369  88.9084778
  59.0956154  58.2569504  87.9953918  59.7299156  57.3022003  88.9838715
  58.3065681  28.1054249  34.9848328  58.1953354  28.2194099  35.9286880
  58.8016739  27.2907581  34.8986664  48.7219810  46.5417061  80.6265411
  47.7805786  46.5588493  80.7988815  48.8665733  45.7137718  80.1684418
  15.0624056  46.5802422  74.7935181  14.4389057  47.0856094  75.3151398
  14.5590191  46.2910728  74.0324631  17.4578362  29.8779774  13.1582193
  17.0684185  29.0096188  13.2608843  17.0739136  30.2186432  12.3502703
  61.6856194  66.0810623  43.7540932  61.4766998  66.4801102  44.5986900
  62.6350899  66.1725464  43.6742859  53.5780106  20.0204716  73.3814392
  54.2991638  19.4072380  73.2396164  53.9517899  20.8794098  73.1846008
  80.8359146  33.2812195  77.9660492  81.2642899  33.1429138  78.8107986
  80.4115143  32.4452477  77.7729950  77.2242737  32.1989326  12.8614779
  77.8536835  32.0095139  12.1656389  76.3955917  32.3388557  12.4032879
   3.2799325   3.4799602  38.1403275   2.3308842   3.5250807  38.2565308
   3.5645456   2.8032932  38.7546158  22.6586246  11.4934578  81.3588486
  23.3838177  11.1359100  81.8711853  22.5850449  12.4023829  81.6498337
  47.1239395  37.5027008  39.2759781  48.0463066  37.3504028  39.0703659
  46.7305489  36.6300812  39.2726097  79.5835342  58.5910416   7.4885807
  79.3936462  59.5014992   7.2622080  79.0044556  58.0782623   6.9246993
  49.8787727  29.2359924  39.0366364  49.4846001  29.8232517  39.6816063
  49.1663170  29.0331993  38.4304047  50.1845207  53.4499893   0.5617193
  49.4220657  53.5953293   1.1218708  50.0236244  53.9955826  -0.2081326
  84.4161606  38.2852821  55.2367134  84.9487000  38.4450417  54.4575424
  83.9720078  37.4565277  55.0574608  86.2036362   1.0118470  37.6697159
  85.7036209   1.3331232  36.9193878  85.5432129   0.6491295  38.2600594
  33.2751465   6.0890594  83.9774551  34.2153130   5.9828649  84.1225128
  32.8687592   5.4506693  84.5635757  36.8560219  63.9689140  74.9118881
  36.7390976  64.0584412  73.9660873  37.0834122  64.8497772  75.2095566
  86.9406586  12.6811428  13.3992605  86.1858521  12.1461554  13.6447964
  87.4119644  12.8216143  14.2204609  64.5408020  53.4892693  22.7147388
  65.1411896  53.7077866  22.0019817  64.7454605  54.1223640  23.4028797
  71.4451523   7.1950860  12.1109219  71.0341568   6.5351162  11.5525723
  71.4069138   8.0014381  11.5965614  46.0519600  33.3719063  16.6172581
  46.2997589  33.6477623  17.4997158  45.1409035  33.6509895  16.5260506
  76.9143219  38.7936401  45.4059258  77.0016403  39.7283936  45.2192688
  76.5514374  38.4217491  44.6020355  25.2694054   7.2926912  77.4048691
  25.7877941   7.9020543  76.8793335  25.5271378   7.4763055  78.3082428
  64.4103012  26.7001534  80.5128403  64.1454849  27.3105373  79.8246994
  63.6048737  26.5229454  80.9987640  64.4694366  69.7914429  60.7685165
  64.8477020  69.7488708  59.8902588  64.0670395  70.6587524  60.8142014
  24.2924786  21.7627220  74.4248047  23.4286880  21.3548088  74.3639297
  24.1182957  22.6444759  74.7540436  72.2159805   9.1808567  32.1304359
  72.9650726   9.1888361  31.5345993  72.1074677  10.0954866  32.3910332
  70.4572601   6.6034074  19.9015865  69.8330765   6.3971748  19.2058220
  71.1745911   7.0525446  19.4544315  46.3308601   7.7584023  14.0623970
  46.4733582   7.7752171  15.0087814  46.2200012   6.8309174  13.8533192
  48.7867813   1.9168962  16.4855957  48.2567940   2.0019305  17.2781334
  48.3001785   1.3017501  15.9369211  28.2529106  70.1050873   8.7490215
  27.3045788  69.9922943   8.6843863  28.4516468  69.9387131   9.6704626
  17.8442097  48.7120056  84.1195831  17.3937855  48.3460999  83.3583603
  17.8783607  49.6531143  83.9481812   2.0593536  49.5519905  79.7425842
   2.7553062  50.0966530  79.3748627   2.5193422  48.9016304  80.2733154
  85.2273560  29.9625874  80.7243423  85.5619278  30.3287678  79.9056778
  85.2469788  30.6951847  81.3400879  58.7248917  12.4707088  18.5873375
  57.8141937  12.2411604  18.7721825  59.0642662  12.7948389  19.4216022
   8.3845882  61.2788239  67.8549118   8.5809231  60.3465309  67.7626343
   7.6960497  61.4434967  67.2106857  71.6394119  36.2692413  70.9958115
  71.0671005  35.6492386  71.4477997  71.3453293  36.2466240  70.0851898
   8.1006355  14.5116510  77.6130905   7.7374864  14.7056580  76.7489624
   7.9632802  13.5709829  77.7249374   0.2473172  39.2525787  40.6259193
   1.1829453  39.3902435  40.4780006   0.1650424  38.3113556  40.7794228
  29.8381138  19.2902794  88.6534042  30.1084538  19.1345158  89.5583267
  29.1077290  18.6873932  88.5144806  83.6211777  17.3197365  58.8636780
  82.7116852  17.5216522  58.6439400  83.5743942  16.4895115  59.3377762
  41.7295723  58.2456169  28.0636196  41.4891090  57.9381828  28.9376297
  41.1215706  58.9633865  27.8865070  65.1983109  21.9139709  57.7920685
  65.1457748  21.9751492  58.7458649  66.1343536  21.8345242  57.6083641
   6.6854062  27.8190346  85.9145584   6.2873640  28.4957867  86.4621048
   6.9567676  27.1400757  86.5323029  41.5725327  45.0227051  88.3162003
  41.6941185  44.1323967  87.9863510  40.6538773  45.0559044  88.5830231
  70.9166565  40.5507736  54.1403542  71.2139893  40.0052681  54.8685341
  71.2143326  41.4324722  54.3644753  81.9545670  52.7510376  14.9645309
  81.7744980  53.5905724  14.5414619  82.8096848  52.8697052  15.3779650
  36.8405418  57.6372490  21.7647419  36.0125961  57.1812935  21.6136093
  37.4758453  56.9369926  21.9139462  10.7983847  64.7012558  48.7399101
  10.3553228  64.9160461  49.5607567  10.0941448  64.4281464  48.1519547
  60.4528770  65.1772614  79.4726028  60.3206825  66.1234131  79.5322037
  61.3136177  65.0808868  79.0650864  57.0147285  33.2527809  11.3017206
  57.6162834  32.7776604  11.8749762  56.1986427  33.3026199  11.7994690
  61.3020821  37.1022873  62.8343811  61.7548218  37.9456367  62.8387909
  61.7205963  36.6094627  62.1285477   4.5626760  67.8829956  63.7597389
   5.0042520  67.5738831  64.5507507   4.7475786  67.2106857  63.1039619
  30.2484035   8.4638767  84.6085129  30.0619373   7.7077694  85.1650696
  30.0295753   8.1701050  83.7241745  10.3227377  39.7428284   5.7957029
  10.5410461  40.5653305   5.3574519   9.3763170  39.6549988   5.6825442
  37.4938545  28.3198605  42.9099159  36.7519875  28.8433208  42.6068382
  37.2406807  28.0306435  43.7865486  26.8814068  44.8749886  31.1467800
  26.7616405  44.5757675  30.2454720  26.0155659  45.1836929  31.4137115
  65.4430771  55.3939743  37.7428017  64.7466202  55.9732780  37.4336433
  65.3668594  54.6135902  37.1937828  39.5486641  39.3367767   3.0649929
  40.0003357  38.9832230   3.8312981  39.0414581  38.5997581   2.7247295
   8.9193773  12.1713953  26.7068405   8.4432545  12.9923954  26.5823479
   9.1333408  12.1576920  27.6397209  55.6266441  49.4953918  28.4407215
  55.0472908  49.2632675  29.1664639  55.4702301  50.4289627  28.2985573
  37.6990623  59.0068092  63.1717300  38.0616798  58.2901802  62.6509781
  38.0299301  59.8001633  62.7506027   7.5222406  39.9897499  78.8361206
   7.8056011  40.8227501  78.4592209   8.3362913  39.5406685  79.0638885
  22.9742603  35.6852074  88.4863052  23.8184719  35.3367882  88.1996918
  22.6018143  36.0866127  87.7012024  54.9032860  52.1250763  49.9873314
  54.4593887  52.3519936  49.1702042  55.1214294  52.9686279  50.3836517
  10.2429857  36.9217033  66.3124313   9.7327127  37.7313843  66.2960281
  10.1978979  36.6285858  67.2225342  32.1597328  54.5201988  88.9010849
  32.4200668  54.5436821  87.9802704  31.2028313  54.5310860  88.8797989
  52.0974236  66.5421448  47.3733177  51.9500275  66.3470612  46.4478722
  52.1278152  65.6843719  47.7970238  81.0818481  62.3934669  37.9753075
  81.0244141  62.2291870  38.9165535  80.8651276  63.3209648  37.8803902
  83.8377304  16.0355186  47.6191406  84.4390106  16.6789684  47.9941940
  83.3061142  16.5365334  47.0005951  58.5810356  25.4941082  38.0274620
  57.6797333  25.4263496  38.3425674  58.8951378  26.3277626  38.3775940
  71.6894836  16.7926445  20.4212952  71.9136200  17.0431881  21.3175220
  72.4807358  16.9784050  19.9156761  60.1428986  29.3210297  73.4466171
  59.2269211  29.5199432  73.2525635  60.2998123  28.4773502  73.0225754
  53.3457527  55.7261009  47.7796860  53.6459198  54.9788055  47.2623062
  52.7139091  55.3533821  48.3945770   2.9067173  54.9509506   9.6892700
   3.1553524  55.7184982  10.2043266   2.0499957  54.6986694  10.0336752
  50.7554054   9.5207977  55.5756798  50.4012871   9.4458599  54.6895561
  50.1747131   8.9810963  56.1121025  49.5185471  38.3754311  85.1644211
  48.7026787  38.1780472  85.6244583  49.2599907  38.9756393  84.4650421
  80.0772934   9.4889040   7.9260087  80.6002655   9.8244495   8.6541157
  80.2569504  10.0915546   7.2043662  50.6268272  12.5998220  29.9864273
  50.6422501  13.1464186  30.7720661  51.5031166  12.2170296  29.9437351
  26.3831825  51.7317696  67.1117249  26.7658424  50.8643188  66.9800644
  27.0758438  52.3405571  66.8551559  58.3284683   3.7082479  81.9093399
  57.8287125   3.1709573  81.2946930  57.7386627   4.4283977  82.1323776
  12.7620468   8.0893173  14.6835394  11.8977413   8.0103807  15.0872421
  12.9773951   7.1999164  14.4027853  51.4649811  33.4964409  76.2532349
  50.8425980  34.1311188  76.6082840  50.9788284  32.6722527  76.2286301
  75.7636414  64.3639145  35.4610405  75.8149490  63.5240059  35.9172745
  75.7953262  64.1343384  34.5323219  68.0052872  54.2428207  49.5119591
  68.2391205  53.3258247  49.6557426  67.7877121  54.5739784  50.3832932
  78.4666443  19.1968021   4.6634245  77.5800400  18.9539146   4.3966494
  78.4552460  20.1535759   4.6895781  78.5914307  16.3340778  13.3137903
  79.4121246  16.7044868  13.6385918  78.2662582  16.9828911  12.6896629
  62.1610641  60.2517166  37.8228607  61.7309799  61.1047134  37.7623634
  61.7833748  59.7416954  37.1062965  72.3150177  56.5595627  18.2132950
  73.2479401  56.3866920  18.3397999  72.2665634  57.0054474  17.3676777
   6.6087999  53.1861992  10.0953102   7.1961493  53.0978432  10.8459406
   6.5220666  54.1310539   9.9689722  77.5358200  25.1808567  15.3004847
  76.7054214  25.3416958  15.7486019  77.3405151  24.4799557  14.6785307
  63.7112923  41.1462250  71.7272339  64.6400070  40.9427757  71.8382874
  63.6112061  42.0210762  72.1025391  59.1661224  35.0089989  88.4298477
  59.9398918  35.5409126  88.6157837  58.4714966  35.4043159  88.9565887
  21.6424828  60.6533623  73.0734177  21.4066048  61.3354759  72.4446793
  22.3644981  61.0303726  73.5761948  57.1875420  42.7522430  13.1813011
  56.7634354  42.3744926  12.4108019  57.3270264  43.6709595  12.9516582
   1.7579094  34.7882042   0.9152836   2.2289517  35.2462502   0.2191920
   1.0177113  34.3743134   0.4713983  23.2060966  59.7035980  77.0270386
  23.5249424  59.3627815  77.8627548  24.0000858  59.8961029  76.5282898
  50.0464668  61.4665413  50.9087944  50.5932465  60.6809120  50.9017563
  50.3568001  61.9675903  51.6630325  15.6978893   3.2772114  83.5309753
  16.5137100   3.7066593  83.7883530  15.9221611   2.3480718  83.4796524
   7.3160610  47.1520500  18.0713844   6.9201880  46.4147301  18.5360069
   8.2393408  47.1255417  18.3225479  20.7659473  58.2249870  89.4166336
  21.5642262  58.5630569  89.0108109  20.1203632  58.2228966  88.7099152
  71.0575867  12.7740574   9.6870403  70.2790451  12.4214411   9.2560377
  71.2665710  12.1327057  10.3661766  41.6192474  69.0869141  84.1773148
  42.5684280  69.1643448  84.0809097  41.2632294  69.7395020  83.5743103
  23.1637306  62.5399704  47.3264465  22.9795933  63.1145515  48.0695343
  23.6920471  61.8324394  47.6959267   2.5596230  45.1825066   9.7912426
   2.5776689  45.8664856   9.1218576   2.6917586  45.6506386  10.6156368
  83.7887650  33.7426796  57.2648163  83.1994019  33.2056923  56.7351646
  83.9387360  33.2248726  58.0557709  46.8421364  55.3328018  39.3385963
  47.1922760  54.4783440  39.0865288  47.5926132  55.8005714  39.7049408
  23.5461445   2.9125214   0.7496800  23.9362068   3.4256485   1.4573408
  23.3721752   2.0569215   1.1420003  41.9890099  18.9560680   6.8536706
  41.4927368  19.4139233   6.1752057  41.7932625  18.0301876   6.7099457
  70.3674164  32.1426163  21.5235844  70.2663803  32.7459946  22.2597618
  69.4739914  31.8733959  21.3101978  35.8141441  39.5323219  33.2909241
  35.0310478  38.9824448  33.3159409  36.4352570  39.0910645  33.8703575
  77.4496231  49.8893814  66.8506088  77.7907486  50.7469521  67.1044540
  77.7809219  49.2918205  67.5209732  20.4060936  40.7041817  83.4910507
  20.0032501  39.8639107  83.2721939  19.8795776  41.0405693  84.2162094
  23.7760715  61.9849434  82.7561264  24.4735203  62.1487083  83.3909302
  23.0518684  62.5387535  83.0477676   4.9699492  27.3249493  74.2217484
   5.7564855  27.8511734  74.0779419   5.1390052  26.8606319  75.0415421
  48.6108513  45.7052498  56.7178268  49.2321510  44.9810333  56.6421585
  49.1535301  46.4923248  56.6704407  57.4961205  35.0323219  46.3226051
  57.7479210  35.2011375  47.2305336  57.4447861  34.0784416  46.2616920
  75.7897644  70.0483856   4.7546544  76.4572144  69.3689957   4.8504210
  76.0703659  70.5539856   3.9918582  39.9460030  40.5378571  37.6130562
  39.2490044  40.3392715  38.2383499  40.6363754  39.9064598  37.8154335
  31.8592472  67.5820694  33.1989822  31.1135006  68.1772614  33.1225548
  32.5676003  68.1281891  33.5398979  30.3799534  49.5960007  63.7913284
  29.7676983  49.3335304  63.1039543  30.8724499  50.3222313  63.4088783
  56.2456589   1.1591169  28.6455555  55.3770447   1.4055389  28.3277264
  56.8522720   1.6297330  28.0739155  56.5073853  67.0206528  69.4991608
  57.1707649  66.7028122  68.8866806  56.9511795  67.0341263  70.3471603
  -0.2492810  36.5081062  83.3522339   0.1637427  35.7507477  82.9374466
   0.1590046  36.5601730  84.2164230  71.0040283  58.6923027  20.2313290
  70.2074814  58.4352417  20.6957321  70.8846054  58.3522186  19.3445854
  58.2336121  69.6350021  60.9994164  58.1227417  68.6844406  61.0189209
  59.0702705  69.7694626  60.5542755  -0.1367656  70.5308838  59.8905411
  -0.2235125  70.6798096  58.9489822   0.7833969  70.7158203  60.0785065
  61.9627457  39.8665390  86.9862061  62.4437370  40.6510620  87.2496490
  61.5892258  39.5298233  87.8006668  85.1402664  65.0691147  34.8239899
  84.3790131  64.7049026  35.2757454  85.0985641  64.6944275  33.9441566
  33.6086807  42.0325546  80.6406784  32.6660118  42.1833992  80.5709763
  33.6838646  41.1482124  80.9991760  50.1235237  68.3771286   2.6547720
  50.4848747  68.9939880   3.2912807  50.7379608  67.6431732   2.6570714
   6.1937332  61.3316841  61.1324272   5.3395100  61.0340652  60.8194466
   6.7591367  60.5634880  61.0522614  79.8622208   4.5258775  79.1987152
  80.2694702   4.2110057  80.0057068  79.3046646   3.8019719  78.9135437
   0.8596814  50.6539421  52.8043518   0.4746941  50.3103981  53.6105728
   1.4483105  51.3495216  53.0974655  38.2682686  68.7873459  83.6453476
  37.3509712  68.5907974  83.8355179  38.2461395  69.6435699  83.2180023
   1.7927351  19.0866699  82.9382248   2.7300637  19.0403194  82.7498169
   1.3744955  18.6980228  82.1699448   1.7120500  32.3721085  69.9554901
   1.8559124  32.7839966  70.8074799   2.3809073  32.7554626  69.3881302
  59.8433952  37.8877373  10.3503428  59.6068459  36.9617386  10.2973890
  59.1762505  38.2732697  10.9182463   5.6310749  34.4918251  44.7570648
   5.5314984  35.2586250  44.1928558   6.4073009  34.0450783  44.4192467
  32.2420273   2.4649401  83.0685806  32.3566360   3.1252789  83.7519913
  32.1811295   2.9684646  82.2567978  62.5464478  17.0208588  19.5223351
  63.2101936  17.5326385  19.9846668  61.7238083  17.4749432  19.7048302
  57.4280815  36.2326164  61.0098038  57.5829048  35.2905884  61.0793991
  56.4793053  36.3128014  60.9116783  16.8029079  71.0336456  69.7827682
  17.6194515  71.0749207  69.2849884  16.1615715  70.6868744  69.1625519
  70.3772354  55.4067459  41.5543823  71.3066406  55.5187569  41.3546295
  70.0261154  54.9309998  40.8016472  12.1754951  46.7828789  84.9761887
  13.0003538  46.8979721  85.4479828  11.6222849  47.5016251  85.2821198
  56.4974937  50.9806709  63.1822281  56.8183327  51.8823204  63.2002106
  55.8583641  50.9680367  62.4697800  55.3445969  66.6208038  81.2008362
  55.6680374  66.1982574  80.4051819  54.6067505  66.0774536  81.4775925
  54.8027573  56.9473381   1.8141115  54.8993111  57.8914604   1.9387857
  55.4699516  56.7218819   1.1658461  61.5254517  27.3514576  28.3177357
  60.7421532  26.8085918  28.4070072  62.2318230  26.8133087  28.6750450
  11.3216476  50.8452797  82.9162445  10.4638567  50.4907761  82.6822510
  11.1460743  51.4304199  83.6531448   2.2030573  13.1072445  76.4875259
   1.9398963  12.6826067  75.6710358   1.4060749  13.1220970  77.0174637
  45.6754684  31.9072800  81.9565048  44.8960228  31.9112911  81.4009094
  45.6115723  31.0913506  82.4528961  32.4675179  56.1852379  17.5786514
  32.3483009  55.9392052  16.6613255  32.3829613  55.3623581  18.0602646
   9.2993240  62.6634827  72.9847870   8.4870234  62.6951103  72.4794159
   9.9029503  62.1618958  72.4368134  76.2208252  32.6159286  59.1935425
  76.6550446  33.4542122  59.0355530  75.4913330  32.8299294  59.7751617
  85.9391785  41.7961311  15.1077366  85.4563065  42.6020660  14.9246016
  86.5153122  42.0227394  15.8377705  72.6002731  60.1983528  57.9897385
  71.9672318  60.0724945  57.2828789  72.2933197  60.9795494  58.4498863
  58.0945435  65.3116684  50.2909126  58.4205284  65.2075500  49.3969727
  57.7994652  66.2212372  50.3338280  33.8179741  38.9662285  70.8891830
  33.7938080  38.1025085  71.3010559  33.5231171  39.5664787  71.5740128
  61.8715782  62.7655869  43.2616272  62.4886818  62.2645302  42.7283707
  61.9905357  63.6719093  42.9776192  73.0186005  18.0078011  82.2845078
  73.0559540  18.9398556  82.4992447  72.3017120  17.9357433  81.6543427
  36.5886803  13.6865635  83.0852737  35.7528534  13.8625450  83.5173187
  36.5939865  12.7388535  82.9509277  19.9405651  33.2414284  24.3792095
  20.1006165  33.1366844  25.3171024  19.5720501  34.1209106  24.2958775
  83.3820343  57.3614349  65.2089386  83.4620438  58.2578735  65.5348740
  83.6288223  56.8129272  65.9535675  10.1688137  50.8003006  25.0380268
   9.8677988  51.5290794  24.4953461   9.5945988  50.0720558  24.8010178
  68.3246841  10.7724152  58.0471954  67.4533005  10.9564714  57.6964188
  68.8661194  10.6157246  57.2735481  78.9874420   3.0543933  43.4779015
  78.5287781   3.0353236  44.3178406  79.0871124   3.9857039  43.2805214
  34.8670921  70.1949234   3.6356862  35.0712891  69.7992249   2.7883620
  33.9166489  70.1137924   3.7150986  10.3835821  54.7829781  71.3125687
   9.4993830  54.4229279  71.3817520  10.3079615  55.6720238  71.6591339
  41.1264610  58.4225464  81.3711777  40.6592827  59.2480927  81.2429276
  40.6310425  57.7846680  80.8574677  49.4254951  29.8604012  29.4086113
  48.8687057  29.7110519  30.1727524  49.0892677  29.2572803  28.7457180
  56.2664871  33.3908005  70.8409500  55.3237000  33.2361984  70.7819290
  56.4830894  33.2041321  71.7544403  10.5223780  57.7267952  65.3224945
  11.4590578  57.8178482  65.4973450  10.3830881  56.7826271  65.2491684
  76.0898895   7.7213602  25.2436924  76.9325638   7.9355369  25.6440125
  75.8594818   8.5012312  24.7387714  34.8262939  71.2153015  65.8225098
  34.0357819  71.7130508  66.0312500  35.0483665  70.7655029  66.6377335
  70.6638947  62.8632202  17.9111500  70.9253540  62.8697510  16.9903736
  69.9287186  62.2512856  17.9470387  68.0055923  14.1963320  78.5115814
  68.2163544  13.6571245  77.7493057  68.6891174  14.8662395  78.5274582
  59.9533272  56.3198471  34.7675552  60.0431480  55.6192551  35.4135704
  60.5124779  56.0477562  34.0398521   1.5049093  46.8374939  42.2974663
   0.6175475  46.6251984  42.0080681   2.0606375  46.1940918  41.8576584
  14.3915005  71.4037857  77.0183640  15.0385923  70.7086029  76.8990784
  13.6203594  70.9560547  77.3663788  85.9866638  62.4937363  24.8783245
  86.4011841  62.0365868  24.1466026  86.1082611  63.4223213  24.6803856
  55.2692032  11.3597326   4.7607598  55.0029106  11.9129400   4.0264010
  55.2299194  10.4678907   4.4153528  53.3387871  20.9621773  87.5781250
  54.0665665  20.3424587  87.5279236  53.6834106  21.6955528  88.0876694
  21.4378834  25.9211044   6.4157176  21.4424953  25.2743111   5.7101192
  21.2072048  25.4203224   7.1981730  62.8484955  41.8316574  56.7971992
  63.3638878  41.0850792  57.1025238  63.1633186  42.5695877  57.3192902
  26.7947483  70.0836105  43.4264717  26.7608070  70.0174561  42.4721642
  27.7056770  70.3059006  43.6189003  61.2018700  26.5931797  75.4585037
  61.0391922  26.6207047  76.4013748  62.1440315  26.4423294  75.3823166
   5.8766909  65.8622665  65.5279617   6.7742128  66.0523224  65.8010330
   5.9739604  65.2879868  64.7683716   1.9821018  16.2045116  85.2798615
   1.6704519  15.3049278  85.1805801   2.8030312  16.1214161  85.7650452
  57.8132820  33.5905724  61.7814026  58.4638634  33.3146591  62.4270363
  57.0153885  33.1244888  62.0311356  73.0567093  30.9818439  54.4354401
  73.4357605  30.7895470  55.2930984  73.7632370  30.8013077  53.8153954
  10.1853743  20.0156937   2.0988553  10.1938496  19.0692101   1.9562781
   9.4854670  20.3372574   1.5305609  12.4826889  30.0467453  13.8699837
  12.2661362  29.7112179  14.7399015  11.6896839  29.9029255  13.3535633
  24.2809563  32.1524734   0.7410963  24.0006962  32.2823372   1.6470884
  25.2364902  32.1956711   0.7774414  75.6743317  62.9297218  54.5949554
  76.2231750  63.4804039  55.1533012  76.2958755  62.3977737  54.0980186
  12.8757391  39.1443596   2.5223737  13.4590120  39.6181946   1.9294957
  12.3484154  38.5899696   1.9472094  35.2700157  57.5657692  33.2607880
  35.6978989  57.2814674  32.4531250  34.3601952  57.2854767  33.1613007
   5.0851068  49.8973274  47.9661942   5.4930749  49.8434830  47.1019630
   4.4796381  49.1563911  47.9918175  49.8952065  43.2459106   7.9795036
  50.3568840  44.0744019   8.1086931  50.5914497  42.5952034   7.8897481
  71.7515564  26.5705223  44.8129730  72.5821915  26.1970673  44.5183334
  71.0939102  25.9240360  44.5564880  61.0050888  27.0701942   3.6910179
  61.7536964  26.4738216   3.7034633  60.2479782  26.5013332   3.5516834
  81.9223633  19.7320347  80.0299911  82.8196106  19.4352970  80.1820755
  81.5932159  19.1558342  79.3401489  22.7880878  63.4698067  56.8066788
  22.4012432  63.0111008  56.0609093  23.7269955  63.2992020  56.7319984
  72.0626831  11.6825905  74.4296265  71.9856339  12.3624830  73.7602692
  72.9629822  11.7586031  74.7457199  59.5880356  41.0207863  62.6721497
  59.1037292  41.8372192  62.5491867  59.2122154  40.4201164  62.0285759
  59.0731964  60.4034004  47.6609955  58.5178604  59.8089180  47.1565933
  58.4741096  60.8272591  48.2755432  74.5363998   6.0172548  27.0268745
  75.2954636   6.3938704  26.5816650  74.5988541   6.3437529  27.9244995
  20.3660278  14.2496109  54.6758537  20.6160145  14.7446823  53.8956985
  20.5120411  13.3345671  54.4358406   6.3678350  57.3023186  70.6767044
   6.2176414  56.4182205  71.0114365   6.2409291  57.8707886  71.4362869
  67.0859833  16.5955772  59.7132912  67.3628845  17.5089188  59.6400223
  67.8995819  16.1083279  59.8432121  59.0936508  28.8350964  46.4228630
  59.2341995  27.9349556  46.1292267  58.4359779  28.7615013  47.1144409
  37.6226082  55.8318405  34.4480515  36.8153496  55.6134605  33.9823494
  37.4296951  56.6608200  34.8860092  46.4405632  54.4895058   9.3943329
  46.3143501  55.1811256  10.0439215  45.6678505  54.5450439   8.8321352
  16.9671688  18.4391441  15.5490389  16.6694489  18.6086807  14.6552534
  17.6121788  17.7378292  15.4576635  41.2067223  63.1341553  28.3121262
  40.6540642  63.8140678  28.6975079  41.9212189  63.0223007  28.9391918
  83.5554962  55.8443108  50.8809357  84.2364655  55.1873932  50.7361221
  83.2903214  56.1123734  50.0011292  46.8072739  23.6064606   4.4280357
  47.5444489  24.1919575   4.2548375  46.4132729  23.4567394   3.5686295
  87.0286026  11.9721689  83.4180832  86.4136429  11.2998209  83.7113495
  86.6201935  12.3461552  82.6373367  75.7053146  38.4007797  21.5698967
  75.1465225  38.1940308  20.8207378  75.8897629  37.5521927  21.9725285
  36.1451073  43.1043625  45.7403030  36.2299500  43.2046814  46.6884422
  35.2077675  43.2010765  45.5721512  84.4652786  19.4139042  60.2086067
  83.5814896  19.7717838  60.2927055  84.3459625  18.5894222  59.7371979
  58.6780396  57.3331528  42.3215981  59.4503593  57.6880074  42.7618675
  58.4016533  58.0288086  41.7250175  48.8805046  42.9216309  33.4321594
  48.4983330  43.4284782  32.7157211  49.6562767  43.4193306  33.6904297
  65.0711899  60.2485580   3.9477727  64.6472473  60.9349670   4.4628878
  65.1644821  59.5155525   4.5562406  59.4160957  12.3159018  54.7964401
  59.2246971  11.5063734  54.3228760  58.6677780  12.4337416  55.3815613
  17.9846344  47.9412041  47.9266090  18.0481358  48.7544250  47.4257393
  18.8494778  47.8359528  48.3230934  16.1665268  38.5420609   1.7308081
  15.6837978  39.3641624   1.8165654  17.0571651  38.7572746   2.0077155
  29.4923515  52.6054497  25.5055943  29.0875282  51.8127441  25.8576851
  29.3626957  53.2639923  26.1880455  18.3854198  32.9876900  21.3401871
  17.9128361  33.6649895  20.8562889  17.7488499  32.6583138  21.9746342
  18.1819077  50.8015366  78.0839844  17.8564510  50.0574570  77.5773697
  18.2050056  50.4847603  78.9869461  84.0300674   0.4517102  39.4927635
  83.7776566   1.2715708  39.0680847  83.3626251  -0.1764085  39.2166939
  44.6183701  27.6329155  -0.1970213  45.0967560  27.5261402   0.6251584
  44.2421494  26.7697296  -0.3690641   5.5603724  37.5107040  53.8386383
   4.6161385  37.5924263  53.9727097   5.6452312  36.9453354  53.0709190
  77.4564743  42.2304840  16.0615120  77.0379715  41.4166145  15.7809620
  77.3862610  42.2192345  17.0160675  64.0277023  11.7601233  51.4014320
  64.3480530  12.6407137  51.2060661  63.9764328  11.7303810  52.3567963
  23.3601513  27.9463520  22.5864677  23.3277302  28.8567581  22.2926254
  22.6788902  27.5062046  22.0781517  33.4857368  15.8580875  77.5907135
  33.7783661  16.7112598  77.9111786  34.1898422  15.2567463  77.8333130
  69.0022049  23.5542145  21.8976936  69.9301224  23.6339741  22.1186924
  68.6267548  23.0492077  22.6189690  64.5696182  39.6759071  29.7557049
  63.9824715  39.4276466  29.0416584  64.2374344  39.1984596  30.5159225
  45.7374077  65.6079865   2.6683483  45.6896591  65.4176865   1.7314721
  45.7505722  64.7473907   3.0871925  32.4332466  28.8269424   7.2788205
  32.5771255  28.7793655   8.2239485  32.9665146  29.5684395   6.9923944
  58.7758713  62.5680466  39.7342415  59.2484665  62.3221474  40.5294914
  59.4590263  62.8575363  39.1294861  54.0887985  62.8400230  78.2268143
  55.0006523  62.8266869  77.9359894  53.5957870  62.4884911  77.4854736
  16.2340755  14.1854038  22.8346748  16.3819084  13.7446394  21.9979515
  15.9454718  15.0657387  22.5939426  81.6513214  60.4945526   5.3163347
  82.6047592  60.4571114   5.3924208  81.4590378  61.4204941   5.1683645
  48.4955444  49.7526283  78.2509079  48.6768188  48.8503265  78.5140152
  49.1793251  49.9581909  77.6134033  16.6708221  68.0264282  29.6315708
  15.8247557  67.5788040  29.6256618  16.5247536  68.8214569  29.1189137
  56.0921059  29.3984928  39.8212395  55.4782524  28.7500343  40.1660881
  55.6114082  30.2255135  39.8558998  60.6774864  34.3664284  46.3552361
  59.7365990  34.5260353  46.4293289  61.0586205  35.2353745  46.2291451
  51.5655708  12.1519489  56.8806381  51.1596832  11.6083241  56.2053909
  50.8599701  12.3271084  57.5032768  62.7633057   0.3634349  26.2760391
  63.4588470  -0.2691718  26.0964203  62.6014862   0.7872435  25.4331665
   1.2828077  60.5143585   5.3581815   1.4426650  59.8034401   5.9788828
   0.6338097  60.1601410   4.7502646  68.9884262  17.6400967  65.8658676
  69.1979828  17.7887173  64.9437943  69.4754944  16.8493824  66.0977554
  48.2519989  54.7722511  24.6074848  48.2432785  54.4036827  23.7241306
  47.3538170  54.6651268  24.9205818  55.2573853  36.7820854  64.5074234
  55.8541451  36.1106644  64.8380432  54.4103088  36.5613518  64.8946838
  39.1187286  57.8555603  36.7051506  38.8455429  57.7013969  37.6094933
  38.2990265  57.9550018  36.2209740  22.0335121  65.2788239  67.1481323
  22.9239750  65.1184158  66.8357620  21.7942772  66.1233826  66.7663956
  43.7461891  51.4307327  68.2330322  43.7452774  52.3637543  68.0192642
  43.8051643  51.4038734  69.1880341  16.1305180  22.7840405  77.5866776
  15.3918905  22.8017635  76.9781189  16.8525810  22.4174175  77.0763474
  80.9812393  51.0608292  70.1504059  81.4035110  51.4716530  69.3959961
  81.0486679  50.1212654  69.9803925  54.8059006  32.4231071  59.7438812
  55.0741005  32.6524010  60.6336708  54.1917038  33.1132584  59.4935036
  84.4157944  49.2536125   4.2734337  85.2612686  48.8165703   4.1714582
  83.7698212  48.5617371   4.1310925  12.2227440  40.7498207  32.3487930
  11.2892065  40.8990250  32.1988640  12.4632559  40.0775146  31.7113037
  33.2881927  52.3772545   1.0836233  33.6948280  53.0921440   1.5733299
  32.8678207  52.8062248   0.3383011  38.2971268  64.2361221  62.8064117
  38.9490356  64.4428406  63.4761276  38.1524353  65.0645447  62.3492279
  16.3671970  24.8778858   9.7675505  15.4750214  24.8380432   9.4230680
  16.3691940  24.2607861  10.4992704  68.5805740   8.7757168  72.5367966
  67.7755356   9.2792683  72.6575317  69.2406693   9.4303761  72.3089066
   7.9263721  25.8308086  71.8145752   7.6953239  26.3116455  72.6093369
   8.7764025  26.1878166  71.5572357   7.1184030  41.2372017  70.0840149
   7.9973211  41.3209229  70.4537811   6.8673272  40.3315887  70.2658463
  76.8990479  64.2468643  68.2788773  77.6847916  64.2376785  67.7322998
  76.3901367  64.9897385  67.9542465   6.2721071   8.7377777  86.6245193
   5.6900411   9.4742327  86.4372635   5.8951221   8.0047808  86.1378708
  63.5117188  20.3407478  72.4650650  63.8463860  21.2314053  72.5697556
  62.5822182  20.4558220  72.2675400  42.1292610  35.5606308  73.2945862
  41.6081429  34.9859848  72.7338257  42.2136803  36.3718910  72.7936325
  83.9999466   0.8890086  51.1804581  83.8241348   1.7389638  51.5840645
  83.5562897   0.9298006  50.3332634  48.1902847  37.4565811  81.8633881
  48.4522438  36.5612793  82.0779724  47.3225670  37.3644638  81.4699326
  66.1860657  70.2655334  48.4746208  65.4518204  70.8635712  48.6141586
  66.6390762  70.6171875  47.7082329  28.1738186  54.7049637  60.6993752
  28.1799164  53.7480011  60.7197914  27.4889889  54.9267120  60.0684509
  51.8510590  27.0812988  70.0882111  52.0831833  26.4217968  70.7419739
  52.2340317  26.7560749  69.2734756  25.0251789  53.6141968  87.2341385
  24.7324562  53.8286095  86.3483734  24.4065781  54.0672989  87.8070755
  13.3981104  44.3574142  32.8814201  12.9040813  45.0036507  32.3768959
  12.7280474  43.8097572  33.2904701  19.2898006  68.8763580   6.7157106
  19.3432140  67.9484787   6.4867687  18.4927826  69.1840591   6.2840681
  15.7752256  51.3640938  63.2494392  15.3212299  51.6977921  64.0232391
  15.0867643  51.2654495  62.5917740  16.4883709  37.8362732  61.9783936
  16.7628002  38.6700478  62.3601494  16.4126873  37.2437592  62.7263412
   1.1211566  65.6738586  19.1712837   1.8335501  65.0814056  18.9310246
   0.8995754  65.4299393  20.0699711  24.4492168  55.6587524  60.6487198
  23.5540905  55.9189644  60.4312973  24.6200237  54.8995552  60.0913391
  78.4728394  10.5776606  26.7632389  77.6921844  11.0169210  26.4258156
  78.9155273  10.2432871  25.9832020  77.0307388  59.6746674  84.2896957
  77.6976852  60.3558044  84.3761215  76.8047104  59.4450264  85.1910324
  81.8153534  67.8052292   7.5826020  82.0385971  68.6890640   7.8745408
  82.5630417  67.5326691   7.0507145  25.0772095  59.7857513  46.0221062
  25.4406090  58.9010773  45.9829941  25.8027210  60.3293343  46.3293152
  78.4701614  16.7500877  85.5736542  78.7346954  16.2089043  84.8297653
  78.1949081  16.1216583  86.2411499  67.1305618  32.7433167  29.4951420
  67.3064651  32.7202034  30.4357567  66.1756058  32.7386551  29.4298763
   3.3125231  54.0919418  22.8943062   2.8204851  53.7424126  23.6372452
   3.4753444  55.0068054  23.1239681  52.6553574  15.3835411  58.2893753
  52.8009377  14.5429745  58.7235260  51.9122009  15.7677908  58.7544594
  56.3369865  62.5646248  32.9688416  55.7008171  63.2740936  32.8784332
  56.4095993  62.4269485  33.9133034  83.4736557  69.2174225  61.2826691
  83.0296936  69.2086029  60.4346962  82.8945160  68.7215271  61.8613930
  66.2341385   7.3131232  34.0040665  66.7768097   7.9565096  34.4599190
  66.4549866   6.4781489  34.4167137  84.7597198   9.5789890  37.1267853
  85.1237793  10.3273783  36.6539154  83.8558426   9.5171671  36.8178864
  48.6218262  44.6750259  25.8035736  47.7412720  44.7308159  26.1747169
  49.2029152  44.6770706  26.5642052  43.5127449  12.0565004  66.9921417
  43.3490143  11.8553286  66.0707550  43.6341705  11.2019606  67.4059601
  23.1469326  47.2765007  42.9170609  23.3104649  47.0118027  42.0118408
  23.2395344  46.4692917  43.4230919  73.4194565  52.0541840  20.1226997
  73.1012497  51.2534370  20.5395737  72.9569321  52.0883636  19.2853584
  56.0331612  46.1308136  14.5486612  55.2008705  46.0711784  14.0796528
  55.9822655  45.4454613  15.2149439  59.6606293  10.3069191  12.2676773
  58.8673820  10.5153389  12.7611885  59.4618683  10.5748615  11.3704958
  71.7461929  68.3273163  10.8589096  72.4825592  68.8997726  10.6437273
  70.9709549  68.8701630  10.7155561  29.1950722  68.5754852  33.4648209
  29.1000042  69.4778595  33.7696571  28.8697395  68.0421524  34.1900444
  42.6992073  68.7883987  72.3011703  42.3198433  67.9540558  72.5771942
  42.5867958  69.3644485  73.0573196  23.0316525  47.5731125  82.9921265
  22.2094326  47.5850983  83.4820709  22.7644176  47.4765091  82.0780792
  82.5170746  25.8156643   3.6888359  82.7849960  26.3682995   2.9546397
  83.0036621  26.1599369   4.4377975   9.0194197  60.8870811   3.6207807
   9.7843170  61.4622879   3.6033845   9.1024866  60.4028969   4.4423013
  19.0050106  35.9353714  70.8489380  19.9488239  35.8971786  70.6940460
  18.6223354  36.0222664  69.9758759  26.4740448  27.5806770  15.8980579
  27.2498589  28.1160469  15.7315569  26.8225555  26.7370262  16.1861973
  37.0072250  52.0609436   6.5690660  37.4504051  52.8558769   6.2725868
  37.3658295  51.8979874   7.4414659  61.4565811  47.5613327  61.2019424
  61.8591194  47.7625160  60.3571205  61.7718887  48.2497673  61.7874947
  12.1156359   9.0461016  86.7257767  13.0435104   8.8224354  86.6532898
  11.7864819   8.4794912  87.4235229  27.9565983  32.1799736  82.5852203
  28.2018051  33.0973015  82.7061081  27.3645535  31.9923229  83.3135757
  44.2041740  43.2144966  63.9789200  43.8827477  43.4417343  64.8514328
  43.4116745  43.0740013  63.4608078  79.5759354  47.6030502   0.2082264
  79.0010834  48.3576851   0.3358976  78.9793472  46.8720093   0.0473193
  48.3474731  13.3562021  87.6005173  48.2894897  13.4947138  86.6551666
  47.4369812  13.3228579  87.8939896  53.8806725  23.1111755  -0.0634117
  53.6054115  22.5672188   0.6745409  54.8297043  23.1869354   0.0357570
  12.4114561  54.6241722  75.9201508  11.9048233  55.3332977  75.5242996
  12.6907310  54.0866699  75.1789856  41.6459503  32.1846733  56.9144058
  42.1972008  31.6338673  56.3585548  42.1981430  32.9363289  57.1296425
  28.7947598  32.9476013  72.6794510  29.4569168  33.2813263  72.0741348
  28.7673607  33.5942039  73.3847046  59.7636833  31.5734806  66.5124817
  60.4876060  31.9151897  67.0372772  58.9927139  31.6801567  67.0696716
  25.1344681  50.1362381  62.2637787  24.2982292  49.6750031  62.1989861
  25.2359009  50.3181572  63.1980400  14.8149948   4.7597036  20.4891720
  14.0332766   4.8604398  21.0323124  14.5139151   4.2683539  19.7248707
  44.4803162  16.9308662  13.3097172  44.8208084  16.7140770  14.1776457
  43.5994797  16.5564098  13.2975931  19.9070263  19.4403992   6.8565850
  19.5263405  20.3173981   6.8098602  19.7947731  19.1789513   7.7705193
  18.3550491  69.3091583  24.3142281  19.0617943  69.6227798  24.8784847
  17.7466774  68.8742142  24.9116707  59.1664543  38.1881866  43.0048447
  60.0742111  38.4052391  43.2172089  58.6459122  38.7195473  43.6072731
  72.7246628  63.9749527  41.6030197  72.3381653  63.2443657  41.1202316
  73.5501175  64.1505585  41.1513252  30.9232445  59.5543137  55.8254166
  31.5506706  59.0637817  56.3564034  30.9698238  59.1456566  54.9610901
  51.1087570  59.4625931   8.5704222  51.1074600  60.2842178   8.0793381
  51.3724785  58.8014565   7.9304357  12.7648840  39.6944389  54.5142250
  12.1918812  39.0270920  54.8917732  13.6404648  39.4603806  54.8221283
  11.0614634  50.5346489  44.3800621  11.8486891  50.3173027  43.8807945
  10.5660696  51.1173325  43.8044777   8.6497469   8.6005621  88.3933945
   7.7882218   8.5839977  87.9765854   8.4628925   8.5594311  89.3312759
  53.0729065  46.7197533  56.8123169  52.2062187  46.6793251  57.2166061
  53.4688110  47.5129700  57.1732864  70.2681427  69.3922043  48.6244659
  70.9202499  68.7292633  48.3975449  69.4268723  68.9701614  48.4501762
  67.9070053  25.2537098  32.8072548  67.1041641  24.7445221  32.9186630
  67.8618622  25.9242592  33.4888382  17.7542286  37.0471458  58.8848076
  16.9906292  36.5789986  59.2224312  18.2835712  36.3698196  58.4637909
   6.7207232  70.6819458  39.6350708   7.6184444  70.9263687  39.4101524
   6.7959909  69.7977829  39.9939804  61.9212265   3.0687144  70.5478134
  62.8244095   3.3535142  70.6870346  61.4419861   3.8756106  70.3594589
  55.1832085  39.9346352  19.7135162  54.5745964  40.4108009  19.1486378
  54.7039452  39.8128662  20.5330963  43.9249725  20.4662514  76.0832825
  44.6280289  21.0034485  76.4484787  43.3749962  20.2477989  76.8356400
   1.2223710  39.4021378  86.9664154   0.7022846  39.9827614  87.5219498
   2.1267009  39.6823463  87.1074982   7.3049245  19.1489277  16.2135372
   6.4709721  19.3621712  15.7948694   7.4264822  18.2148724  16.0432529
   5.3279305  30.9800701   9.1282644   5.8329692  30.2451534   9.4762087
   5.1577582  30.7434216   8.2165241  68.4849930  27.5660744  48.5369301
  68.8717117  27.7612419  47.6833572  67.7351456  28.1575642  48.6010323
  83.0450363  55.7805977  73.4128876  82.5420609  55.9293213  72.6121826
  83.9550934  55.9267807  73.1547012  47.3841248  54.0700417  85.4516602
  46.9787216  53.3182640  85.0195541  47.5447693  54.6948280  84.7445068
  37.9041214  25.3911667  67.0945816  38.3504868  25.0147533  66.3360977
  37.5066032  24.6403160  67.5355301  45.5035667  24.2560825  47.3319473
  44.8161964  23.6846657  47.6743431  45.1511688  25.1405296  47.4309540
  31.5003681   9.6534586   4.8451447  31.3188038   9.8769960   5.7579956
  32.0769043  10.3528414   4.5374055  64.3860092  38.5614777   2.4117692
  64.0886993  39.3021507   2.9402025  63.9421310  38.6735153   1.5711445
  31.9292068   6.9011626   7.4529409  32.8089752   6.6966658   7.1360445
  31.3460541   6.5772624   6.7664633  62.4011307  15.7536049  51.7240791
  63.0017319  15.6714993  50.9832878  61.9404831  16.5781631  51.5686951
  16.9034195  58.0010986  13.7872553  16.9916992  58.2325134  12.8626547
  17.4912758  57.2548447  13.9045630  50.2274017  66.8897324  83.1688232
  49.3449936  67.1094437  82.8699570  50.2911072  65.9419403  83.0510712
  22.2896805  43.9019890   0.9657675  21.8821945  44.2499390   0.1725969
  22.8379211  43.1807556   0.6567645  78.3900604  44.4161758  80.9484482
  77.9673767  45.2073097  80.6142654  78.5999603  44.6232109  81.8591156
  68.6919174  37.6206512  49.0203857  68.6784515  36.8726349  49.6174812
  69.2036514  38.2856216  49.4810104  51.5808907  23.1301155  50.8324394
  52.3415222  23.0243111  50.2610588  50.9969330  23.7138538  50.3482094
  14.6380472  69.9278564  22.7134476  15.2835693  70.4343796  23.2063675
  13.8641510  69.9135056  23.2765751  81.7961807   8.7205343  10.4194193
  81.3514481   8.4310532  11.2160645  81.4825745   8.1239119   9.7397671
  39.0278549  70.1650925  44.3873634  38.3052101  70.3659210  44.9820747
  39.5386238  69.4990005  44.8474464  58.4770050  15.7692633  70.6661301
  58.2415085  16.4910545  71.2490463  58.2579536  14.9800758  71.1615448
  40.1651993  23.9634838   0.9975104  40.8281212  24.6445198   0.8836816
  40.6673965  23.1548615   1.0983194  46.4809723  19.5019302  48.7220535
  46.1093903  19.9022770  47.9359970  47.1947479  20.0875835  48.9745750
  52.2444458  12.3121748  45.2444534  51.7927971  12.9281330  45.8213768
  52.9283905  11.9278345  45.7928429  32.4395065   4.1950464  11.0106306
  32.9684944   4.9790988  10.8634338  32.0218964   4.0258489  10.1661167
  53.0263100  57.8898697  15.4449272  53.4352417  57.0270233  15.3778248
  53.7590828  58.4932823  15.5680656  15.7646065  34.7494926  57.7000237
  16.6720333  34.4925003  57.5364304  15.7328939  34.9317741  58.6391716
  61.4307060  55.8790016  67.7705765  62.1475677  55.2447090  67.7673187
  61.7501183  56.6041946  67.2336426  32.0241776  20.2532463   7.9018636
  32.8788719  19.9795017   8.2347250  31.3937035  19.7571697   8.4240150
  78.7188416  17.6447906  63.3532639  79.3367920  18.2553062  63.7553177
  78.0808945  18.2056026  62.9119720  20.1276855  50.7162819  68.4934006
  19.6668530  51.4166870  68.0315628  20.2436047  51.0514641  69.3824692
  51.2627983  11.5058146  77.0061951  52.1463928  11.5801563  77.3667068
  51.3980827  11.3088341  76.0793076  67.0080872  28.2512169  17.3995857
  67.2165375  28.5773849  18.2750263  66.8209229  27.3214149  17.5286922
  85.1312332  58.4150581   7.3807673  85.4004593  57.5819855   6.9938040
  84.3127975  58.2147789   7.8349633   0.4418312   6.2978048  69.2621689
   0.2469696   6.2105498  70.1952591   1.3145803   6.6900091  69.2354050
  77.5387039  67.9432907   4.8475904  78.0496674  68.4149933   5.5053439
  78.1879807  67.4423676   4.3538876  32.7002182  21.5548344  12.0161533
  32.6450233  22.4005260  12.4611168  33.3093147  21.7039948  11.2929764
  64.1748734  12.3349066   1.2957129  64.6794891  11.5215502   1.3020473
  64.0030441  12.5173683   2.2195182  53.4607697  48.1344223  45.9373550
  52.7085686  47.6032410  45.6760674  53.7690582  47.7304535  46.7485275
  45.7469749  27.1691761  70.5018845  46.1966400  27.5697002  69.7578278
  44.8866158  27.5884914  70.5157700  23.8182030  58.6804810  79.4433823
  23.4060669  59.0301361  80.2333908  24.6401787  59.1650772  79.3675079
  81.0183487  61.8214760  88.6494446  80.5901260  62.3624535  87.9859695
  81.2713470  61.0251656  88.1824188  16.3147545  61.6873322  49.6763382
  16.5750866  60.9871292  50.2748146  15.4835873  61.3896332  49.3065147
   5.4398723  39.4302788  28.7035294   6.1600227  40.0415268  28.5486450
   5.4553781  38.8450508  27.9462318  11.7658701  26.2885513   5.8030963
  11.4251528  25.3943748   5.7787814  12.5698175  26.2527008   5.2848148
   5.6155314  25.7062798  13.0877008   5.4716811  25.0112820  12.4454250
   5.3655624  25.3145409  13.9245329  50.6989174  18.2614841  42.8523712
  50.9108086  19.1947098  42.8729248  51.4058838  17.8444557  43.3448372
  77.3485031   8.0511265   8.8498726  78.0075531   7.4875159   8.4446192
  77.8531113   8.7556086   9.2564535  57.0658340  24.8521843   8.4981127
  57.0088310  24.3026600   9.2797804  58.0012131  24.8877430   8.2980280
  12.0149212   1.5672014  19.2569389  11.5816078   1.8752645  20.0529099
  12.1891804   0.6406510  19.4223785  10.9970589  71.0513306   0.3964652
  11.3597116  70.6361542   1.1789860  10.0586557  70.8679123   0.4410670
  23.9196453  11.1149168  25.5159054  23.5628719  11.0610332  24.6293163
  23.1491432  11.1296158  26.0836563  65.5258713  64.0983200  63.6057205
  64.8339691  64.6976395  63.8855705  65.3346634  63.2805748  64.0650330
  75.9621811  63.8776588  70.9902954  76.4638443  64.1393051  70.2182159
  75.3014603  63.2727890  70.6529465  32.4670830  49.1116028   4.7461905
  32.0758095  49.4646301   3.9471247  31.7537651  48.6365776   5.1725211
  20.1168232  65.1727753  74.7621460  20.5749283  64.7316208  75.4775162
  20.1266232  66.0983047  75.0061493  26.7072239   1.8933284  49.1000710
  26.3302269   1.0701851  48.7893639  27.6273460   1.6879299  49.2656631
  38.1719971  32.0666428  49.4146881  37.6858788  32.4765930  50.1301308
  39.0590782  32.4168701  49.4962997  39.8604126  54.1255112  19.3064251
  39.3299103  54.3757973  18.5500126  40.3970718  54.8969460  19.4883919
  51.1637154   5.7042317  67.2373123  51.9770241   6.2077832  67.2718811
  51.1927376   5.2602487  66.3898087  61.8210068  31.6279583  86.3298569
  62.3944016  31.8979721  85.6125412  60.9576530  31.9606533  86.0845642
  36.5802460  37.8144302  85.9867554  37.0778923  37.2742233  86.6005630
  36.2527275  38.5404091  86.5177155  21.2569218  36.3663826  79.1035614
  20.6241016  36.1539345  79.7895889  21.3506432  35.5549469  78.6045456
  23.7229404  60.5699425  43.9262009  24.2675457  60.1822243  44.6112671
  23.8129902  61.5142365  44.0543861  73.0297699   9.1333256  49.0970802
  73.3246689   9.4813337  48.2555618  73.6497040   9.4889345  49.7338295
  77.9054718   3.1314287  36.8077469  78.1422424   2.3838255  36.2588730
  78.6611938   3.2559071  37.3818817  53.1752853  11.8365374  30.5723934
  53.2302475  11.1614466  31.2487545  53.9398003  12.3917847  30.7255116
  83.3760529  52.0762177  20.0804768  83.5014343  52.3564186  20.9871197
  82.4281311  51.9803658  19.9883175  11.2274799  14.9402552  20.0966206
  10.4397326  15.3511009  20.4528408  11.4231215  15.4429474  19.3058910
   6.2822566  27.6442738  18.5892715   5.8628321  28.5034122  18.6361103
   7.2193575  27.8320084  18.6424656   0.5355201  30.5410748  11.2518520
   0.5087910  30.6932564  12.1964989   0.7840306  29.6208401  11.1644373
  22.2787857  26.8442650  24.7188091  21.4474792  27.2713642  24.9255638
  22.6394997  27.3590355  23.9969139  61.1403732  63.8118858  26.0792503
  60.5471878  64.3172455  26.6351013  62.0131531  64.0080566  26.4198494
  80.6996536  16.5491562  40.7508888  81.3164444  17.2412529  40.9892082
  81.0922394  15.7483425  41.0984573  21.1226177  17.4754505  20.8236771
  20.6917934  18.1441345  20.2912464  20.7989635  17.6306171  21.7110329
  17.4205818   6.5633335  61.4608307  16.9815731   6.9090400  60.6836662
  18.0452785   5.9239473  61.1185303   6.8683252  33.2180061  62.9977379
   7.5478063  33.0928879  62.3352585   7.2579846  32.8853645  63.8062859
  24.6095123  35.4510078  77.6924210  24.3350754  36.3016624  77.3499298
  25.0560436  35.0298347  76.9579468  42.6537895  47.3620567   0.0183188
  42.3365059  46.6032829  -0.4714040  42.1546326  47.3458939   0.8349040
  11.6495104  50.8795700  64.1336823  12.2063026  50.1861801  63.7795258
  11.2046280  50.4731140  64.8773880  53.2481918  65.8171539   4.9690299
  53.0112305  65.9959641   5.8790350  53.8948936  66.4891205   4.7534595
  11.0189686  63.1539764  77.2192001  11.0500622  63.8179054  76.5303879
  11.6273546  62.4757462  76.9257660  76.3357239  61.7433167  33.8192024
  76.1813126  62.2996597  33.0557442  75.4598007  61.5080490  34.1252060
  67.9395370  55.6846809  57.4655342  67.8452530  56.4714317  58.0025330
  68.2400742  56.0088043  56.6165047  18.9792137  34.3162346  73.3209839
  19.6802387  34.7222595  73.8308258  19.0057602  34.7661400  72.4765167
  51.3916359  66.6196899  58.7034760  50.8824310  67.0549774  58.0197639
  51.2960281  65.6859970  58.5155602  19.2116718  42.4484215  29.9241333
  19.0242977  43.2212791  29.3913898  18.4078236  42.3002434  30.4222317
  40.0021324  41.1669960  19.7376556  39.7343178  40.3245697  20.1048450
  40.4085388  40.9448204  18.8999786  37.9857826   1.1386447  59.7282524
  38.2420731   0.2327677  59.9012680  37.4403000   1.3803570  60.4767532
  30.1204834  64.4368591  45.4743500  31.0366344  64.6367645  45.2821541
  29.6325722  64.8308105  44.7511749  46.6293869  53.8413086  71.4905624
  46.1187057  54.3069611  70.8282928  46.6795769  52.9422493  71.1658936
  78.4135895  19.2628040  78.2926559  79.0573654  19.3915958  78.9892197
  77.9063416  18.5010719  78.5731812  18.8387356  52.6906128   3.7386682
  17.9085445  52.6169701   3.9520988  18.8746986  52.5920639   2.7872341
   8.2786942  55.4794388  84.4689484   9.1222153  55.8739166  84.2473831
   8.0579453  54.9427376  83.7077332  52.7369270  36.3895836  87.8932571
  52.3750801  36.5842514  88.7577820  53.2949181  35.6246567  88.0338593
  44.6999130  60.2587090  49.5292358  45.6346550  60.1183548  49.6802025
  44.6376305  61.1701851  49.2436409   5.3751888  44.3246193  12.4006300
   5.7320848  45.2020645  12.5382977   4.5765867  44.3054276  12.9279795
  53.6568069  38.5633240  25.1055717  53.9365807  38.8064003  24.2230358
  52.9334450  37.9518127  24.9676056  17.2409573  17.1003036  19.1048489
  17.9662590  17.5674896  18.6902370  17.6635265  16.4885216  19.7076683
  76.6836929  39.0471840  18.4652805  76.6368942  38.1536713  18.8053856
  76.5098190  38.9562645  17.5284061  35.9293518  40.9496269  10.7433300
  36.3696480  41.7035904  11.1356421  35.9088326  40.2945404  11.4409494
  79.2397003  71.0206833   9.9963808  78.7063980  71.7472687  10.3187056
  78.8812180  70.2481766  10.4333744  53.3302383  60.7244072  59.3464546
  53.0183945  61.0399666  60.1946335  52.6452446  60.1268044  59.0466461
  77.3381805  18.3601398  19.4104748  77.0034714  19.2281151  19.6359081
  78.2423248  18.3630447  19.7247238  68.9303589  21.4914112  44.7467842
  69.3498383  20.9107056  45.3816490  68.2462845  20.9546051  44.3466492
  44.3730202  53.1392517  22.8865242  44.7679672  52.2735176  22.9902191
  43.4513474  52.9611855  22.6993313   2.6548803   8.3340712   7.5786629
   3.1015360   8.7446680   6.8382978   3.1808784   8.5772524   8.3405170
  16.9358997  50.6421127  38.8412056  17.4285755  50.8978119  39.6210289
  17.3542404  51.1211510  38.1258430  81.6452179   5.4302807  14.2998943
  81.5074005   5.6181521  15.2283020  82.4782486   4.9596343  14.2718554
  55.6155357  69.4052887  34.8602028  55.0432816  69.1237869  35.5740089
  55.0744324  69.3273239  34.0744781  42.8826637  42.9392128  78.9814148
  42.8333588  43.5639801  79.7049255  43.4135246  43.3813705  78.3189087
  53.0797691  34.1802368  49.4639091  53.9348869  34.2837219  49.0464134
  53.2422256  33.5895233  50.1993637  45.8193016  55.3360710  63.0230713
  45.4513474  54.5457458  63.4183273  45.0586166  55.8848495  62.8321915
  80.6184464  48.6750832  26.8425884  79.6669693  48.7795868  26.8434696
  80.9216232  49.2355576  27.5568619  55.9352493  51.8929787   8.3448362
  55.8541107  50.9749680   8.0861855  56.0184479  51.8667908   9.2980537
  75.8889008  65.5104523  28.2066059  76.3524170  64.7751007  28.6074047
  75.5719070  66.0264435  28.9478874  74.6488342  19.8543339  62.1653633
  74.0539017  19.4758511  62.8126907  74.4563446  20.7918243  62.1824226
  56.9297180  36.1099281  13.0516672  57.7591629  35.6373024  13.1215305
  57.1725082  36.9706497  12.7104301  14.2913342  33.4079132  69.9898605
  15.2071877  33.4524422  69.7151566  13.9786510  32.5709991  69.6462936
  76.5088120  17.6402225  58.9946976  77.3486023  17.7415504  59.4427185
  76.6016312  18.1544266  58.1926956  77.3189087  69.5039368  25.7789707
  77.4812469  68.7423248  26.3355942  78.1056366  69.5778427  25.2387638
  63.3764229  15.9915962  14.4739923  63.7167244  16.1847591  13.6004276
  63.1600075  15.0596018  14.4460468  23.3674011  70.7259216  26.8882141
  23.5750923  71.0330429  27.7706947  24.1835670  70.8318787  26.3994617
   4.7910113  66.5212402   6.8770914   5.6838269  66.8659058   6.8949552
   4.2887564  67.1818314   6.4000301  85.2786865  58.3925629   3.4318883
  84.8781281  57.5924225   3.7718391  86.0962524  58.0989990   3.0298574
  17.6932964  47.2804642  81.6733170  17.4995823  46.3678551  81.8874435
  18.6493378  47.3269081  81.6654892  82.6805954  67.9093323  24.7252808
  82.0157471  68.0418777  25.4010296  83.4724045  67.6774063  25.2105427
  19.8735962  63.1563187  47.9095078  19.8835011  62.7025757  48.7522697
  19.5281792  64.0262375  48.1098938  52.3123436  10.7399759  74.5840454
  52.9921989  11.4002199  74.7186127  52.1188354  10.7828569  73.6475906
  42.7353973  60.9859352  84.6556396  42.7589493  60.0554199  84.4324341
  41.8050613  61.2109337  84.6465988  68.4059448  69.8786011  57.0026169
  68.2414322  69.1285629  56.4311218  69.1896439  69.6364517  57.4959869
  56.4390030  16.0050697  21.9487743  56.9829788  16.7369137  22.2398510
  56.5347672  15.9994135  20.9963932  50.4712601  51.8416748  13.4006014
  49.9839172  52.6080551  13.7029114  51.3486671  52.1747437  13.2123175
  76.6559753   6.0984678  46.5871582  75.7139893   6.2192278  46.7067795
  76.9584503   6.9272494  46.2158623  83.1014099  23.1745739  33.4343185
  83.2764893  22.3002243  33.7823029  83.7190628  23.2720222  32.7095871
  51.7488136  32.2193489   4.7476134  51.3998756  31.6777954   5.4555640
  51.3152733  33.0656395   4.8574653   2.3260281   8.1360474  24.5049953
   2.1284590   8.5540323  23.6668510   3.1080511   8.5891876  24.8201714
  60.3845177  36.1008339  20.0861473  60.3396034  36.0018082  19.1351433
  60.9041862  35.3528404  20.3805618  26.2117043  50.2271385  78.4087219
  25.5939331  49.5155945  78.2405090  26.1965237  50.7517624  77.6082458
  57.4181862   7.7556000  40.8107376  57.7407532   6.9497223  41.2141571
  57.5370560   7.6172738  39.8710747  53.8201637   3.2952912  68.7166595
  53.8524475   4.1379328  69.1695862  53.7278481   3.5239005  67.7917557
  64.0511322   9.5436897  45.3927574  64.4933548   8.6981497  45.4684486
  64.0522537   9.8951206  46.2831078  61.2612801  42.7993622  60.2616196
  60.8709602  42.7949066  59.3876266  60.5559464  43.0946350  60.8374252
  67.7367401  35.2186470  66.8113098  67.5699387  34.8038101  65.9649506
  67.3361359  36.0847702  66.7366104   5.1437993   4.0091925  81.8509827
   5.7136159   4.3285451  82.5506668   5.4260240   3.1061661  81.7056427
  30.6849384  58.6409187  48.0784988  30.0064487  58.0509262  47.7501831
  30.5144310  58.7025681  49.0183716  55.8112717  18.4503937  89.0694122
  56.1475410  17.5660057  88.9244537  55.4505196  18.7113419  88.2220612
  26.3178883  33.9403152  69.5646057  26.8626842  33.1591911  69.4683228
  26.9432735  34.6622391  69.6274872   6.7331600  29.9239025  67.4304047
   5.8979049  29.7945919  67.8796921   6.6911507  29.3391609  66.6737366
  34.0138397  18.5112419  16.6733456  34.6772842  18.8682785  17.2637691
  34.4889221  17.8799744  16.1329460  64.5233841  41.6870728  54.1114388
  63.8961716  42.1668205  54.6524353  64.5100021  42.1415482  53.2691193
  77.8627319  10.1692572  15.5579681  78.3276978  10.9106274  15.1701403
  76.9434814  10.3221169  15.3392305   5.1209745  15.2885113  80.1033020
   5.4084167  16.1622410  79.8383408   5.8698335  14.9224634  80.5738907
  46.2165070  47.1990242  19.7078819  45.8319588  47.9588737  20.1448956
  46.6143570  47.5554695  18.9135933  68.5485382  62.9254150  36.6198578
  68.1994934  63.1547890  37.4811287  69.0026245  62.0943527  36.7590256
  26.5744343   0.4130229  68.1168823  26.2750435   1.2519046  68.4674225
  25.7835407  -0.1244164  68.0735245  43.3246384  47.7672691  34.9115562
  42.8795242  48.5066833  34.4975815  43.8782158  47.4035759  34.2205353
  65.0286560   9.6504307   0.9042075  65.9565430   9.6295576   1.1383502
  65.0217285   9.8668079  -0.0281898  52.6373024  25.8383484  66.9608154
  52.7618256  26.7474384  66.6882629  53.4696312  25.4113483  66.7580032
   3.8831069  15.5441160  59.4283447   4.4543929  14.7843142  59.5404434
   3.7362940  15.8666525  60.3175316  53.0596657   2.0091004  11.2153111
  53.7120056   2.7045436  11.1313763  52.8017387   2.0325987  12.1368055
  51.4746895  10.3597755  25.9892216  51.2143745   9.9849939  25.1477890
  51.4706650  11.3055286  25.8416843  51.1416245   7.8144417  29.9949322
  50.8712158   8.4465361  30.6609402  51.5121498   8.3496685  29.2931671
  57.6623650  17.7858334  72.3731308  57.6972008  18.3941460  71.6349030
  57.9781952  18.2959652  73.1189499  85.7877655  45.9535980  27.0008392
  86.5757523  45.4154549  26.9253216  86.1162567  46.8485222  27.0870743
  49.6602135  10.1787777  62.1885300  50.3200989  10.2540970  61.4992523
  48.9564133   9.6658411  61.7913017  75.6195068  43.9469185  21.6881351
  75.7539978  43.1178474  22.1472473  74.6711502  44.0761719  21.6999969
  28.3890038  66.5748444   9.3125668  27.8171005  66.6944504   8.5543756
  28.0704002  67.2086334   9.9552460  69.2714539  68.3754501  79.9810715
  68.4539337  68.0208054  80.3305130  69.2339172  69.3098221  80.1854630
  65.2598343  35.9063072  62.7681618  65.2927475  34.9682922  62.5803490
  66.1656265  36.1424522  62.9681892  49.7154045  60.9138336  70.6744232
  49.4152145  60.5793190  71.5195389  50.5306587  61.3736839  70.8747482
  77.5170822   5.2306676  51.4914970  78.4525604   5.4302368  51.4555130
  77.2382126   5.2240033  50.5758476  12.1900873   5.4248829   5.0643697
  12.1260633   4.4964900   4.8402729  11.2886410   5.6898756   5.2471380
  60.3503799  66.9900894  15.1318274  59.8702621  67.5326614  15.7573900
  60.5265579  67.5739975  14.3941021  83.3495331  68.7468567  13.5038519
  83.6968079  68.8782883  12.6216078  83.9862900  68.1722031  13.9287510
  52.9582214  63.7411041  23.3386211  53.8326225  63.7457237  22.9492226
  52.5568771  62.9339828  23.0165806  16.7504730  53.3799362  25.7459087
  17.2872677  53.7038307  26.4692173  17.2811184  52.6927795  25.3428421
  38.6934509  10.9318104  12.2278385  38.9064751  11.7898245  12.5948057
  39.4685936  10.6886806  11.7216005  53.2712669  39.5288353  53.6129951
  52.8443642  40.0892372  54.2610207  54.0378036  40.0285492  53.3320389
  25.8925686  44.8703995  60.0128822  25.7702389  44.1354446  59.4119568
  26.5363865  44.5561409  60.6476822  79.8446350  63.2140198  86.7755661
  79.0230026  62.7231483  86.7615051  80.1302643  63.2291412  85.8620987
  18.6742592  60.2183533  34.6181450  17.7891521  60.2411842  34.9818687
  19.0059471  61.1080589  34.7391281  30.0126381  71.2627106  65.9824753
  29.6747417  71.9310837  66.5785675  29.6807308  71.5192337  65.1220856
  21.5455875  14.0451269  13.0444574  20.8917923  14.2130938  12.3658037
  22.2999744  13.6967640  12.5692987  30.9392223  67.9727249  48.0550919
  31.5977192  68.5891342  47.7346916  30.2868729  68.5229874  48.4885445
  81.3898773  16.9196720  85.3841934  80.6285477  17.3169460  84.9613724
  81.1381989  16.8394928  86.3042297  70.0217896  21.7084446  13.0765123
  69.1717224  22.1089745  13.2586985  70.2871094  21.3199749  13.9101353
  72.5945358  66.9997253  88.2793503  72.9047165  67.8369522  87.9342804
  71.6465378  67.0234222  88.1490936  27.5035782  53.7175980  39.1286354
  28.3337631  54.1712761  39.2742386  27.7307472  52.7881165  39.1549454
  22.5140190  52.8809662  82.8386536  22.1987305  53.7237473  82.5122375
  21.8600254  52.6145477  83.4848328  61.9476776  39.7582283  17.7099266
  61.0822525  39.4027176  17.9121208  61.9477615  40.6289825  18.1074467
  15.4899197  19.6689415  32.6841278  15.9660978  20.2234097  33.3022308
  14.6674414  20.1336880  32.5299416  53.0357170  42.6711960  58.8666801
  53.9613419  42.4414368  58.9482803  52.5942268  41.8358765  58.7131805
   1.6487451  14.1924667  17.5053177   2.1517508  14.3864384  18.2962608
   1.0345424  14.9224405  17.4270477  84.3231659  60.8046951  32.6306267
  84.3758316  61.1273766  31.7309952  83.3967361  60.6003723  32.7579422
  70.6527100  40.9756317  73.4207458  70.6988449  40.0195770  73.4286270
  71.3993988  41.2558212  73.9500732  43.9142456  29.7713757  68.1830444
  43.7157211  29.3997116  67.3235779  44.8704376  29.7995129  68.2167587
  29.7419529  11.6734772  81.3064880  30.2718391  12.0952473  80.6300507
  30.0510235  10.7676935  81.3227463  16.6654663  31.1157875  11.1080503
  15.8653708  31.4574127  10.7088394  17.1516304  30.7310791  10.3787527
   3.9071009  62.3463364  71.7691879   4.0183191  62.2510529  70.8232574
   4.6741548  62.8444595  72.0515594  51.3273964  11.2604942   2.4123132
  50.4434395  11.2613726   2.0450935  51.8804359  11.5947962   1.7061794
  22.3647995  30.6388779  16.5851727  22.8805256  30.8224316  15.7999563
  22.9246826  30.0680847  17.1114426  46.6000481  49.1221275  34.2308235
  46.2146301  49.9979630  34.2552414  46.0362320  48.6288681  33.6349678
  80.7261581  69.6297150  13.2267179  81.6650085  69.4639969  13.3124008
  80.5854568  70.4554977  13.6898766   9.2128277  23.8573189  13.9047651
   8.7332430  23.3400974  13.2576857   8.8408051  24.7362766  13.8322248
  34.2964630  12.9094114  16.4518986  33.9640083  13.2801647  15.6344347
  35.0258522  13.4798517  16.6944332  13.9993200  46.4042664  13.4097910
  14.7739868  45.8439713  13.4566126  13.6261597  46.3711205  14.2906342
  62.2861786   3.2126760  85.5260773  61.4313316   3.6433327  85.5247116
  62.0831451   2.2773461  85.5390091  53.7712135  31.5111122  16.1248760
  54.2964287  31.0331249  16.7666740  54.1864700  31.3183365  15.2842617
   1.0892794  47.4946365  83.9525833   1.7046448  48.0725899  84.4037170
   0.7429990  46.9283295  84.6422272  34.0832291  65.6157379  17.5925198
  34.8587685  65.0557251  17.6265411  34.4159775  66.4964294  17.7654171
  24.5023136   4.8266401  62.2755470  24.5160236   4.8274784  61.3184433
  25.0734005   5.5535583  62.5238991  81.4796219  60.6547394  45.6644478
  81.6098328  60.3217087  44.7765503  80.5650864  60.4543457  45.8636932
   0.5068290  29.2393761  16.1802082  -0.3292397  29.2208290  16.6459084
   0.7267305  28.3174973  16.0459881  25.7441273  13.2379990  78.8265839
  26.3860626  13.7241354  78.3090668  26.1546059  12.3868580  78.9792175
  86.8962479  26.2480698  12.7868185  86.3683243  27.0430145  12.7120485
  86.9513397  25.9121113  11.8922081  30.2329388  48.4917679  58.0473900
  30.7623310  47.7289200  58.2798615  29.3283672  48.1912537  58.1350021
  77.3617935  19.5760994  61.6437912  76.4125671  19.6952305  61.6755638
  77.6678848  20.2519169  61.0389709  61.9907455  53.1512871   0.5458286
  61.8231010  53.0589180   1.4836960  61.7523994  52.3015976   0.1750907
  73.8613815  14.8305483  64.6783600  74.3707047  15.2833900  64.0062408
  74.2984619  13.9851904  64.7811203  72.2917862  28.0763302  53.0547676
  72.5169754  28.7541676  52.4175415  72.8663712  27.3424225  52.8369217
  24.4409218  67.9738693  87.5860748  24.7280674  68.5816650  86.9046326
  25.0499382  68.1204224  88.3098526  11.1314821  37.5266228   4.5063996
  11.9270906  38.0075645   4.2785072  10.5723791  38.1765594   4.9320993
  67.8261871  54.2995758  15.9220886  67.5365677  55.2105446  15.8722610
  68.5711517  54.3176117  16.5228672  29.7657795  33.8319092  46.1993561
  29.9648170  33.2966576  46.9675522  29.6970768  33.2033310  45.4807472
  25.5410290  69.3268814   8.2644482  25.8468113  68.4247818   8.1698923
  24.6044769  69.2447128   8.4443054  79.5013046  42.5126572   7.2098184
  80.2827454  43.0417747   7.3698459  79.4791794  42.3994293   6.2595963
  32.0030174  57.7364349  85.6871872  32.9246330  57.9949379  85.6932144
  31.6934547  57.9735985  84.8130264  52.8656883  34.5297623  56.1391144
  52.3401871  34.5960579  56.9364128  53.4889603  33.8263893  56.3208542
  72.1127625  55.0593033  79.5772247  73.0480194  54.8629036  79.5228577
  72.0033493  55.4678879  80.4358978  16.8366795  70.2328186  57.8875046
  16.7899227  70.8160324  58.6450691  16.6505260  70.7983551  57.1380081
  25.3684406  47.7906075   1.7556459  26.0288792  47.2772675   2.2209816
  25.0000420  47.1823959   1.1148710  28.4568119  49.2625313  39.5515442
  29.3973598  49.3662643  39.6959076  28.3917179  48.8213501  38.7045784
  58.1115379  41.8147469  29.0955429  57.5548515  42.3499107  29.6611671
  58.6900482  41.3495026  29.6997814  49.2458191  22.0080528  42.8840294
  49.7481194  21.4045563  43.4314957  49.4147835  22.8712006  43.2617302
   1.0637964  63.0457726  64.8091888   1.2830292  63.9104805  65.1562500
   0.6193785  63.2258148  63.9807549  61.9430809  11.6095295  55.7465096
  61.2049713  12.0237083  55.2994308  61.5451965  10.9184761  56.2760048
  40.2732506  59.4063911  65.5797577  39.4249306  59.2492104  65.1651764
  40.3645439  58.6963387  66.2151489  75.3297958  59.1334915  79.4982605
  75.1402359  59.8427620  78.8840637  75.9619675  59.5095901  80.1107407
  79.0295334   5.6055722  54.3363342  79.2309799   5.8024197  53.4215088
  79.6503906   4.9174328  54.5755806  73.7554626  36.7368698  19.9061871
  74.0928802  35.9003143  20.2264290  73.0824127  36.4958000  19.2697010
  45.6696205  16.9878902  48.4378052  45.8639450  16.7055702  49.3315430
  45.8026352  17.9357014  48.4517670  84.0858307  10.6163273   6.4993181
  83.6717148  10.0311136   5.8650708  84.8437119  10.1262398   6.8181481
   1.7813733  44.8768654  48.2110977   1.2967846  44.8500519  49.0361328
   1.4410274  45.6485252  47.7583923   1.2617118  21.2775249  41.2380981
   1.9711190  20.6392632  41.1632996   0.6213192  20.8576393  41.8124046
  77.8496399  36.7687454   3.9654565  77.7801361  37.2064285   3.1170268
  78.4977188  36.0781860   3.8263412  46.5131111  57.8736992  47.6617317
  47.2676926  57.3057251  47.8174400  46.8942261  58.7124786  47.4020424
  48.5411949  53.9175415  17.0403728  49.4135170  54.1639481  16.7328453
  48.0758324  54.7489700  17.1320076  27.2095490  54.4932289  11.9594727
  27.7477627  54.8337250  11.2448959  26.8736782  53.6595993  11.6301060
  66.7739487  40.0734940  33.1907425  66.6515961  40.6150475  33.9704704
  66.9059601  39.1889153  33.5318069  29.3192730  36.0982819  77.1980820
  29.9298859  36.3554535  77.8889160  28.5807781  35.7069168  77.6646576
  79.2850189  24.0971222  59.2530060  79.7684555  24.9100857  59.4000130
  79.3624420  23.9392204  58.3120995  77.3517075  47.4736443  86.8221130
  77.9883804  46.7786026  86.6553879  76.5771103  47.0156670  87.1484528
  11.0195293  53.0269127  49.2142601  11.9018221  53.0959244  48.8495255
  10.5792713  53.8276825  48.9293556  73.6487656   5.7558479  81.3089981
  74.4757767   5.4390306  81.6721954  73.9029922   6.2488379  80.5289001
  86.6012268  26.7935123   4.5358791  86.6310272  26.1154270   3.8609390
  86.9800339  27.5659409   4.1162519  10.6702690  67.5414810   2.1996965
  10.5164337  66.9409943   1.4703244   9.8597860  67.5132904   2.7081780
  23.9361553   4.9839115   5.0206943  24.0039654   4.3447933   5.7300329
  24.5508423   5.6765656   5.2628140  68.5330124   4.3422656  48.1127167
  67.9038162   4.8953257  48.5758209  69.0519791   3.9365952  48.8072205
  85.9560852   8.5762339  51.6306496  86.5286865   9.3419771  51.6752396
  85.6744385   8.5406799  50.7165108   0.6847481  70.6950607   7.0701380
   0.1643809  71.4593964   7.3175960   1.1085938  70.9490814   6.2503457
  68.9639053  10.3338404  69.3693848  69.6763458   9.7949810  69.7133179
  69.3727188  10.8623285  68.6839676  72.0522919  56.9067078  70.6714630
  71.3212891  57.1196785  71.2515640  71.6478271  56.7794304  69.8133011
  20.5178890  21.4173336  10.4547262  21.1422462  20.7154312  10.6384134
  19.8750916  21.3571224  11.1614227  78.8744354  48.3210564  68.4661102
  79.1864777  47.4749985  68.1450958  78.8901367  48.2361145  69.4194031
  27.6776104  47.2836342  58.3847084  27.4245682  46.9023819  59.2254524
  27.3304882  46.6757278  57.7318764  10.4591436  43.2254829  64.3008652
  11.1516180  43.8555336  64.1014862  10.7017651  42.8648148  65.1536789
  32.1434402  52.7156830  56.5065422  32.9693069  53.1932831  56.4285965
  32.3289871  52.0172501  57.1342316  30.9398651   2.9323761   1.2888466
  31.4589844   3.5323291   0.7533073  30.3959255   3.5042977   1.8303879
  41.8239326  42.9410439  86.5219040  42.0937767  42.0582848  86.2686157
  41.3217735  43.2621498  85.7729340  48.7222061  41.1732368  50.1462593
  48.2611656  40.4402885  49.7382622  48.2926369  41.2840881  50.9944458
  56.0423584  62.8160934  86.8390884  56.4939728  63.5359230  86.3984985
  56.0645752  63.0513954  87.7666473  84.1363983  45.9295807  76.7011490
  83.7087173  46.2433777  77.4979248  84.6959763  45.2113914  76.9966278
   2.2642717  57.7716522  21.1456738   1.8199841  58.3232422  20.5017853
   1.9264084  56.8913765  20.9807682  74.0794601  52.9071693  16.6374378
  73.7921753  52.3545609  17.3642979  74.0622635  52.3284111  15.8752184
  78.0363617   4.9365568   8.6795568  78.7217484   4.8770499   8.0140247
  78.4949875   5.2180238   9.4711800  57.4383316   2.4675174  76.0264282
  57.4008102   2.7705796  75.1192474  57.9777145   3.1190753  76.4745026
   5.4608607   7.4685163  34.8713760   5.9528389   7.8836980  34.1629868
   5.4589758   6.5377078  34.6481628  38.5176773  68.4751053  86.3453217
  38.5471992  68.4002762  85.3915100  37.5954590  68.3466415  86.5672226
  54.7578201  11.3783741  42.7065392  54.8129272  12.3098068  42.9201469
  54.3914375  11.3566513  41.8225021  83.7288284  52.1573486  82.0316086
  83.2225876  52.8863640  81.6731644  83.2143097  51.8531990  82.7792740
  70.1997910  20.3062744  66.4429398  69.9185715  19.4581203  66.0997467
  69.6640167  20.4376965  67.2251892  56.2038078  17.8873425  79.0137405
  55.7695694  17.5896587  79.8131485  56.3774223  18.8160877  79.1671066
   0.1389925   7.9078126   9.8565273  -0.7553584   8.0007133  10.1847620
   0.6928908   8.0922165  10.6150942   9.8204479   9.2358398  12.4012766
  10.3991814   9.8496361  12.8535528   9.3628540   9.7713518  11.7531519
  33.4677658  42.9977570  10.2346010  33.4595985  42.8041191   9.2972269
  33.6036758  42.1479073  10.6535511  79.8088226  28.8007526  63.3898277
  80.6215668  29.0396786  62.9441872  79.3446503  29.6302624  63.5024643
  36.6109734  22.4268684  26.1568203  37.1296616  22.9844131  25.5768757
  36.7247772  22.8130875  27.0252190  86.2222900  21.4028683  78.6310120
  85.5425949  21.7998123  78.0863266  85.7842178  20.6708050  79.0650787
  71.5060501   1.2925825   0.8614771  71.6391602   1.2654861  -0.0860352
  71.1463089   2.1638420   1.0279847  -0.0023022   3.1867275  48.9462662
   0.2799676   2.6607397  49.6945229   0.2896852   2.6910057  48.1812592
  48.4238968   2.1599088  52.5641899  48.6321182   1.2536039  52.3372803
  47.9300575   2.0947680  53.3815689  12.4239845  52.1471825  18.7190742
  13.0857553  52.4014549  19.3622189  12.8526888  51.4774284  18.1862774
  13.5833721  34.0041313  23.8661957  13.6115026  33.0973053  24.1713276
  12.7886915  34.3646584  24.2595615  55.1181221  51.8482132  31.2986984
  54.7045708  51.0252190  31.5592518  55.1713676  51.7978745  30.3443089
  79.6775513  58.0631104  57.6525841  80.3269577  58.4369736  58.2481766
  79.2191010  58.8217506  57.2913132  16.4694195   2.0164740  77.4671783
  17.2628784   1.5439101  77.2155151  15.7626534   1.3841746  77.3371353
  20.8702450  50.5606995  81.5823288  20.3000717  51.1094170  81.0437698
  20.9166889  51.0161896  82.4229279  73.6817780  51.3289452  14.3282137
  73.3933563  52.0751724  13.8026714  74.5054626  51.0556641  13.9243717
  77.3670197   8.4531708  61.3449821  77.8138657   7.6173873  61.4792442
  76.7799377   8.5343456  62.0966301  69.7831573  71.0003967  73.9904709
  69.9307175  70.7126846  74.8914032  68.8515015  70.8421860  73.8380661
  48.6092072  40.5870590  67.2740326  48.0322456  40.5598564  68.0373230
  49.0935478  41.4071960  67.3690109  62.7961998  65.3992538  27.7809715
  62.5195694  65.8286057  28.5905170  63.4326973  64.7425613  28.0635586
  41.4500427  60.9715080  40.4451447  41.0782890  61.2875328  39.6216393
  41.6564102  60.0519753  40.2775040  70.1927185  33.2866287  13.7505713
  70.9822464  33.7869186  13.9569330  69.9417191  32.8819809  14.5809259
  -0.0018906   2.6288173  64.7171326   0.1023112   3.2266786  65.4573593
   0.8900174   2.3554456  64.5026550  13.8245668   7.5146203  60.5208626
  14.5988741   7.3127513  59.9955750  13.4718704   8.3141165  60.1301689
  78.0434723  22.8711109  68.1381149  77.6968689  23.4021988  67.4211502
  78.6445312  22.2588310  67.7137680  27.6579475  17.1445580  88.3037186
  27.2112656  16.6779156  87.5973511  26.9505787  17.4720974  88.8592148
  18.5536423  26.7616806  84.3242569  18.4265194  26.2997246  83.4955978
  18.1783581  27.6294556  84.1747284  21.9071083  69.1111984  22.4953289
  21.7280388  69.9910431  22.1636105  21.0581570  68.6695709  22.4733791
  39.7314873  50.2413635  16.9401150  40.4066200  50.7596169  16.5021191
  40.2185745  49.6451569  17.5088959  78.2985382   8.3479013  53.4560509
  79.2011261   8.6465263  53.5673752  78.0407639   8.0359411  54.3234978
  77.1252747  49.2145882  42.2901192  77.4216843  49.2228394  43.2002296
  76.2702484  48.7853699  42.3205757  73.8035812  30.7859898  56.9087753
  73.4989548  31.5723457  57.3616333  74.5795975  30.5131607  57.3982658
  71.2850418  71.3243713  57.0240211  70.7621460  70.7961578  57.6271782
  71.3923340  70.7697906  56.2512589  38.9769630  63.4978981  11.9958668
  39.5208855  63.6588173  12.7668934  38.6795502  64.3670654  11.7269325
  26.3547096  66.6540146   1.9252487  25.5431290  66.1569214   1.8229584
  26.1754761  67.4945602   1.5038325  46.5324745  58.1831779  26.9875126
  47.1672974  58.5661964  26.3820934  47.0354538  58.0081863  27.7828884
   7.2015200  48.1491127   8.5516596   7.5857668  48.0168304   7.6850061
   6.9793749  47.2678909   8.8522091  62.7736320  35.5521698  72.3581467
  63.4181023  35.5077820  73.0644836  62.9471016  34.7753372  71.8264771
  26.7346134   3.4662693  65.4562683  27.3005219   2.9971473  64.8431549
  26.5751934   4.3115211  65.0363083  42.3020554  16.4374104  24.5461960
  42.6157188  15.6169901  24.9266624  42.7585678  17.1196804  25.0384712
  70.6675110   3.6738305  85.0218430  71.4032516   4.2478008  84.8085861
  70.6579208   3.0251837  84.3180008  16.0263481  31.1810150  19.5276070
  16.8781586  30.9124088  19.1833649  15.4217501  31.0543022  18.7964172
  46.6723824   4.8982873  47.6609688  47.0668221   5.0433083  46.8009605
  46.1046295   4.1373858  47.5388412  21.2599678  33.2397575  21.1897240
  21.2232571  34.0479507  20.6781521  20.3433266  33.0188332  21.3546314
  51.7086525  54.7935638  24.5728931  52.4579582  55.0445099  24.0327129
  51.0626755  55.4835777  24.4217949   4.6938186  70.2292404   9.5193987
   5.3444152  69.5513611   9.7022448   3.9281671  69.7479935   9.2056952
   3.8392289   1.4952283  45.8495369   4.7310057   1.7067471  45.5734444
   3.2794247   1.9517603  45.2215004  65.4961166  47.9806213  71.8920670
  65.3015518  48.6777191  71.2656174  66.0686417  48.3928795  72.5389709
  83.1113968  13.2055740  49.9101334  83.1072540  14.1510582  49.7608871
  82.6086884  13.0881310  50.7161903  35.5211563  54.7319412  15.3033543
  36.2320976  55.3164673  15.0404444  34.7230301  55.2251472  15.1136780
  52.8495674   5.3892856  26.6542797  53.6487160   5.1104984  27.1013508
  53.0924644   6.2047439  26.2158031  43.2812386  26.7419510  11.4523726
  42.7726212  27.1177425  10.7338161  43.1380768  27.3402805  12.1856794
  54.8996124  47.0075340  27.0276794  55.0519943  47.9191437  26.7787209
  55.7601280  46.5937767  26.9602051  44.1666489   0.6553342   9.4153204
  44.3073082   1.5318756   9.7732620  43.2474442   0.4648732   9.6024485
  40.9663620  38.8230743  15.3237801  41.3081169  38.6051598  16.1909294
  41.6443443  39.3723373  14.9302273   7.8179517  22.8620396  69.0121002
   8.1558342  21.9879551  68.8170547   7.2024622  23.0448189  68.3021774
  50.7040520  23.6348515  84.3966446  51.1164703  23.6180038  85.2602768
  50.8071709  22.7430496  84.0645447  82.4596558  25.5333710  34.4006195
  82.7245483  24.7604465  33.9019661  83.0885849  25.5810165  35.1206245
   4.0245738  23.0194206  23.1319962   3.7428429  22.2234325  23.5828419
   4.9787412  23.0126781  23.2078342  42.2602119  38.8823128   5.0582047
  42.1035805  38.8898201   6.0024724  42.8375397  39.6303253   4.9052320
   5.0636353   0.8821806  49.9594498   4.4659095   1.5836765  49.7008781
   5.5280957   1.2314732  50.7200432  84.6204224  53.8409309  66.1023178
  85.3923264  53.2940407  65.9563446  83.9206161  53.4013138  65.6193771
  21.9868565  27.8320732  74.8388519  22.5341320  27.8083858  75.6238174
  22.6074352  27.9335670  74.1171799  68.1174164  29.8954315  56.4129677
  69.0578308  29.9271526  56.2373352  68.0139923  29.1747227  57.0343513
  35.6650276  56.8114395   8.6464558  36.3521996  57.4677124   8.5309830
  36.0811119  56.1160736   9.1559401  59.2940941  11.1762390  81.2396469
  59.6148872  12.0547256  81.4435730  59.8225555  10.8957329  80.4924698
  30.3415546  41.8253288  85.5833664  30.3158493  41.9048347  86.5369110
  31.1580772  42.2552910  85.3291016   3.0352666   2.3134084  48.7591591
   3.1922357   2.2917676  47.8151665   2.5197330   1.5261556  48.9343452
  50.0595970  51.3489609  73.7342377  49.5725250  51.6911545  72.9846344
  50.9791489  51.4444199  73.4861526  85.4038544   2.2881382  58.3406029
  85.5459671   2.2310231  57.3957329  84.5497894   1.8788689  58.4795265
  60.1966629  20.5929146  16.0464516  59.5678864  20.9651775  15.4281549
  59.6797867  19.9882069  16.5788040  19.0351582  66.1190796  17.0780811
  18.3562222  66.7385941  17.3454247  18.6862717  65.2616119  17.3215294
   0.3246851  40.3393364  68.4611816  -0.2272644  41.1198120  68.5105820
   0.9532081  40.4448738  69.1753616  36.1185722   2.2343056  76.5673065
  35.8612900   2.0566320  75.6626129  36.1701431   1.3701664  76.9757614
  19.0008717  46.9152985  56.7662506  18.8991623  46.2171783  56.1193199
  18.1062508  47.1972198  56.9570503  26.5962410  48.4071465  17.1356907
  27.3682251  47.8501053  17.0358162  26.9503326  49.2893829  17.2475529
   4.2071609  23.7454777  51.2767830   3.8196392  22.9283447  50.9631691
   5.0704150  23.7749653  50.8642845  55.8275833  64.5103378  67.9994049
  54.9791222  64.7184448  67.6082077  55.9981995  65.2350769  68.6009674
  18.1857967  52.8676109  37.3316383  17.3968163  53.3941345  37.4601326
  18.8971500  53.4183273  37.6586227  42.4821625  59.2665405   7.8426170
  41.8850327  59.6347122   7.1913714  43.2842293  59.7806625   7.7498837
  17.1750965  40.5503960  28.1670284  17.2187748  39.6012993  28.0506611
  17.3321133  40.6845818  29.1016788  54.3853111  27.1688843  33.8032074
  53.6483994  27.4453907  34.3479462  54.0665054  26.3906517  33.3460960
  54.4796028   1.0413318  18.2462254  54.4546585   0.2925961  18.8420486
  55.2629509   1.5269964  18.5045471   4.9412522  19.6157455   3.1443005
   5.7997804  19.3583145   3.4802935   4.6156392  18.8352337   2.6959598
  27.6315002  53.2488251  63.7262497  26.9186478  53.1253929  63.0994835
  27.2040520  53.5934219  64.5103226  16.9640522  59.8965263  65.5963821
  16.0254345  59.8338432  65.4194641  17.1610470  60.8298149  65.5164337
  21.5951557  59.7301750  11.3116388  21.4437389  60.5545616  10.8493729
  22.2307606  59.9506302  11.9925470  65.6031036   0.4948951  88.7773895
  66.1358871   0.7469727  88.0231781  65.2226181  -0.3481177  88.5308304
  11.8795671  69.5878754   8.5369587  12.5258026  68.8950043   8.4007959
  11.1630325  69.3674164   7.9418068  24.0025349  68.1910095  67.4591370
  23.2677574  67.8609543  66.9420319  24.7743435  67.7840118  67.0655746
  79.2795639  23.1486111  79.4116745  80.1521988  23.4374428  79.1446075
  78.9260483  23.8847084  79.9110947  57.9406357  50.8623009  74.4855423
  58.5740356  50.3163643  74.9513626  57.0959511  50.4436493  74.6512756
  46.2248344  45.0481491  84.6004181  46.0192146  44.9884033  85.5333633
  46.2153702  45.9867134  84.4126968  51.6951523  62.0241165  11.0132170
  51.7099304  62.9504280  11.2539740  51.5365410  61.5648041  11.8379030
  75.9850616  55.3672752  70.1277618  75.7253571  55.4983025  69.2158279
  75.3062973  55.8110924  70.6362305  13.9757538   1.6371758  17.0644398
  14.6987600   1.3028795  17.5952301  13.2412720   1.7033803  17.6746731
  39.8718910  23.8066406  14.9525928  39.6051712  22.8930664  15.0549335
  39.0922661  24.3111973  15.1846247  47.0738258  60.5577316  46.7117729
  46.6521950  61.4142265  46.7816010  47.9886894  60.7566643  46.5125694
  51.2277145  13.7461548  48.7903900  51.3272552  14.6371927  49.1256104
  50.6202621  13.8330956  48.0557632  86.3392105  65.8451004  60.8179970
  85.7748032  66.2417984  61.4815483  87.1595840  66.3346558  60.8776131
  50.8811569  22.9492874  58.0275497  50.3988724  22.3559952  58.6034279
  50.2013702  23.4399395  57.5656204  31.0338154  38.8421402  68.3269272
  30.7365227  39.7518921  68.3128052  31.2684746  38.6527176  67.4184723
  12.4089088  70.5708923  20.0656414  12.8460846  69.7495041  20.2902222
  11.6067104  70.3008347  19.6186771  24.2092552  65.2347565  31.8138809
  25.0956116  65.5849915  31.7247944  23.6486683  65.8953629  31.4069767
  72.1966171  65.6447525  43.8419075  72.6822357  65.2092972  43.1413498
  72.8115082  66.2871628  44.1960907  13.9771862  57.9651184  18.5184460
  13.4425154  57.3489952  18.0176945  13.5163002  58.8004341  18.4406109
  61.1323891  20.0799370  22.1269455  60.9693909  19.1477814  22.2709904
  62.0714226  20.1852951  22.2797508  73.9624176   2.3214674  63.0402107
  73.5795135   1.4673502  63.2404709  73.2191772   2.8588445  62.7662506
   6.4124317   6.3343968  43.2045403   6.0113964   6.4192615  42.3395538
   5.8844790   5.6713128  43.6493034  53.7249146  42.6969414  51.0594597
  52.8269310  42.8358078  51.3604164  53.8288612  43.3047943  50.3273773
  35.0510521  68.7989349  76.2166367  35.5315361  69.2492981  75.5219879
  34.2383270  69.2964630  76.3070755  36.8047943  13.2335110  76.0686188
  36.9029808  12.3065224  75.8511734  36.6882477  13.6668196  75.2231064
  36.9999123  48.1655464  42.0640984  37.5169487  47.3749123  42.2183762
  36.4951248  47.9713058  41.2743568  34.8172226  68.5104065  33.4356689
  34.6950111  68.2308273  32.5284042  35.4902000  67.9225693  33.7788582
  42.2670746  18.9237537   1.1663783  43.0916939  18.9421673   1.6520704
  41.7716675  18.2069664   1.5626338  24.7891884  61.8911896  10.5002956
  25.5234699  62.4982491  10.5927143  24.4049301  61.8450356  11.3757658
  73.0596313  10.1143770  13.8490505  73.3428268  11.0279551  13.8865776
  73.4482803   9.7760916  13.0423603   1.8604718  50.8246765  36.4354820
   1.8325555  51.4476318  35.7092781   2.6495433  51.0606308  36.9232559
  55.6071091  41.8278542   5.4109321  56.0111771  42.6559715   5.6701398
  54.8022652  42.0845871   4.9608865  58.7878151  12.3361387  27.9562054
  59.7146950  12.5347748  27.8232632  58.4685555  12.0905523  27.0878792
  16.5199852   6.7989264   3.6710253  16.5900784   6.1412420   2.9790931
  15.7388935   6.5463567   4.1633029  82.5155258  66.4318542  39.7494736
  83.4243469  66.1333389  39.7836342  82.2885895  66.6133194  40.6615067
  36.0101585  40.2422676  29.7485695  35.6197624  40.4487190  30.5978050
  36.3130226  39.3386116  29.8375187  36.1994934  54.1245956   8.7257195
  36.6366386  53.2900848   8.5562248  35.8259888  54.3752747   7.8808017
  70.7715302  17.7089043   2.5037115  70.0255737  17.4778690   1.9501804
  71.3906708  18.1303062   1.9076254  57.0966187   3.3031538  73.5268631
  57.1723480   2.7279608  72.7655182  56.4584961   3.9662504  73.2635498
  48.1753998  65.8984833  54.5229454  48.5779305  66.5452499  53.9433784
  47.9787254  65.1553421  53.9526062  68.1180344  29.2484226  64.5789185
  67.1817398  29.2444458  64.3800125  68.2022476  29.8443604  65.3232269
  66.6393280  39.3939323  22.2204399  66.4450302  38.4971161  22.4928493
  65.7866745  39.7656937  21.9945869  58.1858749  32.3236847  45.7471542
  58.5496941  31.4952793  46.0595818  58.5444183  32.4253845  44.8654900
  26.3171501  32.0403137  11.4483194  26.0949116  32.3661308  12.3204908
  27.1501389  31.5842266  11.5680933  54.5465508  20.4233799  10.3355236
  53.7994080  20.3865051   9.7383204  55.0160561  19.6033649  10.1826601
  70.0227051  18.4742584  53.8164139  69.8415833  19.0889034  53.1053314
  70.7053223  18.9012566  54.3340416  75.6963730  39.6313515  35.8061790
  75.6034317  38.7575607  35.4265938  74.7976227  39.9220123  35.9611130
  14.2753515  43.4568024  44.9823875  14.8304090  42.9216843  45.5496559
  14.6843271  44.3221512  44.9943733  60.5946655  41.6942902  11.7427883
  60.2124481  41.5125160  12.6013336  61.4415169  42.0956268  11.9377384
  51.0497398  12.5503254  86.4668579  51.6056061  11.9152174  86.0153198
  51.2150307  12.3948498  87.3967667  67.7248383  70.0731354  84.5242996
  67.8706894  69.2344055  84.0867157  68.0538788  69.9399185  85.4132462
  37.5339241  35.8756065  32.5878220  37.1256256  35.6685791  31.7471886
  38.1168938  35.1360817  32.7595215  82.1455536   0.6419687  85.6023941
  82.9669342   0.3802693  86.0184326  82.4048004   1.2894132  84.9467697
  76.6829987  43.7796440  55.1978378  76.3409958  42.8925934  55.0864372
  75.9034119  44.3335724  55.2383842  84.7788620  67.2396011  26.3934956
  84.6457291  67.6105423  27.2657948  85.6721344  66.8962097  26.4130287
  55.0351143  12.8060589  63.7986794  54.7486763  13.4072618  63.1111183
  55.9846382  12.9208498  63.8369217   5.8155222   8.2629366   4.1352811
   4.8912826   8.0294018   4.0488234   6.2413797   7.4541068   4.4193077
  30.7224560   0.7342387  45.7066422  30.8130398   1.6044904  45.3184547
  31.2029228   0.7892536  46.5326920  48.4454575  29.8239288  42.2522011
  48.7008209  30.5870323  41.7338448  49.0583649  29.8178024  42.9874115
  33.8184357  62.7366333   8.4221125  33.1738129  62.9131279   7.7368808
  33.8883705  63.5611534   8.9032640  44.9315720  -0.1557039  62.5197296
  44.7107887   0.6807781  62.1101151  45.2435760   0.0803565  63.3933220
  82.5642242  17.6598301  19.2532120  83.3236008  17.7240639  18.6740227
  82.8727570  18.0033970  20.0916615  67.1212692  40.5717430  30.5296593
  66.2781143  40.1957054  30.2768211  67.0673218  40.6627121  31.4809990
  48.4890556  21.0612545  24.6989422  49.2560158  20.7536163  25.1820202
  47.7510643  20.8811150  25.2813091  53.2600975  69.7901459   2.3953719
  52.8104935  70.1486969   3.1605709  53.1948471  70.4794464   1.7344353
  65.5184784  44.8952370  76.4733047  65.8774414  45.6627922  76.9185410
  64.5809631  45.0753708  76.4037094   7.0557728  52.5914574  20.2737560
   7.9371333  52.3120270  20.0260620   6.9641538  52.3147507  21.1854954
  14.6414108  58.5786934  32.6329269  15.3829489  58.4178772  33.2164459
  14.3918486  59.4861908  32.8072777  79.5651550  50.1782188  48.1498108
  80.4944077  49.9622421  48.2278137  79.2942810  50.3963318  49.0415993
  54.0724068  11.8317289  80.4805527  54.2570305  12.7636662  80.5973434
  54.1632652  11.4578848  81.3570328   5.4560871  39.1702499  62.0849190
   6.1737657  39.6288300  62.5218086   4.9371915  38.8014030  62.7997131
  32.0972481  60.1868286  38.9685211  31.6855583  60.8775101  39.4878464
  32.7015724  60.6507950  38.3890762  79.5688934  53.8593407  29.5391254
  79.9612427  53.3329277  30.2356796  78.7092667  54.1058350  29.8804779
  24.1397533  12.7043228  18.2826595  24.6742191  12.4099874  17.5451336
  24.2821980  13.6501570  18.3192673  84.8739700  28.8666420  77.2662048
  84.3765259  28.0891495  77.0126572  85.6766052  28.5207024  77.6565094
  11.3642502  37.1423798  85.3270721  12.0024719  36.6443787  85.8378601
  11.8809986  37.5554276  84.6352692  74.1503220   1.2815180  29.3700676
  75.0988617   1.1646466  29.4233932  73.9898453   2.1295719  29.7839317
  42.3804512  17.7708015  79.3563919  42.2416382  18.6365719  78.9724579
  42.6081200  17.2127361  78.6127777  70.7597427  45.4456482  38.0186348
  69.9453583  45.5248795  38.5153618  71.0047226  46.3482323  37.8147659
  62.2768898  19.5388603  14.5739841  61.6362267  20.2228870  14.7686291
  62.5395813  19.2055874  15.4319782  23.9338150   7.9817152  87.2048111
  23.8830032   7.0884385  86.8646469  24.6090145   8.4026031  86.6726532
  38.0161972   0.6687412  73.6609192  37.7768364   0.3056133  72.8082352
  37.9469109   1.6164453  73.5456467  23.9195137  55.8944931  56.9743958
  23.2422695  56.1030617  57.6178818  24.6355534  56.4967079  57.1765289
  28.8961544  51.7251968  50.6268044  28.0003281  51.3938675  50.6896400
  29.0160084  51.9166832  49.6966438   4.2776737  24.5759239  83.3897781
   4.5790496  24.5551338  82.4814987   3.7520819  23.7817364  83.4859772
   5.8742094  70.6866226  54.5146446   5.1770267  70.6194763  53.8622169
   6.5160489  70.0285034  54.2479019   1.5636653  43.1604233  70.7887802
   0.7141480  43.2192917  70.3516464   2.1496308  42.7959785  70.1254120
   2.5247414  47.3593178  75.0380096   2.5950584  46.6362190  75.6612396
   2.4488890  48.1408386  75.5854645  66.2218628  51.5767670  57.9128609
  67.0485916  51.8044319  58.3382111  65.6491928  52.3236961  58.0871468
  42.8416634  58.0913429  43.1733704  42.6127434  57.7499275  44.0378151
  43.0161819  59.0207748  43.3214569  36.0064964  22.7934322  75.0070953
  36.9406242  22.8191280  75.2144012  35.9657097  22.4052505  74.1330948
  81.6641693  24.5658703  81.2433548  80.8740845  24.0336628  81.3368759
  81.6798782  25.1114979  82.0296631  72.8643112  52.9684944  50.3162231
  72.6861801  53.8873520  50.1157265  72.4215317  52.8152809  51.1509094
  49.4373817  51.1776810  85.4216766  48.5955887  51.2729836  84.9761047
  49.8710251  50.4580688  84.9630432  68.1682129  21.3780746  83.7163162
  68.5878601  22.1419163  83.3204880  68.8880539  20.7704277  83.8860779
  67.9968185  10.5571432  32.8980637  67.2224960  10.5094538  32.3373566
  67.8057327  11.2676182  33.5103912  18.1595173   9.9118385  20.0973663
  17.7439537  10.7680845  20.1992588  17.5749531   9.3061533  20.5530663
  43.0357323  45.3367500  85.2919998  42.2972107  44.9940491  84.7886353
  42.8242226  45.1258087  86.2013931  25.8257618  40.7572136  32.0144920
  26.7283077  40.4419670  31.9669418  25.6202316  41.0308571  31.1205635
  22.9975433  44.9566803  65.8583908  22.4338970  44.3947830  65.3265991
  22.8247566  45.8417625  65.5374451  25.5846558  45.0796242  14.2138453
  25.2925301  44.5599518  13.4649563  26.4834805  45.3275490  13.9973259
  36.9375648  62.4059143  13.4266176  37.4867172  61.8036346  13.9285345
  37.5454216  62.8450317  12.8317080  43.2050781   0.9279151  73.3451920
  43.2425728   1.7217196  73.8787689  44.0988693   0.5857221  73.3618011
  47.8227844  44.9454842  67.6677933  47.6330147  45.1432838  66.7506790
  47.3195534  45.5929413  68.1615448  76.9141922  14.2456226   0.4840053
  77.3715286  13.4094162   0.3954864  77.1173630  14.5368128   1.3729144
  31.2774887  41.3731155  76.9011307  32.1182213  41.6176643  77.2879105
  30.7446194  41.0914764  77.6447449  82.3909607  49.3300400  56.9467583
  83.3300171  49.2714272  56.7707748  82.3355331  49.6512070  57.8467636
  35.0634460  39.8354340  43.9285126  35.9341812  40.1139069  44.2122421
  35.1873550  38.9372101  43.6218033  19.2301559  37.6337547  76.3070297
  18.5087032  37.1120300  75.9555511  19.0650616  37.6666756  77.2493134
  85.0077820  44.2596245  15.5900154  84.8931427  45.0724411  15.0976553
  85.4211197  44.5321121  16.4092464  41.2064705  49.9121208  23.5602112
  41.9778404  49.5508041  23.9968681  40.7496071  50.3996468  24.2456493
  56.5519447   2.1869307   5.9497366  57.3083801   2.4294441   5.4156713
  56.6438904   2.7093949   6.7464857  13.6613731   6.4230576  11.9724846
  13.9655209   7.3030977  12.1944218  12.7363386   6.5372143  11.7545137
  78.0680847   2.8169227  88.4508209  78.0352707   2.8050659  89.4073868
  77.4542084   2.1336057  88.1816177  73.7319717  13.1813364  23.1312962
  73.1743622  13.8632631  23.5058289  74.6219864  13.5204229  23.2268524
  71.8110580  33.0552635  10.7113771  72.0048065  32.8864403  11.6334362
  71.5004578  33.9604950  10.6937437  48.6420364  54.6834030   4.7307596
  49.2092094  53.9782677   5.0427394  49.2275429  55.4334679   4.6267638
  10.5962448  17.3814278   4.3392348  10.5889254  17.6090641   5.2689443
  11.5058880  17.5070457   4.0690460  73.6451340  15.6737642  48.7571030
  73.9010010  16.5311813  48.4171028  74.4695053  15.1953955  48.8454285
  55.0909920  29.0230713  84.1768494  54.4150352  29.1724148  83.5157776
  54.7019081  28.3878841  84.7779999  85.5247192  31.4477406  77.7163620
  84.9727249  30.6657639  77.7230606  86.1917496  31.2643967  77.0547867
  64.5682678  35.2964325  24.8720913  64.8921051  35.7477379  25.6516342
  65.1421356  34.5359039  24.7798977  80.7165527   3.2072713  54.5910873
  81.3976135   2.8884230  55.1833076  80.0415649   2.5289967  54.6150246
  28.4766502   6.0368481   9.5304899  29.3180733   6.3872185   9.8228579
  27.8652687   6.7663817   9.6316071  28.2794094  22.3203487   4.1626463
  29.1584187  22.0124607   3.9417849  28.0379562  21.8175926   4.9405723
  32.4951019  43.0347557  29.1512222  31.5862331  42.9324646  28.8688602
  32.9666901  43.2817764  28.3557262  86.2214966  55.9806480  76.8430862
  85.7840805  56.8048058  76.6294022  85.9606857  55.7980995  77.7457962
  60.9028397  37.2293816  39.3599358  60.8532829  38.1472816  39.0930328
  60.5012741  36.7476616  38.6367989  32.6443024  67.6156845  45.1671448
  32.0036430  68.3260651  45.1332741  32.7113113  67.3102493  44.2624626
  49.0248299  60.7800293  57.3014946  48.5367775  60.9121284  58.1142616
  48.4978294  60.1541786  56.8046875  84.0146713  50.8479576  73.9556503
  84.1236649  51.1681519  73.0602036  84.5277328  51.4535522  74.4906845
  76.9919052  56.0938835  57.7414322  76.3913879  55.9142227  58.4648476
  76.7255478  55.4853210  57.0522728  77.2842789  11.2308340  55.6897354
  78.1949768  11.1614199  55.9761810  76.9892197  10.3239489  55.6076813
  33.5992088  32.8717728  11.6357231  33.0274620  32.6619759  12.3741808
  33.5664902  33.8262291  11.5710964  68.4842682  65.7261276  81.6169052
  69.1065598  65.1237717  82.0245285  68.0912170  65.2196655  80.9061050
  53.3052254  42.3072166  85.8527145  52.4700584  42.3085365  85.3850403
  53.9211731  41.9026375  85.2418442  65.7250748  62.2394753  67.7125931
  65.7339706  62.8919334  67.0122681  65.7977295  62.7516022  68.5180054
  82.5127029  46.1990013  44.0499077  81.8848572  46.7690735  43.6059875
  82.2042236  46.1621361  44.9552917  50.4656143  10.9116087   9.5186424
  50.9838638  10.8598671  10.3217440  49.6795959  11.3957777   9.7715931
  46.1461525  43.8747253  51.0288696  45.3688049  43.8258095  51.5852623
  46.5433502  44.7181473  51.2459030  20.3985386  38.0696220   4.7230773
  20.1394558  38.9416580   4.4253101  19.6056671  37.5407829   4.6341295
  59.3515930  49.5347710  77.5809021  59.3632851  48.6024055  77.3645935
  58.4557304  49.7014427  77.8739548  19.5089531  40.6419792  55.5618362
  19.0445709  40.7830009  56.3868752  20.1428909  41.3578491  55.5184135
  47.4667130   8.5100288  82.0577316  48.2495155   8.2256203  81.5859680
  47.7869186   9.1601067  82.6831131  78.2451019  63.6559677   7.4578118
  78.3145905  64.1370392   8.2824163  77.6246262  64.1643295   6.9354987
   2.5725515  51.0950928  15.1903658   2.6298501  50.1820335  15.4719114
   3.3910182  51.2523918  14.7196198  75.5295563  20.4498272  42.7824860
  74.8908005  19.7395878  42.7209358  75.0200348  21.2054977  43.0750351
  28.2870865   0.6891394  29.2559872  28.5749035   1.2093201  30.0061893
  29.0820866   0.5511943  28.7410336   1.1653663  11.1482515  26.0714817
   1.2736055  10.3235826  26.5452309   0.7767972  11.7435074  26.7125111
   3.7005081  56.4714508   5.1060510   4.5999217  56.6163406   5.3998084
   3.2660930  56.0652237   5.8560481  64.6429901   1.6494023  27.6839447
  63.8688164   1.2868209  27.2533360  64.3461990   2.4836760  28.0474529
  63.3932114  33.2519798  27.0275478  63.9846306  32.5435753  26.7733440
  62.5674782  33.0429420  26.5908585  65.3209915   4.8656106  77.0784302
  66.0924759   5.0261760  77.6218185  64.7617493   4.3049722  77.6161728
  26.9883480  35.1292343   9.1842556  26.6590786  35.7450294   8.5295725
  26.6307011  35.4470825  10.0132866   1.0755297  53.7471123   0.4577901
   1.2421005  54.4845848   1.0448319   0.6307065  54.1361237  -0.2952265
  38.8379974  18.9955711  79.4971390  39.1738243  18.3621292  80.1313324
  39.2961006  19.8096275  79.7061462  83.6062927  36.9932442  36.8285446
  82.7510681  37.2124290  37.1983871  83.4665680  36.1594124  36.3797302
  31.1455746  59.2216911  65.6695175  30.5898895  59.7760811  66.2173309
  31.8792400  59.7855759  65.4245682  19.1714268  69.7435684  33.6411629
  18.5347462  69.8686676  32.9374428  18.6531906  69.7922211  34.4444656
  55.3851204  43.6168823  36.4208717  55.9282722  42.8321152  36.4940872
  55.1468124  43.8282967  37.3235054  61.7364235   5.8474789  69.6469498
  62.1283073   6.7066107  69.8036423  61.5074730   5.8545661  68.7175598
  63.7285309   0.0302827  75.6460648  63.1624146   0.7960151  75.5491257
  63.7641449  -0.1232692  76.5901947  60.5247765   7.3599958  16.8547230
  61.4142838   7.1224365  16.5928478  60.6298714   8.1719980  17.3505440
  76.5761337  38.5999603   9.3911200  76.1502151  39.1358376   8.7220497
  77.4544983  38.9716072   9.4722805   2.4577184  15.7673225  35.9758453
   2.8635476  15.3573713  36.7397003   1.8808277  16.4376774  36.3419800
  44.8098755  42.7101746   7.4211073  45.2452087  43.1578941   8.1465502
  44.9048157  43.3076782   6.6793480  73.6411133  43.7161903  76.3407822
  73.2927170  44.0758781  75.5250092  73.0327454  44.0187225  77.0150223
   1.4198122  49.0175400  20.1619549   1.1290550  49.8316917  19.7510433
   0.6473535  48.6940460  20.6255169  53.3128166  17.6569176  43.5932579
  54.2296906  17.9290066  43.5539780  53.1311913  17.5613384  44.5281944
  73.8252258  12.7112007  14.0249205  73.1047134  13.3021040  14.2438364
  74.4360199  13.2530584  13.5253668   5.0753474  71.2044220  20.8039627
   4.1437659  71.1238174  21.0086327   5.5166049  71.0839386  21.6448002
  61.1722794  55.1893845  13.4550533  61.4794350  54.3565598  13.0968695
  60.2279053  55.1834793  13.2990055   9.2062969  63.3371811  14.2245045
   9.4952364  63.0474205  13.3591814   8.5306787  63.9910278  14.0449057
  20.4001446  64.4241714  64.8574219  21.3385925  64.5862579  64.7611084
  20.2424603  63.6244888  64.3555527  37.3766937  32.3250542   2.3971119
  37.7673950  31.4808884   2.1713514  36.4544830  32.2339172   2.1574197
  81.4239731  44.9069176  19.5446320  82.1008530  44.3745117  19.9624863
  81.3961716  44.5928612  18.6408482  51.4553757  57.7025185  83.5848160
  51.6074181  57.3365517  84.4561310  50.5147591  57.5976067  83.4417648
  57.6867142  52.0443153  56.5682869  57.6526451  51.2831879  57.1477318
  57.6705666  51.6743011  55.6856461  77.0095901  39.5271950  31.5639496
  76.2684860  39.9285545  31.1101665  77.5466995  40.2673531  31.8466263
  36.6240730  41.4445267   1.9825637  37.5286255  41.5246696   1.6799216
  36.0957909  41.5691986   1.1941446  66.2008667   7.7093210  87.5209427
  66.4535522   7.2478900  88.3206100  65.2467880   7.6369686  87.4939804
  63.9226875  56.1948471  22.4687901  63.8221169  55.2844315  22.1908340
  63.1244774  56.6274300  22.1655331  76.7857361  48.3638535  48.4057236
  77.6460342  48.3442802  48.8249321  76.1866608  48.6359024  49.1009483
  32.5146446  62.3506622  21.0816288  32.2307777  62.5957489  20.2009563
  31.8052769  62.6455383  21.6526642  50.1569176  15.0754871  83.1264725
  49.5031891  15.0486603  82.4277954  50.5646973  15.9371519  83.0399780
  17.1725636  33.7055740  62.0826149  16.6675949  34.2811394  62.6570396
  16.8152847  32.8324013  62.2443237   0.8539945  69.1158600  69.5894318
   0.7600066  70.0600586  69.4634018   1.4661390  68.8427734  68.9061050
   6.3256083  29.0147591  88.7628479   5.5193620  29.3762283  88.3946915
   6.2781749  29.2246628  89.6955414  11.4105597   3.9371572  29.5302944
  11.9370575   4.1561589  28.7614822  11.6511669   3.0338025  29.7359409
  64.2635269   7.7577577  23.7241554  64.0731888   8.5042400  24.2922802
  64.1428528   6.9922566  24.2860069  23.1859550  55.7747116  52.2068100
  22.9287815  55.6058655  51.3003960  24.0430622  56.1953011  52.1382103
  51.4117393  47.7279968  72.0635071  50.8186951  48.2322578  72.6205063
  51.4928017  48.2502251  71.2654266  59.3999100  34.9529381  85.4174042
  59.1614838  34.0303116  85.3271561  59.3593063  35.1198044  86.3590775
  40.6035767  12.1352577   6.5369582  41.3650246  11.7279129   6.9498720
  39.8952484  12.0151672   7.1694784  69.8883514  64.7501144  20.0983582
  70.1568527  64.2883682  19.3040504  70.4586258  65.5180969  20.1333141
  13.5283413  10.6418905  81.3320389  13.6161461  10.3616924  82.2430878
  14.4153728  10.5837784  80.9770355  50.9029579   8.7460594  80.9153976
  50.7613716   7.8957758  80.4992218  51.6911659   8.6252708  81.4448929
  67.5624084  13.5707273  37.7251434  67.8204880  14.4902716  37.7889252
  66.7706070  13.5065899  38.2591515  13.2765675  69.5875244  45.5086288
  13.6912107  70.0046539  44.7534409  13.1284838  68.6833725  45.2314949
  38.5787964  52.2701988  73.8160782  37.8552971  51.6704483  73.6342087
  38.6979790  52.2210617  74.7645569  71.7098846  43.8127327  30.6285477
  72.3288956  43.3911018  30.0324936  71.2399063  44.4412308  30.0805130
  61.4006996  54.0200500  21.4164391  61.2647743  54.4625778  22.2542496
  60.7761574  53.2947121  21.4245930  40.2953072   2.4559710  77.0473785
  39.8291016   3.0498612  76.4590073  39.7781334   2.4619062  77.8528137
  43.8599586  69.1676865  87.7004166  44.3276672  69.8705063  87.2492828
  43.6523018  68.5370712  87.0109024  36.6952553   6.6101775  85.9213562
  36.7206154   6.5870142  84.9647675  36.9355850   7.5091653  86.1456223
  66.9355316  62.2979774  54.9718170  66.9808197  62.7843246  54.1486206
  67.0758362  61.3855095  54.7189445  60.8490715  38.4920349  35.7774162
  61.7405891  38.2532425  36.0312042  60.9354057  38.8251495  34.8842163
  49.5129356  65.4173203  79.9256439  49.3824501  66.3647614  79.9651489
  50.4244652  65.2899170  80.1885376  49.0681305  16.7456703  66.1293411
  49.1799164  17.5625420  66.6156082  49.3704491  16.9503708  65.2445068
  46.0905685  19.0182667  63.1064873  46.8765030  19.2418633  63.6050301
  46.2623215  18.1386261  62.7703857  39.9126472   1.3080916  41.9411888
  39.6783447   0.4541655  41.5776711  40.0564919   1.1406076  42.8725777
   2.7949841   2.6531429  59.6946678   1.9811270   2.2174027  59.9476509
   2.6936269   2.8250821  58.7585106  17.9450397  47.7142563  19.0703640
  17.8210640  47.4044037  19.9675026  18.8372536  48.0607071  19.0577679
  76.1021194  41.5606422   0.0760942  76.3165817  42.3150711  -0.4726080
  76.8736420  41.4400558   0.6296715  12.4866142  42.0974312  62.1634598
  11.9700947  42.2667732  62.9513474  12.0486698  41.3564758  61.7446251
  15.3145075  55.9633827  31.9967785  14.5712118  55.4691963  31.6510563
  14.9169645  56.6958542  32.4676056  76.7304688  65.0436935   5.4058247
  76.1831818  65.0954285   4.6222205  76.4879150  65.8146362   5.9187016
  49.9525757  59.0548592  19.4710617  50.0525513  58.7282524  20.3652458
  50.7137299  58.7105484  19.0038071  40.6015320  31.2854652   1.2904717
  41.2421036  30.5873184   1.1544869  40.7388916  31.5634956   2.1960454
  14.6987696  12.3122606  73.2010269  14.0539379  12.9582052  72.9126205
  15.3731489  12.3273325  72.5219040  39.2403221   2.0573068  11.9019060
  39.3219833   1.6134207  11.0577917  39.1719780   1.3473200  12.5402470
  69.0322189  21.2570000  10.0248270  69.2157822  20.3433533  10.2434254
  69.8544159  21.5862541   9.6617661  27.2077179   5.3675404   7.0380278
  26.4969158   5.0700579   7.6059136  27.8836021   5.6756983   7.6417255
  78.7501450  50.2618370  11.2125196  78.1192703  49.8089676  10.6529284
  79.3492050  50.6896019  10.6006594  69.3285828  19.8356400  81.2238541
  69.0611420  19.0013771  81.6094894  70.2852097  19.8026943  81.2215042
  60.2800903  24.1070633  15.3788939  59.5463219  23.5212784  15.1926975
  59.9177284  24.9864883  15.2714739  44.6751175   2.1774111   4.1091642
  44.7295990   1.4900422   4.7730827  45.2138710   1.8555446   3.3864055
  75.0020447   3.6019220  71.9119186  75.6416397   3.9641790  71.2987900
  74.6297073   2.8491461  71.4526520  25.1794624  50.8746910  37.3441162
  26.0973186  51.0027237  37.1045723  24.9402714  50.0410309  36.9391022
  56.8331795  34.6890907  78.5124588  56.4298897  35.5140572  78.7826767
  57.1994820  34.3261108  79.3188705  46.0465202  50.6005669   5.1189318
  46.2910728  49.6774178   5.0539713  46.7180977  51.0621567   4.6167870
  20.3683949  53.9632263  54.2979698  20.3750877  53.0066223  54.2648392
  21.2597160  54.2002525  54.5540924  77.6943741  51.9523888  47.1698074
  77.1104050  52.1002121  47.9136848  78.4264908  51.4555817  47.5350800
  39.5455093  62.6272659   3.0628037  39.5994644  63.5268326   2.7401583
  40.2377968  62.1623421   2.5928936  16.0823841  53.8830452  12.2474632
  16.1893578  54.5483971  12.9272385  16.4404774  53.0845871  12.6353674
   0.2772727  39.4125061  84.5011902   0.6712070  39.3824730  85.3730545
   0.8656574  38.8918266  83.9544449  55.6575928  21.9523201  64.1950073
  55.3624725  22.4735527  63.4483757  55.0873108  21.1835575  64.1907959
  64.6732635  63.9150391  75.5652924  64.4287338  64.7812653  75.2395706
  64.7079315  63.3656960  74.7821884  23.9830189  54.2053490  66.9701233
  23.4543514  53.4127579  67.0625381  23.3474827  54.9208412  66.9900742
  45.5350342  55.3151512  46.4976425  45.3039856  56.2289124  46.6646538
  46.2472343  55.1323280  47.1104851   9.5050669   9.9022541  78.5488968
   9.3893433   9.1145630  79.0802917  10.1517649   9.6529179  77.8887100
  33.5878143  22.3241482  15.0715427  33.3124542  23.1216927  14.6195107
  34.4586067  22.5300159  15.4114923   0.4607539   5.4934154   7.4965000
   0.3256853   4.8639493   8.2048512   0.6174542   4.9527798   6.7222972
  62.1004829  23.3240128  71.2313614  61.9232903  22.3897133  71.3405533
  61.3568153  23.6512947  70.7253189  38.1745644  42.0750618  83.0516510
  39.1202927  41.9522438  83.1338120  38.0628395  42.5191460  82.2110977
  84.1894531  33.2363930  79.0615082  84.6089630  32.6429482  78.4385605
  84.0663986  34.0496559  78.5719299  83.3480225  59.6696205  88.5158844
  83.9099426  58.9159737  88.6961594  83.2470856  60.1014748  89.3641434
  70.1403732  12.3882818  26.6146545  69.3933487  11.8632021  26.3274460
  70.9067230  11.8891687  26.3321266  69.5955048   1.6297368  34.3987465
  70.1719971   1.4754150  35.1471291  69.4401550   0.7591083  34.0325432
  84.5726242   1.3175740  33.0873222  85.3184204   1.5789517  32.5472221
  84.5253983   0.3668702  32.9865036  19.4193687   1.1293200  15.5253782
  20.1903324   1.3861716  16.0312176  19.6364098   0.2628652  15.1813135
  23.8276920  35.1856956  71.4183426  23.9269333  35.6054840  70.5638504
  23.0613842  35.6088753  71.8055420  75.4708481  64.0581818  13.7089577
  76.1776962  63.4144783  13.7562895  75.9111786  64.9039917  13.7923107
  56.2245560  44.8164597   6.0619173  56.9785576  45.2908401   5.7116666
  55.4682541  45.2227631   5.6386499  20.8812294  58.3891716  43.8014297
  20.9726048  57.4371376  43.8403282  21.7034435  58.7235413  44.1597519
  31.5642128  22.5151958  85.6426468  31.8780060  23.3041573  86.0845795
  31.1020584  22.8410339  84.8703308  11.8104944  14.9803257  26.9382000
  11.8535156  15.9362707  26.9616413  10.9277544  14.7727118  27.2446289
  63.9598732   2.7004189   1.1914207  64.7157211   2.2301188   0.8396406
  63.5560074   3.1107886   0.4267501  73.5489502  60.8131714  41.7425804
  73.4457016  60.7413788  40.7936745  73.5415802  59.9078979  42.0534782
  62.2490196  52.9595909  62.7373619  62.2135963  52.9481201  63.6938362
  62.6656761  53.7942886  62.5231056   8.1792374   0.8550326  84.8339005
   8.2953968   1.0176775  83.8978043   8.2286482   1.7224351  85.2356491
  77.8116837  11.7622375  86.4706726  77.2592773  11.3753271  87.1499252
  77.2051544  12.2629538  85.9251099  75.1651230  22.2937489  65.3920746
  74.3719406  22.8123608  65.5267563  75.0659332  21.5467091  65.9822617
  61.4838486   3.4081736  43.7656174  62.0568924   3.5412736  44.5206871
  61.1305542   2.5266733  43.8854980  39.0935860  50.0338554  47.7725105
  38.9272079  49.1002731  47.9027748  39.7495155  50.2547874  48.4337044
   9.7816439  21.3651009   4.5737233   9.8440351  20.9498367   3.7135522
   9.0220299  21.9435616   4.5058913  85.8821793  67.3104172  22.5102596
  86.2748871  67.7953568  23.2360992  86.4964600  67.4253998  21.7852287
  55.3351517  33.6503258   9.1975794  55.8740730  33.4737701   9.9686966
  55.1032639  32.7836571   8.8638964  38.3680458   1.4528209  26.1247520
  37.6789055   1.5647871  26.7795677  37.8998489   1.2314757  25.3197479
  73.3517227  26.4912815  27.7611084  72.5978470  26.5367432  28.3491879
  74.0593262  26.1454334  28.3050919   4.1795759  32.5468750  17.2745724
   4.4737644  32.8641396  18.1284046   4.6663322  33.0752487  16.6420212
   7.2992568  66.5883026  52.4299355   7.6469712  67.3523407  52.8899117
   6.9774280  66.0155869  53.1261063  43.8762093  20.3373547  14.3534336
  44.1533432  20.1567688  15.2516651  44.5598297  19.9471054  13.8088226
  49.6508484  58.7683525  11.0691328  48.7704926  59.0511703  10.8217096
  50.2106972  59.0772629  10.3568296  31.8965950  56.9481659  66.9054565
  31.9792786  57.2838860  67.7980270  31.4248600  57.6348000  66.4340363
  54.2882919  51.0839958  14.5943365  54.2563171  50.6822014  15.4625349
  54.9354210  50.5668297  14.1147614  47.7265091  55.2309151  83.0345154
  48.2301407  55.7766953  82.4306030  47.7899628  54.3483467  82.6694489
  64.3447723  50.5589218  74.6080093  63.7796478  50.7341805  75.3604355
  65.1783371  50.9721107  74.8331375  15.7529411  21.5258865   4.1660666
  16.6399288  21.3740940   3.8398099  15.8520336  22.2240677   4.8133340
  66.9200668  19.0116596   1.6005759  66.4996567  18.1748180   1.7985319
  67.8292999  18.7831516   1.4074155  69.1777420  48.1220665  52.9594612
  68.5079498  48.2705269  53.6269722  70.0043869  48.3113441  53.4033775
   1.5239124  46.2843094   3.3816431   1.2424878  45.4011536   3.6205330
   0.8662551  46.8593102   3.7729170  11.5766029  29.0393219  60.0095901
  10.7096415  28.7467537  60.2906799  12.1215439  28.9603767  60.7925568
  61.3192863  10.7523737  79.2692871  61.9050446  10.1268415  78.8428726
  61.8743629  11.5084314  79.4603271  66.9933319  43.5698509  10.4391327
  66.5104599  43.0704117   9.7806292  67.8921432  43.2474136  10.3727531
  16.1797390   3.2712986  71.8189316  16.4750824   3.4244318  70.9214020
  15.5772142   2.5307519  71.7497482  72.5815201  42.5812416  16.5331287
  72.8275681  43.4951401  16.6762543  71.6331711  42.6056747  16.4055939
  53.1721039   3.8412857  66.0695877  53.2758026   2.9599423  65.7108231
  53.1421013   4.4108119  65.3008347  62.2182083  42.6478157  69.3723068
  63.0086517  42.1205559  69.4881821  61.8823547  42.3904343  68.5137100
  67.7975082  42.8866615   1.5573276  68.6643143  42.8771973   1.9632645
  67.1922836  42.7253876   2.2811546  16.4711285  36.7462883  24.1921768
  15.7059374  36.5773354  23.6424770  16.1224613  36.7847023  25.0827866
  69.8461685  69.7809982  52.9650459  69.1715698  69.7766953  52.2859802
  69.6905899  70.5902100  53.4520836  50.7401619   9.4090137  17.4942379
  50.9406548   9.5384912  18.4212055  51.3542061   8.7325602  17.2085915
  16.8182964  51.3106804  52.8262215  16.9046135  50.3673096  52.6889839
  15.9078722  51.4311371  53.0961266  70.4777222   1.1887096  83.8145065
  70.5383606   0.3077056  83.4451981  69.9188080   1.0875005  84.5849609
  50.8149109  27.1035233  19.7789040  51.1273079  26.2336407  19.5300159
  51.2771263  27.7012119  19.1912365  13.7340508  27.6060543  73.0979538
  14.1257744  28.1940804  72.4521866  13.6569920  26.7675724  72.6427155
  19.1683273  16.8149166  77.3682632  19.2813873  15.8670235  77.2979126
  18.3007565  16.9244041  77.7575760  54.2140884  16.9689484  36.2351341
  53.9122658  16.1931114  36.7075882  53.4101372  17.4130573  35.9655762
  25.1151199  44.8602333  38.0337105  25.1997719  44.3822823  38.8587151
  25.9788971  44.7910309  37.6271019  15.3121138  36.0964775   5.7306805
  15.0611773  35.8606682   4.8375645  14.4817657  36.2638245   6.1764946
  52.3420525  22.4189358  53.4911156  53.1527977  21.9622345  53.2667389
  51.9867477  22.7038174  52.6491928  12.4648914  17.8518410  26.8441696
  12.6639843  17.6040745  25.9412823  12.0242167  18.6982059  26.7686615
  56.4982986  46.1909714  76.5475464  55.9052658  45.9169807  77.2471695
  56.9635162  45.3915482  76.3011246  19.9105740  46.4451408  59.1817131
  19.7163601  46.6514893  58.2674217  20.1649857  47.2833481  59.5676041
  59.8571053  18.7810879  25.3776054  60.3757553  19.5344505  25.6598797
  58.9621124  19.1152534  25.3180141   9.8841066  28.0543003  28.8220749
  10.3633804  27.8882656  28.0103111   9.0603800  27.5785465  28.7154694
  36.4790497  44.3508224  21.7324791  35.8119926  44.9574776  22.0537834
  36.5214958  43.6660652  22.3999672  76.5211945  19.6572514  56.9865303
  75.8154068  20.2678432  57.1993027  76.3147278  19.3508224  56.1035233
  35.7373695   7.6071024  40.3385124  35.0241013   8.1329365  40.7004166
  35.9765968   7.0085688  41.0461578  30.0860958  40.6577873  79.2655945
  29.4030991  40.1849327  79.7411499  30.2138882  41.4627876  79.7674637
  65.7234116  12.3674297  66.6582718  65.8225174  13.0925713  66.0413589
  65.7567902  11.5820541  66.1120987   2.6561124  42.8500061  65.7996292
   2.3454762  43.5937271  65.2832794   2.2863293  42.9922562  66.6709824
  34.9037056  44.1764565  81.4804153  34.6100578  44.4043846  82.3624878
  34.5247498  43.3126869  81.3175507  28.2009640  48.4541931  62.3200455
  27.3842144  48.0289421  62.0586853  28.7979622  47.7303352  62.5093880
  66.8901291  68.1291122  55.5313377  67.0448532  67.2678986  55.9194145
  67.0012283  67.9913864  54.5906372  17.4335213  61.1945229   8.1766376
  17.5720673  60.2481003   8.2129679  18.3005161  61.5696106   8.3311148
  57.9023781  21.4098759  46.0801697  58.5376892  21.0530930  46.7009087
  57.0518303  21.2480965  46.4883652  27.4901619  49.5817566  52.9882088
  28.1467381  49.3170433  53.6324654  27.4434586  50.5341988  53.0712967
  59.5024986  23.4167175  24.6424408  59.8221550  22.5629196  24.9341259
  59.5130119  23.3627014  23.6868229  33.2146149  67.2088089  39.0158310
  33.0673714  68.1546097  39.0124512  33.6191177  67.0263519  38.1677017
  51.8889351  14.3913116   7.2966142  52.5867348  14.8711605   6.8504572
  52.0792694  13.4704380   7.1177392  55.0974083  22.3758640  66.8143692
  55.3525047  22.2517471  65.9001770  54.7549706  23.2690716  66.8483276
  45.5769691  35.7751579  -0.0733733  45.8401337  35.2734604   0.6981664
  46.1458092  36.5449409  -0.0639913  82.0400085  39.8907623  67.2173080
  81.1165237  39.9975357  66.9892502  82.4778442  39.7408371  66.3794250
   2.1718814  39.2792664   8.6409922   2.6926513  39.5872574   7.8992567
   1.3295449  39.7232285   8.5430260  83.0570297  17.3048725  55.2506714
  83.3583527  16.9983578  54.3954010  83.7236633  16.9960861  55.8642540
  10.9781628  31.8560715  24.8764553  11.0445728  31.5184402  25.7696667
  11.8088627  31.6146011  24.4667473  38.5582924  26.1545258   0.2682677
  39.0883369  25.4587212   0.6570347  37.8248482  26.2635117   0.8735912
  45.8230476  19.6580658  16.4963551  46.5796013  19.8155651  15.9315100
  46.1161880  18.9808807  17.1060429  84.0888290  58.8116302  12.0623932
  84.3675842  59.7208519  12.1712017  84.4247665  58.5594101  11.2023001
  71.5014420  49.8167610  58.0450745  70.8112793  49.6622734  57.4000587
  71.5561676  48.9980888  58.5380325  74.0234680  18.1690979  59.7884102
  74.9774857  18.0920296  59.8001022  73.8118134  18.6456013  60.5911407
  15.8974867  39.8351784  67.0906754  15.8009224  38.9077339  66.8744583
  16.6600266  39.8683167  67.6683121  50.2620392   1.8603092  72.6926346
  51.0888329   2.2894027  72.4723434  50.5221100   1.0352290  73.1023178
  74.7787170  54.1276627  76.0107269  75.6339798  54.2483826  76.4232712
  74.7999573  54.6997185  75.2435684  38.8214149  58.4331703  11.5356035
  39.6226158  58.4743767  11.0134773  38.7738152  57.5235672  11.8298655
  49.0127220  24.8762589  40.6700554  49.0924950  25.7609997  40.3135452
  49.3655548  24.9428635  41.5573578  82.8176498  11.2007093  86.3235397
  83.0108871  11.6086073  85.4794312  81.9881668  10.7437277  86.1844254
  80.5334091  36.2201424   9.6155939  80.4358597  36.9013939  10.2808828
  81.1701584  36.5786018   8.9972982  55.3478355  53.1995430   5.4476562
  54.9084435  53.8555107   5.9888349  55.3213615  53.5626564   4.5623989
  67.1506500  24.6878948  27.7692261  66.4983368  23.9932041  27.8593788
  67.9729767  24.2249527  27.6089306  84.9878769  40.5039215  39.8930511
  85.8166885  40.0445786  40.0283585  84.5432129  40.4498787  40.7389717
  68.2043152   3.9859710  86.4276047  68.7941208   3.8227088  85.6916046
  68.3645325   4.8993487  86.6648865  40.7765083  49.2459183  12.4747210
  40.0265808  49.1646805  11.8854485  41.3021507  48.4647141  12.3025227
  74.7550583  66.8684845  80.6406174  74.9197693  66.8383560  81.5830612
  75.6026611  67.0924606  80.2563858  45.1340942  65.4857101  59.4398346
  45.9693260  65.0886536  59.1929283  45.3272171  66.4198380  59.5194626
  26.6775017  39.1881447  83.7724228  26.1956463  38.4065170  84.0428085
  26.1624012  39.5494766  83.0510788  83.8316727  58.0659370  52.4753189
  84.3032150  58.6295280  51.8619308  83.6071930  57.2892494  51.9628792
  54.3485527  14.5945692  11.8088789  54.8593788  14.0357542  11.2232056
  53.5111275  14.7099447  11.3598347  70.5452652  53.4496803  52.5794144
  70.3190536  53.0780373  53.4320259  70.9404373  54.2969894  52.7846947
  76.9581223  41.8569183  18.8304310  77.0927124  40.9105682  18.7800655
  77.7711868  42.1948280  19.2059040  34.4712067  69.9931030  53.0330658
  33.8412514  70.6203537  52.6781883  34.1281319  69.7730484  53.8991547
  28.0689697  35.2988281  14.5515013  27.9192295  35.6389847  15.4336042
  28.7312050  34.6173706  14.6667967  48.4682846  53.7963562  13.2762165
  48.8309097  54.1557236  12.4665308  48.4222069  54.5449333  13.8709764
  75.7491989  17.0011177  41.8659706  76.2845078  16.5138912  41.2396431
  76.3718338  17.3092728  42.5244484  62.2586555  33.2880478  40.6559944
  62.4533157  34.0484695  41.2038040  62.3333549  33.6136436  39.7589798
  18.8449287  64.6520386   2.2485282  18.3946362  64.3175354   3.0241427
  18.2350502  64.4897003   1.5288574  11.4676619   1.3279533  12.9038010
  11.2845793   2.2447429  12.6983509  11.2415743   0.8534606  12.1038179
  40.2295609  28.1042843  79.5090561  41.0339012  28.4187527  79.9218216
  39.5448914  28.2788925  80.1547852  79.1733017  58.8682632  88.4239502
  79.5622482  59.4771004  87.7960434  79.7783813  58.1268692  88.4449997
  46.8693695  65.1781387  38.5305176  47.3718872  65.1978302  37.7160721
  45.9601593  65.2920990  38.2537804  38.3639145  50.2368469  21.0936050
  37.8649368  49.9490776  20.3291149  37.9770737  49.7576294  21.8263645
  35.5340042  58.8475304  89.1967163  35.3348007  57.9624557  89.5019989
  36.3142357  58.7431183  88.6521378  24.2376060  43.3671379  18.6044483
  24.9194260  43.7629547  18.0616016  24.3937950  42.4252396  18.5361671
  60.9341507  69.1939316  34.4976120  60.7603302  69.9993820  34.9847069
  60.0719452  68.9025650  34.2010612  29.1790180  23.4283943  16.3990135
  30.0231056  23.8155060  16.1668644  29.3752041  22.5056667  16.5612392
  63.0959167  24.1258640  49.1755524  62.1646500  23.9410992  49.0537453
  63.5404358  23.3473282  48.8401184  49.7623901  16.1602039  60.2153053
  49.6887016  16.3299847  59.2761688  49.2768364  16.8751621  60.6267738
  52.9426231  19.2651234  79.3706818  53.4273071  18.4464169  79.2656403
  52.0289497  18.9931622  79.4570770  32.4606285  29.6249866   1.9467329
  33.0163918  28.8469028   1.9026731  31.5673943  29.2810764   1.9563795
   4.0174026  11.2594757  22.6946812   4.8428669  11.5536737  23.0797634
   3.9845796  10.3221254  22.8858109  65.8070679   4.4809971  37.7264214
  66.1718903   4.3148775  38.5956383  64.8832397   4.6731915  37.8871384
   0.5439789  59.5526276  68.3441849   0.8045141  58.7393227  67.9118805
   0.1951458  60.0976715  67.6388702  69.8405457   9.0838346  38.5542107
  70.1062241   8.9005280  37.6530762  69.0454788   8.5657797  38.6795959
  68.9096756  54.0430756  39.6976967  68.2804031  54.7358551  39.8984680
  68.3700714  53.2700043  39.5321007  66.0652847  48.8132019  68.2535553
  65.5873489  49.0723228  69.0413818  65.4070129  48.3899460  67.7024155
  44.9979134   4.1167836  26.6877804  44.9693222   3.3806491  26.0766182
  44.6406822   3.7650964  27.5032158  55.8536987   9.2662439  36.9823074
  55.3382759   8.5795202  37.4053726  55.7819138   9.0775394  36.0466423
  64.4756012  20.6805763  51.1875114  64.6680984  19.7441921  51.2360878
  64.9201660  21.0562248  51.9474335  36.2675743   9.5201111   7.8144231
  36.2012520   9.5937843   6.8623695  37.0613327  10.0063066   8.0375595
   6.6662364  66.7592773  72.2494965   7.2537656  66.6227112  71.5062714
   7.0401497  67.5066681  72.7162094   2.2921784  41.1633186  61.7657890
   2.6036825  40.6632843  61.0113602   1.3973589  40.8534889  61.9055595
  48.0187798  63.4686546   9.1090164  48.4285889  63.7798157   9.9161530
  48.5364151  63.8662605   8.4088745   1.0006154  37.2596626   9.8243475
   1.1400934  38.0290375   9.2722216   1.8820573  36.9393692  10.0159264
  38.6960411  35.7550163  72.8239746  39.2928391  35.0855179  72.4895477
  38.7732964  35.6908264  73.7758865  10.0352793  12.7336416  12.9068718
  10.5932026  12.0391483  13.2570591   9.1891928  12.5993605  13.3338833
  33.4147186  38.9016304  25.2365131  33.3660622  39.8437843  25.3984280
  33.5915794  38.8286095  24.2986336  77.6225586  19.5866528  27.0549126
  77.5182037  20.2104492  26.3364277  78.4101181  19.0914383  26.8296680
   3.2011063   7.1183262  13.1128502   2.7043924   6.3003335  13.1327124
   2.5851429   7.7642345  12.7669840  83.2408524  71.4856186  71.1260147
  84.0517960  71.9674988  71.2884827  83.1766281  71.4395523  70.1720886
  80.8017426   2.3850551  35.6961823  80.8893433   1.7754233  36.4289207
  80.1223679   1.9990042  35.1433296  22.4634933  37.1699028  86.3463669
  22.8015823  38.0549545  86.2099304  22.1783466  36.8859100  85.4778748
  79.6662216  41.3399124  19.4174194  79.8750839  40.4271011  19.6158619
  80.4033127  41.6446800  18.8882179  86.4061356  15.3594599  51.2460251
  86.9425735  16.0969906  51.5367432  86.2110443  15.5520105  50.3289146
  17.4277954  54.6532898  20.2207279  17.8682842  54.9261551  21.0255547
  16.9043083  55.4127274  19.9649010   6.5846343  54.2574692  39.2996521
   6.4324551  55.1959343  39.4107819   7.1635852  54.0212364  40.0243874
  72.1297531  61.1625175  12.5029020  71.3132477  60.8774757  12.9131489
  72.7063828  61.3723907  13.2375355  29.2753334   2.0837774  41.8713455
  29.5179787   2.4068003  41.0035820  28.3721809   1.7829735  41.7710266
  32.9522743  32.0860367  69.6198502  32.1009598  32.4905510  69.4529190
  33.4302292  32.1853714  68.7964859  35.3471336  25.2843800  20.2499371
  35.8983383  24.5640106  20.5556698  34.9713326  25.6541538  21.0488567
  73.4097672   2.4697630  32.9665260  72.6452332   3.0455976  32.9781075
  74.0144196   2.8867648  32.3527374  84.9553680  22.8528824   3.1812484
  84.8008423  23.2852478   4.0211363  84.1837082  23.0660877   2.6565504
  33.0127869   9.5873060  21.4398499  32.1289825   9.4751949  21.7899208
  33.5620079   9.7168407  22.2130299  16.0129662  17.3473854  58.1346397
  16.0522537  18.0107231  58.8236046  15.4436483  17.7293072  57.4666252
  82.7377090  49.8753586  49.6741600  83.4327164  50.4640312  49.3797913
  82.8616028  49.8132477  50.6212769  60.2487411  36.2763710  71.2926941
  61.0840912  35.9864464  71.6592560  60.4395561  36.4519539  70.3712921
  60.8084373  22.1383381  11.2639303  61.7004013  22.4647198  11.1451445
  60.3295250  22.8796177  11.6345806  62.1813126  63.3028831  64.7660217
  62.1949654  63.5977402  65.6765747  61.6295929  63.9422798  64.3154602
   7.6510859  53.6978569  32.2736282   8.3310823  54.1747131  31.7977638
   7.6736140  52.8154602  31.9033623  33.3441963  53.9767609  20.1478252
  33.3936577  53.1192513  20.5702686  32.4152985  54.0918350  19.9474678
  10.8947649  44.6265793  26.5198383  11.2677364  45.3873367  26.0744476
  11.6256447  44.0136604  26.5997143  35.9122963  53.0449638  65.1961288
  36.1584549  52.4291267  65.8863297  35.5509338  53.7975693  65.6643524
  83.9921188  64.4640121  54.6049767  83.2751312  63.9278870  54.2662506
  83.5617828  65.1227798  55.1500130  13.5190401   2.0044515  71.9562225
  12.9747372   1.3224394  71.5627441  13.3323307   2.7879822  71.4390717
  21.5447655  62.2403488  59.0512276  20.7503204  62.7499352  59.2106476
  21.9182434  62.6213303  58.2564964   6.2034478  13.4967289  27.5241337
   6.6544266  13.1644278  28.3002949   5.9602976  14.3935423  27.7539921
  47.5305252  41.8360710  73.7079163  47.3171768  42.2024536  72.8497391
  48.4596939  42.0322723  73.8278351  12.8429432  23.4927063  16.9158249
  12.3019800  23.2707596  16.1579781  12.4913120  24.3276367  17.2248192
  55.5083046  21.7254639  30.0553970  54.9816170  20.9518890  29.8543625
  55.9938850  21.4860764  30.8447876   5.3926048  47.1252632  11.8887911
   6.0622969  47.8091774  11.8863840   4.5775681  47.5888100  12.0813284
  50.7581215  58.0565109   2.4875040  51.2046509  57.3430061   2.0317044
  50.6155396  58.7198944   1.8123544  54.7265549   4.8929992   7.3615165
  55.4032135   4.2195458   7.4309826  54.9674797   5.3951974   6.5830660
  74.5732117  67.2202225   7.4732871  75.1019287  68.0175858   7.4433441
  73.8252411  67.4073639   6.9060583  50.9746590  16.2317677   1.7078671
  50.7860184  15.8081541   2.5452428  50.2802620  16.8828220   1.6070075
  25.8046455  39.4502754  65.1177216  26.3809776  38.8671646  65.6117401
  25.3838425  39.9926720  65.7847748  67.7458572   3.3458605  73.0030289
  68.0029678   4.2046137  72.6673660  67.9374924   3.3877208  73.9399185
  65.3714294  11.0645313  31.8572102  64.4274063  11.0350246  31.7017155
  65.6634445  11.8578558  31.4082146  41.8463020  47.2393951  73.5950928
  41.2788887  48.0034218  73.4924393  41.2420235  46.5016823  73.6779327
  58.1040001  26.2173100  88.4722900  58.8911743  26.6860695  88.1950760
  57.6232071  26.0555668  87.6605606  86.8256531  28.6694202  43.3838654
  87.1576996  27.9537296  42.8418655  85.9508896  28.3840961  43.6477051
  11.0659370  65.6143188   6.6602969  10.8039303  66.2974625   7.2774682
  10.3495407  64.9800415   6.6867728   9.5031071  17.6468887  18.4133587
   9.5901003  18.2649822  19.1390495   8.9732962  16.9332848  18.7687492
  55.5146141  36.9945450   2.8503194  55.3422203  37.9258003   2.9891584
  55.4666901  36.6090622   3.7251549  44.5452499  57.4334831  24.7797909
  45.2390862  57.7720871  25.3456287  44.5630493  58.0039902  24.0113945
   5.5898561  34.8898430  12.1912947   5.5629382  34.7885170  11.2398539
   6.3856945  34.4300995  12.4587030   7.1506362  57.9554443  84.6855392
   6.2234955  57.8588600  84.9030533   7.4934468  57.0617981  84.6959305
  26.1778660  52.0333290  80.7274857  25.5401917  51.6237411  81.3121567
  26.2493324  51.4281273  79.9893417  57.5696182  18.8041306  64.5741806
  58.1358452  19.1797905  65.2483444  56.6958885  18.8092861  64.9650803
  78.4058990  21.2402935  25.1797810  78.4621964  21.4402905  24.2454014
  79.1957169  21.6288414  25.5558891  30.4846039  60.5853653  45.9376068
  31.0982647  61.1870384  45.5161285  31.0368118  60.0178337  46.4753838
   2.7400208  14.1367922  80.2561493   3.6375771  14.4606228  80.1802597
   2.5598171  14.1485682  81.1961594  80.6322403  15.8131828  37.2901611
  80.3354340  16.0823269  36.4208527  80.3691330  16.5311108  37.8659973
  61.1968422  18.7865105  88.5065460  61.5858612  19.5827370  88.8683701
  61.1180611  18.1964474  89.2561188  83.8846436  14.8545036  28.4242554
  84.4751434  14.9765444  29.1676559  83.0212326  15.0914764  28.7627869
  69.6890945  67.1122437  70.3350677  69.0581436  66.5397568  69.8987274
  69.2982254  67.2917480  71.1901855  53.5103455  40.6020241  39.2282143
  53.8886223  40.6881409  40.1032715  52.8498383  41.2933884  39.1837082
   8.1255112  10.8814135  81.9678955   7.7592359  10.5436440  82.7852020
   9.0494642  10.6332579  81.9989014  36.1753769  45.0312157  28.3989944
  36.2810974  44.0800552  28.4176903  35.5075188  45.2110252  29.0607090
   7.6757512  32.1869164   5.2841415   7.8469157  33.1275253   5.3309221
   8.3268385  31.7957287   5.8666286  75.1593094  66.2023926  10.8774128
  75.3821106  65.8168716  10.0300875  75.5829086  65.6320343  11.5188789
  26.7209301  42.7813492  81.4757767  26.3514175  42.1034966  82.0416489
  27.4976559  43.0871735  81.9441833  33.4403877  11.3368645   3.4228737
  33.6178322  12.0157738   2.7718530  33.8764915  10.5566835   3.0802941
  30.8613052  53.6390762  53.6102180  31.2781143  52.8829460  54.0234566
  31.1078644  53.5739708  52.6876106  57.9921532  39.3406677  45.1633644
  58.3112373  40.2423210  45.1254196  58.2999191  39.0130501  46.0084572
  80.4174423  10.2259407  86.4998169  80.0549927   9.3852549  86.7792969
  79.7491226  10.8671465  86.7415543  40.5382996  27.8435345  70.5525131
  40.8143158  26.9508781  70.7603760  39.6968575  27.7368698  70.1088486
   8.5365343  23.8719101  81.4873810   8.8372097  24.7528858  81.7103271
   7.9723992  23.9973202  80.7243271  22.1377792  68.3909531  56.0742531
  21.5354786  69.1305084  56.1549950  22.0989132  68.1503601  55.1486015
  58.4970360  25.1723557  81.7728500  58.5766983  25.9338093  81.1983261
  57.7892799  24.6551952  81.3883209  82.6979141  10.3889837  22.4441280
  81.8636093   9.9982948  22.7039967  83.0748520  10.7145500  23.2615337
  61.3392334  35.0416565  56.7885895  61.0916977  35.2719765  57.6840858
  62.1482201  35.5284195  56.6310043  43.8444862  52.0565414  86.8740463
  44.3826790  52.8464775  86.9248657  43.6475182  51.8418465  87.7858200
  56.2223511   8.4515028  34.3078346  55.8609085   8.3688583  33.4253578
  57.0876198   8.0461264  34.2511978  27.3540783  16.1961803  80.6962814
  26.8765984  15.7104568  81.3688278  28.2762756  16.0209370  80.8835526
  61.1395416  51.7454300   7.9683537  61.3118248  51.5351601   7.0505643
  60.3212051  52.2416649   7.9508471  12.5033140  52.3499641  77.3479919
  12.4350672  53.2339554  76.9872513  12.8428841  52.4782677  78.2336884
  50.8213234  30.5493488  17.5529709  51.2419167  29.7103958  17.7413635
  51.3335495  31.1901569  18.0461483  52.0405540  14.8243971  34.4134521
  51.9387360  14.2837553  35.1967583  51.3641319  15.4965200  34.4967461
  81.6043243  40.3022423  87.9560013  81.7563171  39.5727425  88.5568008
  81.1526718  40.9589577  88.4860611  26.7426109  37.2477951  58.8559570
  26.7994995  37.9550323  58.2134514  25.8604031  37.3246994  59.2193146
  67.8427429  15.1269455  11.7353201  67.2362442  15.3597898  11.0323467
  67.2982635  15.0994473  12.5220985  17.7127457  49.4370041  27.8252182
  16.8971786  49.3739586  27.3281193  17.5250206  50.0752144  28.5134640
  39.5045280  24.4629631  65.3147049  39.4716110  23.5237122  65.1331635
  40.3696175  24.7358074  65.0090790  82.6844101  17.9490643   6.7362108
  83.1259537  17.1649876   6.4098692  81.8441086  17.6309052   7.0662179
  19.7019272  13.8065672  22.9592133  18.9955349  13.3148699  23.3781147
  20.4661503  13.6466770  23.5129547  33.7591286  43.2074165  36.5688438
  33.2478294  43.0748863  37.3671188  34.1957436  42.3683510  36.4219971
  51.1469879  29.9452190  80.2397156  50.2765160  30.2554913  80.4891968
  51.7267914  30.6839371  80.4250565  35.7397614   5.9911733  42.6441078
  35.0374260   6.4201064  43.1329575  36.3687706   5.7231574  43.3139992
  63.1672859  58.6705437  12.0015774  63.4597511  58.0907631  12.7048187
  62.3597565  58.2692146  11.6805410  28.5186424  29.9756889  11.7687941
  28.9019222  29.8264427  10.9044714  27.8508568  29.2953968  11.8553858
  30.4698219  16.2168827  72.2085342  31.1232796  16.5666409  71.6028214
  30.0608807  15.4960270  71.7296143  75.1693039  39.9361420  78.5763626
  75.4584885  40.3298264  79.3995361  75.8342896  40.1973190  77.9393311
  72.8802185   0.8875668  14.8557081  73.1573486   0.3203359  14.1362085
  72.2602234   0.3558016  15.3547697   2.3007967  55.4281616  64.6901703
   2.5153580  55.5210342  63.7619591   1.3452420  55.3761024  64.7110672
  62.4137688  57.0103531   9.0236607  61.6734772  57.1216583   9.6201601
  62.9292564  56.3029480   9.4110670  41.4840546  31.9751854  86.8755417
  41.3893013  32.9270935  86.8420486  42.2728577  31.7948647  86.3641739
  57.9265022  31.8058949  68.2532272  57.0144806  31.8234196  68.5433044
  58.3006744  31.0382977  68.6856918  37.5176659  24.9864902  16.2535419
  37.4366684  25.1597939  17.1914310  37.7224693  25.8389149  15.8692732
  47.9187546  27.5156898  65.3594055  47.0183945  27.2110157  65.4723282
  48.2665825  27.5702019  66.2495041  25.9320393  54.0028076  52.6552849
  25.4009075  53.3034706  52.2744179  26.6635876  53.5478249  53.0724907
  84.0950089  28.0082302  24.8092728  84.1644669  27.8674526  23.8650322
  84.8601761  27.5640450  25.1745815  12.0002098   1.4330409  69.3160858
  12.3864307   2.2834492  69.5255432  12.5688362   1.0728225  68.6355438
  77.9638977  44.1929283  34.6976357  78.8852310  43.9710655  34.5628738
  77.5033646  43.3567886  34.6268539  14.5107880   7.5513563  87.3614426
  14.9027729   6.9573216  88.0015259  13.9355707   6.9935203  86.8378220
  71.9615402  66.4736404   3.9813712  72.5212555  66.8454132   3.2996616
  71.9778442  67.1224823   4.6849127  67.4547043  37.7153244  54.1472549
  66.9426193  38.5215721  54.0842361  67.0167007  37.1063042  53.5527153
  42.6664047  64.1246567  79.9624329  42.0837593  63.9566002  80.7030487
  42.1006012  64.5150909  79.2963562  59.0256729  42.1418724  44.9175911
  58.7550087  42.4017067  44.0369873  58.8099709  42.8956795  45.4666557
  20.3121567  50.5712433   4.8985968  19.9439449  50.3544884   5.7551417
  19.7706509  51.2938385   4.5810156  86.1624908  30.4891090  64.8085709
  86.7374802  29.7242928  64.8346634  85.4133835  30.2442265  65.3517990
  78.6350174  30.7252121  26.6168022  77.7258530  30.7186909  26.9161472
  78.6548233  31.3869762  25.9254932  45.7236176   3.7991803  52.5146790
  45.6006165   2.8786104  52.2830467  45.0729485   3.9634175  53.1972389
  86.0211334   5.9422512  26.2123890  86.5633011   5.8258228  25.4321766
  86.3188782   6.7700772  26.5895977   2.4261177   7.1249671  46.1755333
   1.8943480   6.6968527  46.8464813   3.1472685   6.5158973  46.0167618
  52.3826752   1.7123301  33.8320503  51.4724770   1.7682900  33.5411224
  52.7128029   0.9076079  33.4324608  16.5255699  25.4150372  85.6178360
  16.4963665  25.8122578  86.4882355  17.0630989  26.0136871  85.0992737
  30.4734001  45.6838036  25.3411064  30.0205021  46.5196381  25.4529057
  29.7849751  45.0246544  25.4295769  67.6382523  53.9540291  81.2542496
  66.8919525  53.8775635  80.6597595  68.3741531  54.1831093  80.6866074
  69.3963852  29.2944698  77.2124710  69.8535538  28.9636211  77.9856262
  69.6647186  28.7070885  76.5059204   9.1086054   8.4746037  30.9912586
   9.2815628   7.5535316  30.7964668   9.5652981   8.9552717  30.3008804
  77.8896255  58.1825142  65.2023544  78.7154388  57.8767204  65.5775375
  77.4542618  57.3854904  64.8999481  75.5377808   1.3689137  78.9862671
  74.8642273   1.2221240  78.3221817  75.1611557   2.0297005  79.5674286
  50.8025780   8.5027905  20.5976295  51.4046631   9.2336121  20.7377167
  51.3216896   7.8519821  20.1251831  40.2040482  44.3072853   8.2103100
  40.5823517  44.1464348   7.3458767  39.5054588  44.9421387   8.0516682
  11.9492540  37.8520546  34.1749763  12.1521578  36.9898224  34.5377655
  11.3423424  37.6729393  33.4567757  30.2331638  49.9171944  84.9025192
  29.9981556  50.5353279  84.2104874  29.6776848  50.1632347  85.6422043
  60.6749725  45.7786293   8.9243727  60.4252853  45.4860001   9.8008747
  60.0547409  46.4783974   8.7197504   1.8657317  58.5837326  25.4168224
   0.9772514  58.8761444  25.6201229   2.4303920  59.1486511  25.9443245
  41.0195084  57.5741425  67.2836075  41.4427223  57.6743889  68.1362915
  41.5794945  56.9598007  66.8090210  44.2457466   1.7736738  25.3477383
  43.9776039   1.9440972  24.4448051  43.4366646   1.8414901  25.8547134
  58.4347458  59.9388428  29.5550575  58.6216087  60.7122650  30.0871601
  57.9159126  60.2716064  28.8227234  37.1058235  44.6962891  79.9308624
  36.3099556  44.8058777  80.4512634  37.8190384  44.8787689  80.5426331
  28.4764366   7.2523961  67.1893768  27.7034569   7.0618520  66.6579361
  28.8577156   6.3940334  67.3739624  16.2706661   8.1081696  15.0654631
  16.4930000   7.4329123  15.7064209  15.3569546   8.3239336  15.2520351
   4.3628783  53.1867943  37.8700333   5.1966023  53.2403336  38.3372269
   4.2953649  52.2695274  37.6049080  78.8436890  10.9150152  60.5983849
  78.7927399   9.9604044  60.5498619  77.9542542  11.1914263  60.8191566
  13.3100672  36.3226089  80.7517166  12.4556389  36.0346222  80.4303970
  13.9158211  35.6378517  80.4681625   2.9305487  13.1306934   9.5089970
   3.2666039  13.8082342   8.9222794   3.4896142  13.1861305  10.2839842
  50.0235367   7.4190226  63.3560143  50.0600967   7.6248446  64.2901077
  50.0635605   8.2708807  62.9213104  13.1200800  35.4096680  18.9056053
  12.3059835  35.6123352  19.3664780  13.6711473  34.9898949  19.5661716
   4.2404590  21.8182755  75.3217392   4.8316145  22.5710945  75.3273010
   3.3727112  22.1961994  75.1788406  66.1625443  38.5515289  88.5650864
  66.7840576  38.5071259  89.2917023  66.0087891  37.6377068  88.3252411
  43.7934723  31.3098984  79.9165344  43.7552795  31.6354980  79.0172272
  42.9160080  31.4665604  80.2654572  33.4516754  26.4265842  66.9476929
  32.5217590  26.4282665  66.7208023  33.6439819  27.3358707  67.1767120
   6.6477442  21.2669506   5.8768358   6.4611969  21.6528358   6.7327132
   6.8578672  22.0148239   5.3175797  28.5623627  30.2614574  71.9021530
  29.4333363  29.8807697  71.7893982  28.7279530  31.1811905  72.1092834
  82.0534286  53.0895996  58.3694611  82.9928131  53.1367760  58.5471268
  81.8371429  53.9439011  57.9958076  17.1071606  49.9039345   1.1444414
  17.7895088  49.7146530   1.7884945  16.3077393  49.9966278   1.6626734
  64.0223312  68.9914322  15.9685793  63.8602982  68.0797348  15.7261219
  63.3360863  69.1959381  16.6037750  15.1946297  19.2666016  67.0472412
  14.8995943  19.1354408  67.9483490  16.1113815  18.9913445  67.0529175
  10.3449345  54.9674835  65.1454849   9.7601738  54.2870216  65.4790497
  11.0573692  54.4860153  64.7249451  13.4147367  31.2206745  24.0050335
  14.1818638  30.6935101  24.2282944  13.1976347  30.9605064  23.1098175
  51.1166801  19.3518467  85.9071732  50.7695694  18.6462116  86.4529037
  51.9252663  19.6176662  86.3450699   8.5353060  57.2134323  18.8046436
   7.6033316  56.9956970  18.8203411   8.7784567  57.1589737  17.8804455
  30.7789936   6.2013631  38.8185654  30.5552120   6.9916463  38.3270302
  30.3259735   6.3035707  39.6555595   6.7567749  22.8835182  84.0242004
   7.0526972  22.8174248  83.1162949   5.8197417  23.0673847  83.9579163
  52.4911575  16.3098297   5.0513506  51.9365349  17.0109959   5.3933907
  51.8747177  15.6586924   4.7163100  53.7284966   1.6344365  64.3909912
  53.7679558   1.1966635  65.2413025  52.8361588   1.4777352  64.0821075
   2.6639264  37.1567650  53.3743591   1.9384437  36.5327606  53.3972969
   2.2408986  38.0149345  53.3456230  33.4372368  41.6373711  25.8623943
  33.0959167  42.5203171  26.0043163  33.4899178  41.2571373  26.7392521
  30.3846970  49.5878372  23.1171837  31.3214302  49.4032593  23.0486660
  30.1159420  49.1635056  23.9320126  83.5879745   6.2961373  67.3955917
  83.8821411   5.4756470  67.7911835  82.6568146   6.1580505  67.2220764
  70.0314865  15.7287178  52.5855370  69.6996078  15.1058073  53.2321205
  70.1285934  16.5483055  53.0703850  81.9703827  69.5596466  83.8247147
  81.5856247  69.9997864  84.5826492  82.4860229  68.8452454  84.1988525
  58.6007118  29.3879318  79.9340286  59.5501785  29.4966354  79.9881058
  58.2520256  30.0038948  80.5784225  26.3679829   2.8833618  12.9646120
  25.4184265   2.8107026  12.8681955  26.6914349   2.9974210  12.0709677
  68.4875336  46.9634323  14.1247749  67.9366760  46.5566864  14.7936153
  69.1201935  46.2845078  13.8901863  38.4547539  63.4834747  34.0554962
  37.7622833  63.7494736  33.4505501  38.0545311  63.5511856  34.9223709
  74.9300919  66.1499710  63.4327316  75.6095581  66.7001801  63.0430870
  74.1533279  66.7088394  63.4557610  77.9282837  33.7029991   0.5788282
  77.9611053  34.6398468   0.3852516  76.9950867  33.5092735   0.6674018
  40.4611931   3.9075913   4.7794242  40.5160751   3.3300135   4.0180941
  40.4803391   3.3153954   5.5312018  62.8878822  56.2151566  60.0770264
  63.0585556  55.8789062  60.9568214  63.7200394  56.1116829  59.6154633
  58.2355804  50.2520447  81.3217239  58.5920296  49.3755760  81.4665680
  57.5211143  50.3275795  81.9542236  65.2980957  35.9183922   6.9734416
  65.2546692  36.1460571   6.0447245  64.7447205  36.5689354   7.4056458
  14.8608465  16.0929394  18.0368900  14.7065086  15.5546780  17.2605610
  15.7441320  16.4411182  17.9151955  30.3627548  54.0357819  63.4659996
  30.7816830  53.8584671  64.3081894  29.4672375  53.7146568  63.5716209
  26.1269226  59.4263840  14.9621439  25.4181061  58.8642235  15.2748528
  26.6644707  58.8526878  14.4161177   8.5974770  49.8331604  83.6955643
   9.0749769  49.2065620  84.2392502   7.9891763  50.2593727  84.2993393
  20.1914482  23.4086914  77.0010757  20.5827084  24.2764111  77.1021194
  19.3508759  23.5732594  76.5737762  12.7433405   4.8831134   8.6937170
  12.2464600   4.1354327   8.3615799  12.3892870   5.0358496   9.5698156
  63.7517776  12.8381062  57.1197891  63.0546684  12.3395615  56.6934967
  63.3527527  13.6848583  57.3198433  55.4813538  46.9491844  62.3348007
  54.9117851  47.6891441  62.1243744  55.1598244  46.2352791  61.7841759
  58.5931206  62.2921600  31.2089615  59.3058281  62.9180717  31.3374710
  57.9980507  62.4531212  31.9412270   1.2912639   7.0581985  83.8108292
   1.9363937   7.1891532  83.1159286   0.7725552   7.8626690  83.8107986
  61.1875038   0.2558011  28.7011280  61.4705963   0.5444042  27.8334885
  60.5719719   0.9300417  28.9888020  60.9261818  38.5320206  21.5231686
  60.8368721  38.8045464  20.6099415  60.8131905  37.5817528  21.5016804
  47.7317047  23.7108727  65.3691330  46.8581390  23.8572483  65.7320251
  48.3228073  23.8288212  66.1127167  43.6053848  59.8257980  32.6228218
  42.6812401  59.5790672  32.5866241  43.9147797  59.4736900  33.4574051
   8.2797050  21.9926682  86.3121262   8.8788462  21.4911633  85.7591705
   7.6550360  22.3797722  85.6987991  13.6526136  22.5877743  11.0548611
  13.2943211  21.9383774  10.4497652  13.5409784  23.4239140  10.6024895
   9.7146397  47.9936714  21.0528603   9.8540745  47.8119583  20.1234684
  10.1460323  48.8354416  21.1996784   6.2661281  17.2082481  54.7847137
   5.6197801  17.2419033  55.4899330   5.8941202  16.5981960  54.1477814
  64.7922363  15.5009460  42.0454674  64.5018234  14.5894089  42.0769768
  64.3956146  15.9054880  42.8170052  33.4984474  49.9593658  58.2146301
  33.0228844  49.6346169  58.9792252  33.8440552  50.8083496  58.4903374
  30.6111012  31.6742516   6.2269835  31.3302631  31.8898144   6.8207588
  31.0339184  31.5336361   5.3798208  72.5043182  40.4155998   8.3253365
  72.6241760  40.5235634   7.3818264  73.3654099  40.6027565   8.6991253
  59.8586235  33.1322556  64.0619431  59.2638016  33.8319054  64.3319626
  59.9706917  32.5967331  64.8473663  27.4630299  10.1039648   7.4360347
  28.3772354  10.3859024   7.4048948  27.4221172   9.5058889   8.1822672
  25.9917526  51.4719620  71.7803955  25.5820789  51.8077126  70.9831009
  26.8832092  51.2461472  71.5147858  57.2295227  57.7326126  36.3900833
  57.3234596  56.9840317  36.9791794  56.9320526  57.3514442  35.5639763
  82.6542358  20.0379944  32.8595886  83.3996124  19.6432247  32.4070282
  82.9587936  20.1634693  33.7583275  21.5492668  56.2534714   1.6908313
  22.1698589  56.8044395   2.1678324  21.1919518  56.8268661   1.0127662
  49.1408157  34.2061539  78.5856018  48.4456062  33.5558586  78.6857605
  48.9878845  34.5891418  77.7217941  26.5355167  13.4703035   4.6964283
  26.4691620  14.2815065   4.1926641  26.4014606  12.7760496   4.0512366
  82.8988495   7.8420124  51.4736404  83.5487900   8.0047426  50.7900238
  82.5809402   8.7123156  51.7139206  71.3730164  43.5361137  85.7571564
  70.4532623  43.6494980  85.9967957  71.5722198  42.6302261  85.9936371
   4.2789798  12.3978291  26.0879650   4.8990383  12.9159517  26.6011009
   3.8208187  11.8622284  26.7356167  59.4696236  41.1685181  85.6838226
  59.5923767  40.8844643  84.7780228  60.3532448  41.3648415  85.9951096
  21.5923634  26.5377159  21.0270691  21.0002308  27.1390514  20.5753994
  21.3407459  25.6703892  20.7097931  48.5745964   7.4634457   4.3095298
  47.6254845   7.3735251   4.2239094  48.9110832   7.3004417   3.4283724
   0.1289747  49.5325508  38.2768898   0.6724625  50.3178253  38.2121010
   0.1399266  49.1602707  37.3951187   1.7734457   8.0793352  50.0409317
   1.5341508   8.9746370  50.2805214   1.0697187   7.5390306  50.4001961
   7.0927835   1.7383927  20.6965256   6.2273192   1.6499037  20.2973099
   7.6981845   1.4123960  20.0306072  82.9324493  44.6713715   4.6906371
  83.0505219  44.6604652   3.7408094  83.8222427  44.6505089   5.0428557
  80.3033829  50.7481613  77.2612534  79.3840256  50.9394569  77.4467773
  80.2754898  50.0468025  76.6104507  46.6157417  16.3988953  11.4255209
  46.5784149  15.7624283  10.7115555  45.7037201  16.5126057  11.6929455
  58.0000420  18.0805130  13.9643764  58.1360207  18.7105808  13.2567348
  58.8647537  17.6983757  14.1142750  61.4253502  64.4447708  72.1820221
  61.3658981  65.0746231  71.4636917  60.8787880  64.8179092  72.8735886
  82.1660080  52.6370049  72.1902618  81.7919846  52.1840515  71.4345016
  83.0603409  52.8497124  71.9235229   8.4187794  21.1914940  82.1588898
   7.7331858  20.9447670  81.5381470   8.6081142  22.1073780  81.9550705
  81.3144836  34.6217384  16.6547203  81.0570068  35.5362854  16.7710762
  80.8252640  34.1477661  17.3272152  64.9584656  28.4175415  28.7458057
  65.6339569  28.6756439  29.3729630  64.3915405  27.8220520  29.2359333
  51.5336876  28.7029800  27.5974503  51.0482712  29.3544292  27.0912762
  51.3433685  28.9186153  28.5104179  32.3491898  60.6900635  68.1825867
  32.1862564  61.6124115  67.9852066  33.0897865  60.4528961  67.6244659
  74.0872726  59.9116402  11.1310663  73.3078995  60.4402428  11.3024950
  74.2954559  59.5111351  11.9751558  66.1180038  40.6947403  35.7186890
  65.9756470  40.2303467  36.5434952  65.4090652  41.3367119  35.6798286
  42.7328415  54.5621986  45.7292328  43.6895714  54.5685120  45.6999016
  42.5126572  53.7521095  46.1891289  83.3469543  70.3406830  21.9865799
  83.5251617  69.7516251  21.2534466  83.8757172  69.9948883  22.7056599
  29.7871380  48.6939888  32.4531517  28.9060917  48.3262596  32.5221901
  29.7614479  49.2301979  31.6606541  37.0340996  67.7355423  40.2287025
  36.8888779  66.9878998  40.8085136  37.6176414  68.3117142  40.7224007
  54.4765091  65.5988617  56.8579178  54.9729347  65.3010254  56.0956268
  53.6097450  65.8107452  56.5114212  63.7549248  52.2972412  72.3508148
  62.9198456  52.4708900  72.7852249  64.3131027  51.9371223  73.0400085
  53.9640617  23.7211342  75.2403107  53.1475334  23.7855091  74.7449646
  54.6398468  24.0090446  74.6265869  58.5761414  44.8325691  60.3138008
  58.2621078  45.5368271  59.7466698  58.0410461  44.9049034  61.1041641
  10.4901733  61.6741829  48.6501541  10.1432543  62.2888641  48.0035858
  11.3731565  61.9941216  48.8351212  14.7160425  20.0916710  75.3559799
  14.8266344  19.6684303  76.2073669  15.5930614  20.3977623  75.1249390
  32.5815887  17.9714298  72.5518875  32.7297287  17.3264389  73.2434616
  32.8243256  18.8080311  72.9486313  21.4444809  46.1389198  11.1874390
  21.5592728  46.9066620  10.6274176  22.0997696  46.2453232  11.8770075
   0.3734262  15.4999599  43.0827827   1.1233394  16.0948219  43.0828629
  -0.3774718  16.0612030  42.8894157  65.4360046  55.8370857  87.1158066
  64.4910736  55.7299881  87.2247467  65.7329865  56.2043533  87.9483643
  29.5134621  70.2268906  44.1578979  29.8631496  70.9965820  44.6068192
  30.2165451  69.9531631  43.5688515  54.4979706  15.9550591  68.1989822
  54.4379196  16.8997860  68.3408051  54.6295013  15.8624020  67.2554016
  70.5657120  49.6638184   8.3343449  70.1546173  49.0681458   8.9607668
  71.4427643  49.8142853   8.6870165  21.9309101  66.1810989  51.2580719
  22.3084431  65.3016205  51.2729836  20.9970360  66.0382767  51.1040802
  46.6729469  33.7800980   1.7443513  47.4996147  33.8445244   1.2661233
  46.4744492  32.8437614   1.7544805  83.9340668  10.8564100  29.7772331
  83.5683060  10.9676199  30.6547756  84.1119995   9.9183702  29.7090206
  22.6214371  68.1269836  17.6174316  22.3960781  68.9851837  17.9765167
  22.0593662  67.5139771  18.0912800  64.7196808  46.6919823  58.7596855
  64.1994400  47.4954376  58.7536278  65.2084656  46.7293282  59.5818329
  86.6802292   0.9092926  74.7615204  86.8536530   1.0359464  73.8287201
  85.9645157   0.2742453  74.7880173  12.3466558  50.7834549  70.1421280
  13.1384993  51.1484184  69.7471390  12.3885746  51.0562859  71.0586624
  44.2600365  35.7454643  22.7387486  44.4526138  34.9322433  23.2054539
  44.4963951  36.4376831  23.3561611   8.6668854  26.2238064  79.7096329
   9.3606339  26.2974281  79.0542526   9.1145601  26.3451042  80.5469589
   6.4544544  26.3983097  69.3708572   7.0061774  26.0645237  70.0782623
   6.4117904  27.3420010  69.5253220  64.1474457  19.9957542  76.3619766
  63.3814011  20.4046230  75.9591980  64.7737503  19.9014549  75.6442795
  73.8598938  67.2912827  12.8356047  73.0778351  67.8380737  12.7604723
  74.1265335  67.1290283  11.9307251  36.7413788  51.5115738  47.2270699
  37.0018692  52.3173828  47.6732254  37.5016403  50.9358215  47.3092117
   6.3831730  46.4637947  42.0711937   6.3850622  45.9490471  41.2641830
   5.4918303  46.3763466  42.4089699  61.0351868  63.8434639  50.4678688
  60.8805237  64.5806046  51.0585785  61.1032639  63.0835381  51.0458870
  49.4432182  13.0294914  32.8508606  50.1948509  12.6223583  33.2815857
  49.1945839  13.7483444  33.4319458  12.3157902  69.7840118  78.5650940
  13.1923647  69.4250336  78.7028656  11.7378931  69.2000046  79.0562210
  18.4230995  60.5724373  23.1305981  17.9324818  61.2959023  22.7405739
  17.9065304  59.7936325  22.9235840  28.8636456  56.0223389  82.1441345
  28.9824104  55.0759201  82.2242508  28.9510994  56.1962128  81.2069321
  14.0552444  49.5095634  58.7156181  13.2300329  49.3055992  59.1556854
  13.9840240  49.0812263  57.8625717  60.6079979   3.8929033  41.2740555
  60.9428368   4.7468066  41.0002594  60.9796944   3.7581780  42.1457901
  65.4274063  13.9390287  31.2862015  65.0797653  14.2973757  32.1028824
  66.3615341  14.1463051  31.3121624  20.9744091   0.4665427   5.5121384
  20.1945839   0.9450456   5.2308178  21.7060547   0.9694352   5.1543312
  79.1344452   3.5978785   5.4870834  78.8458023   2.6934984   5.3645544
  78.3232498   4.1036024   5.5363932  47.8366127   8.6315212  28.9239445
  47.2841568   9.0349007  29.5935040  47.8823013   7.7089710  29.1750317
  57.7452087  21.9533119  15.1140957  57.2337303  21.2695427  14.6815634
  57.2330475  22.1808453  15.8900805  86.4012909  10.7895708  87.0236282
  86.1305237  11.7065334  86.9778214  86.2773590  10.4585114  86.1340942
  60.6651726   9.8072834  35.8872757  59.8152962   9.7537270  36.3243980
  60.8038254   8.9321413  35.5251541  72.2038727   6.1643090  30.3264923
  71.3361359   5.8324366  30.0959892  72.0999680   7.1157188  30.3424473
  79.1529922  31.2361717  10.7773676  79.2034454  30.3617783  10.3912048
  80.0658340  31.4994011  10.8942785   1.3079401  58.9818039  76.8971710
   2.1076114  58.4870796  77.0760727   0.7222010  58.3484497  76.4824295
  55.4236870  59.9938927  78.6314697  55.7403641  60.7685623  79.0960464
  56.2186890  59.5242805  78.3791428  52.9040680  51.3618774  73.7145157
  53.3748436  52.1020088  73.3313599  53.4658928  50.6060753  73.5431976
  26.8456326  63.8070221   9.5312214  27.6719360  64.2887650   9.5683928
  26.8190479  63.4450645   8.6454954  46.4423294  62.4351425  88.8002853
  46.3127594  63.3835030  88.7927322  45.8409729  62.1059189  88.1322937
  24.8059464   3.3808260   9.6735420  25.7022839   3.4926615   9.9902525
  24.2581081   3.5528209  10.4393892  68.2400589  31.0391617  86.4856262
  68.1676407  30.7296371  85.5827560  68.4823303  31.9615803  86.4038925
  57.8578224  24.2925911  74.8580933  57.6592255  24.7544365  75.6726379
  57.1259384  24.5037689  74.2784576  54.0718384  69.0400162  -0.1468556
  53.5973206  68.9230728   0.6761798  54.4877090  69.8981400  -0.0637121
  18.1400299  45.0689583  52.3085861  17.3354988  45.3274727  52.7581749
  18.1003780  44.1130905  52.2773209  37.8745041  24.1858578  47.6255341
  37.8999329  23.3246403  48.0425377  38.4075508  24.0858994  46.8368034
  51.3514214  15.1327486  72.7466278  50.8209419  14.4209948  72.3885345
  50.8933258  15.9300480  72.4807434  20.8660603  49.1746254  88.3351593
  20.0942078  49.7399025  88.3657455  21.0728683  49.0017357  89.2536163
   6.3585253  68.3593369  78.0344238   5.5377626  68.8431625  77.9422531
   6.1000032  67.4387131  77.9913330  16.9597931  52.2283745  86.6297073
  16.8265495  53.0771370  86.2077179  16.2186279  51.6971817  86.3386002
  36.6925354  14.1174784   5.2737179  37.2292137  13.7783871   4.5573196
  35.8649178  13.6424665   5.1985774  50.4755058   4.6317825  89.1746445
  50.5850716   3.6831198  89.1093292  49.6403503   4.8068538  88.7409439
  12.4911041  38.6605721  30.5323658  12.2391319  38.8975563  29.6398525
  11.7094183  38.2487068  30.9005585  68.3126068   4.6158910  12.7762728
  67.6270370   4.3835449  13.4025707  68.4319458   5.5587125  12.8906260
  15.2194128  34.4895096  80.5306473  16.0281277  34.0013885  80.3759003
  14.5217781  33.8534584  80.3726120  52.5326729   1.5048494  26.5349808
  53.4264336   1.1859133  26.4096565  52.1133118   0.8358630  27.0761127
  83.5353546   9.8730202  19.4066315  83.1315918  10.1270761  20.2364902
  83.3092804  10.5811558  18.8035831   6.3195400  11.6844587  11.1953554
   7.1734743  12.0693293  10.9981184   5.7129049  12.4246168  11.1755819
  85.1819153  23.5265274  63.1412964  84.3651047  23.1743450  62.7877121
  85.8001480  23.4755383  62.4123077  65.4191284  38.8894844  37.8738518
  65.4355698  38.2002869  38.5379028  64.4884872  39.0420723  37.7100105
  62.5967979  66.1714554  32.4615135  63.0991364  66.9236679  32.1483612
  62.2241898  66.4620590  33.2939453  33.2223129  65.0254669  45.6891556
  34.0157204  64.9998322  45.1542931  32.9050636  65.9245453  45.6040993
  55.1706963  53.4831543  39.6812744  55.1934319  53.7549934  38.7637672
  54.7171097  52.6403236  39.6701965  46.5233879  31.7710438  62.4846840
  46.4407692  32.2846985  61.6812172  46.4122925  30.8635349  62.2012787
  85.4000549  68.6140137  16.4011497  85.3550262  67.6579056  16.3939285
  84.5132446  68.8938522  16.6280842  68.1968231  65.0864105  16.7716789
  67.5604172  65.2481689  16.0752239  68.2857285  65.9298172  17.2155151
   0.2504304  18.7092648  72.2013016  -0.2037667  19.5425301  72.0763855
   0.6223429  18.7687798  73.0812912  36.0806503   6.7273488  83.0553589
  36.0991478   5.8084359  83.3227310  36.0565414   6.6980596  82.0989075
  19.3643494  44.3377113  12.1551991  19.9857082  44.8620262  11.6499882
  19.3697796  44.7336960  13.0266323  59.0871925  64.6165543   5.5137186
  58.1347160  64.6795349   5.5848026  59.2414284  63.7609749   5.1131859
  61.6982193  46.1514359  57.5666504  62.4538498  45.5742798  57.4564476
  60.9786186  45.5629578  57.7948990  40.5039558  55.4321747  82.1741562
  39.6270866  55.8140717  82.2127457  41.0093956  55.9272499  82.8188782
   8.7067127  64.4000702  31.2794189   8.9472675  63.4923859  31.4650860
   9.4964762  64.7840424  30.8985348  51.0570145  25.8798428  11.0602713
  50.4957924  26.6513596  11.1378555  50.7536507  25.2924042  11.7524548
  66.1565933  46.1858253  16.0263443  66.0345612  45.4597855  15.4146214
  66.4494247  45.7694054  16.8369465  75.0354309  52.9430199  28.1232300
  75.4561691  52.1125374  28.3457279  75.3280029  53.5495491  28.8034897
   8.9764681  10.0850973   9.6283731   9.7864408   9.6297340   9.3985500
   8.4769049  10.1118402   8.8123131  85.6523666  46.4709244  71.2144089
  84.7432632  46.7154999  71.3874283  85.7219315  46.4674835  70.2597427
  66.2602615  69.8449402  69.2029266  65.6143570  69.3000488  69.6525269
  65.9786377  70.7430801  69.3769226  41.4560928  41.0638466  17.2000465
  41.9611588  40.2622490  17.3363476  41.9527664  41.5510101  16.5426159
  75.7839203  56.0381775  60.4827347  74.8986435  55.6769981  60.4373360
  76.1702652  55.6286812  61.2568703  55.1099854   0.9146114  31.1160927
  54.1572685   0.8978403  31.2070904  55.2655182   0.7268713  30.1904602
  69.3728409  36.1172791   2.8758776  69.8396835  35.5631828   3.5013897
  68.6512146  36.4926414   3.3804462  28.9473362  12.0015907  75.5561752
  28.2816849  11.4093666  75.2062988  28.7933617  12.8300400  75.1020889
  71.2113113  19.8276443  15.5601492  71.9822845  20.3947220  15.5761366
  70.9026337  19.8174782  16.4661560  23.7068787  61.0932503  62.8935966
  23.0392323  60.7289963  62.3123932  24.0612564  60.3341827  63.3566971
  80.3026886   6.8971057  70.0633621  80.3227692   7.1914744  70.9739532
  81.0740662   7.2996850  69.6644440  73.5233841  36.4515991  68.4395294
  73.8348770  36.5569572  67.5405807  73.6007614  35.5131340  68.6113815
  55.3383942   7.5929613  14.8926401  54.9563065   8.2419300  14.3018084
  55.9971886   7.1447072  14.3622723   4.7225337  -0.0199522  25.3172302
   4.2429061   0.7837755  25.1167030   5.4739704  -0.0046624  24.7244892
  58.1818581  66.1888504  71.6375351  59.0774803  66.0321198  71.3383331
  58.2434845  66.1802902  72.5927124  25.0323353  70.5279541  86.1901093
  24.3910255  71.2382660  86.2105560  25.8056221  70.9151764  85.7798386
  69.3660049  22.9959755  52.9182701  70.0421600  23.6721535  52.8754654
  68.7359924  23.2440815  52.2416878  59.5379257  41.2569733   7.7171197
  58.9545479  40.6156502   7.3113976  60.2543831  40.7345924   8.0777359
   9.7198229  35.1743927  22.9123459   9.4501476  36.0863419  22.8034782
  10.5833273  35.2272453  23.3219776  61.8853493  53.9823380  36.1339684
  61.1486549  53.4823952  35.7824440  62.6076164  53.3549538  36.1647682
  25.6024418  42.6670265  57.5836182  24.9925346  43.3549080  57.3170395
  26.0615368  42.4286766  56.7782288  56.4573593  66.7473679  28.5272884
  56.0277405  65.9333725  28.7901001  57.2778931  66.7550735  29.0201378
  28.0353680  58.3354530  86.9668274  28.8409901  58.3434029  87.4836884
  28.2667694  57.8583527  86.1699219  11.1803160  49.0330772  29.7885513
  11.6657372  49.8177109  29.5336990  11.7500105  48.3064613  29.5361462
  85.0719910  36.1466446  88.2401352  84.2381897  35.7895088  87.9344254
  85.2365417  36.8952332  87.6667480  13.7778749  43.2241707  66.2313461
  14.6775656  43.3423195  66.5360260  13.2516775  43.7598610  66.8249664
  67.4717178   9.4811821  44.3913994  68.0497360   8.8695250  43.9353256
  66.8940048   8.9224253  44.9112740  35.1896477  38.3506508  61.9136581
  35.5978661  38.6380005  61.0969467  34.5202560  37.7238731  61.6392593
  27.9179096  48.0795403  44.4908257  27.8948460  47.1856842  44.8324776
  27.0123615  48.2641029  44.2415237  59.6374702  44.0682220  82.9033890
  60.1654015  44.7503929  83.3183136  58.7393036  44.2656975  83.1689758
   0.3051516  45.8143768  38.4929924   1.2355207  45.6089249  38.4011459
   0.2335845  46.7287064  38.2189217  37.3691444  33.7333298  51.5445366
  37.7829781  34.5302620  51.8760147  36.5979156  33.6154709  52.0991020
  47.7263641  70.2438736  75.9443665  47.6647835  70.7424240  76.7591553
  46.8345108  69.9352417  75.7844315  67.4701996   8.9202433  53.1986389
  67.6114273   8.2044172  52.5790596  67.7546616   9.7038260  52.7282028
  43.4440727  16.9867859  70.0346375  42.8423538  16.2620487  69.8645782
  43.4300575  17.0915356  70.9859848  63.3154182  43.3261452  40.3637733
  63.1740074  43.8745956  39.5921288  63.8790779  43.8519287  40.9312859
  35.5191765  67.6638260  57.2511368  35.0644836  67.3937607  56.4532928
  35.4062424  68.6138611  57.2812614  67.7710419  10.4401484  77.3042908
  66.9893341   9.8898497  77.2559586  67.5441589  11.1236706  77.9348068
  54.4631577  39.7973557  15.9161139  54.2890778  40.1689606  16.7808895
  55.0187492  40.4461098  15.4840670  71.3569336  19.3997803  69.6248474
  71.3407516  20.3487606  69.7489777  72.2870407  19.1736622  69.6278763
  82.6716080  24.7988682  43.8945198  83.0840073  24.9623928  43.0463371
  82.5390015  23.8511810  43.9176331  19.6732063  24.3117752  17.6930161
  19.6046944  24.5657120  16.7726593  19.1084290  24.9312553  18.1550789
  73.8941803  11.2720728   6.3879223  73.5645905  11.2723818   5.4892578
  74.7079468  10.7699471   6.3444052  40.3602791  14.3494654  16.2819386
  40.2568665  15.2985907  16.2133884  41.1304359  14.1532984  15.7484484
  47.3072624  19.6710663  22.5632477  47.7009926  20.2699795  23.1976871
  47.1510048  18.8667603  23.0581284  61.4818649  12.5830450  33.1109657
  61.1922951  12.7596016  34.0060692  62.0749130  11.8362942  33.1939850
  62.2440987  24.5704994  28.9095230  62.5340805  24.5424461  27.9977360
  61.3134155  24.3499660  28.8717575  28.4602737  14.6086321  74.6825104
  27.7628021  14.2753611  74.1179810  28.2441711  15.5323200  74.8103104
  23.4195004  50.3797951  34.9866104  23.4696846  50.9916687  35.7209969
  22.5866013  49.9246597  35.1105537  56.3926964  23.6988430   3.7982061
  56.1811523  23.4387131   4.6947632  55.6269264  24.1927319   3.5051100
  38.4885521  71.3072128  40.2855225  38.5203400  70.8390884  39.4512062
  37.6367149  71.7437820  40.2829056  78.1429214  46.8883667  31.1124725
  78.8378830  47.2397728  30.5559006  78.5628586  46.7501259  31.9614582
  37.6737022  44.1606293  72.7002182  37.3361702  44.0128708  71.8167801
  37.0523224  44.7725410  73.0947952  83.2170792  24.3877106  18.4620037
  82.3488159  24.4150772  18.8640022  83.0698013  24.6567554  17.5552769
  56.0822868  47.4674683  79.0462875  56.5404930  47.3790894  78.2105484
  55.3857346  48.1003952  78.8717880  75.0092316  29.3618526  70.0620346
  74.1559296  28.9281693  70.0658875  75.1811981  29.5603123  70.9825134
  80.1313400  18.6592350  19.8378906  80.0109940  18.6470413  20.7874146
  81.0744934  18.5520172  19.7146053   0.4495715  61.5815125  32.3292198
   0.4353586  62.4726181  32.6784439  -0.2287474  61.5780869  31.6538677
  66.0298996  10.4702101  16.9836884  66.5009460  10.8474798  17.7266693
  66.6224976  10.5855093  16.2408752  45.3556709  15.4228134  74.1803360
  44.9628639  15.3122568  75.0461960  46.2980042  15.3559637  74.3345261
  19.1542931  68.3970642  21.8259354  19.0450115  68.2586823  22.7667542
  18.4053764  68.9376984  21.5747833  82.7521515  14.5897274  63.4475403
  82.8687592  15.4792271  63.7813454  82.1458588  14.1799192  64.0645447
   4.2769713  62.2050934  41.9793282   3.5141976  62.7789307  42.0508690
   4.8875389  62.5349770  42.6385841   0.2207936  12.0102530   4.5387559
   1.1616220  12.1795502   4.4896431   0.1553176  11.1206684   4.8860068
  19.4068565  50.4107819  43.6922417  19.9133377  49.5985832  43.6982422
  18.9913940  50.4276047  42.8300667  21.3940926  26.1017475  78.5693665
  20.5032578  26.3145866  78.8474808  21.8872929  26.0220070  79.3858414
  18.1296062  57.0888138  24.4749603  18.4084339  57.7444115  25.1142387
  17.1734676  57.1313972  24.4896946  13.2102928  54.2951164  80.0283203
  12.2574577  54.3799820  80.0620117  13.4143152  53.6252708  80.6809464
  70.4938736  33.3989143  68.4028397  70.1988754  33.1950874  67.5153351
  69.6927185  33.4025116  68.9266357  29.3429947  28.2583981  80.9423065
  29.1648197  28.5165825  80.0379715  29.5847740  29.0740452  81.3810501
  40.6090279  45.6906395  23.1847668  39.7938499  45.8367958  22.7048130
  41.2968369  45.8043175  22.5288486   9.9570580   4.9120946  15.0897102
  10.7692490   4.9465718  14.5843496  10.0532818   4.1385570  15.6452398
  17.9222679   3.8564732  15.4370193  18.2200222   3.3662775  14.6706753
  18.4190140   4.6741061  15.4061823   4.1726522  32.7892570  57.1314468
   4.4308534  33.0613594  56.2508087   3.2544060  32.5336533  57.0435753
  56.7268677   8.9501457  57.6963692  56.6175919   8.3900175  56.9278984
  57.5797119   8.7027893  58.0537262  25.7257423  40.7885437  79.2868423
  25.6342926  39.8957787  79.6197739  26.3652306  41.1973419  79.8700867
  75.6581039  37.5627937  81.3439789  74.9013214  37.0514717  81.6304398
  75.7080002  37.4087830  80.4005661  42.1638260  61.4618263  66.7069626
  43.0864029  61.2740097  66.8796005  41.8010712  60.6273880  66.4097214
  24.2901611  48.9463120  84.9627304  23.9607906  48.4268036  84.2293396
  25.2412472  48.9364777  84.8551559  63.5795097  36.5053482  37.7779579
  62.8078308  35.9737663  37.9733200  63.5310364  36.6603050  36.8346291
  27.4653492  57.9200630  25.4845562  27.0384045  58.7315063  25.7593441
  28.3633041  58.1797714  25.2784977  61.8505936  54.4293022  48.2583046
  62.6110802  53.9677086  48.6116066  61.3848381  54.7498055  49.0306892
   4.8252668  68.2931061  82.4460602   5.7116423  68.5505295  82.6996460
   4.2927160  68.4730225  83.2208252  67.6647186  52.9198380  26.0424728
  67.5531921  52.0463257  26.4176712  67.7595367  52.7664108  25.1024189
  82.7301788  14.5580845   6.7212625  82.8043442  14.0281000   5.9276333
  81.7918930  14.5772896   6.9096270  16.9318981  65.8702698  75.8266907
  16.5498886  65.2071533  76.4016495  17.4893360  66.3939285  76.4022598
  60.0259094  10.1559629  87.1220474  59.7427559  10.6305752  87.9035797
  59.2870102  10.2271852  86.5177383  12.2509050  33.8082161   5.6000524
  11.8600273  34.3525658   4.9165826  13.1104069  33.5688972   5.2533321
  27.3697739  25.2236881  16.8849277  26.7199097  24.5796452  17.1662064
  28.0432682  24.7069283  16.4426689  30.8889771   4.7802448  17.3231831
  30.1956749   4.1789985  17.5953350  30.7539616   5.5605993  17.8608170
  60.5699806  13.4608107  81.9811096  60.7029610  12.9398994  82.7730713
  61.2043495  14.1738853  82.0541306  33.8692398  51.1471214  72.8085556
  34.1539841  50.8916283  71.9311295  33.0340385  51.5933914  72.6688538
  36.3835220  36.7989883  71.7861328  37.2399445  36.8600845  72.2092743
  36.4045868  37.4708595  71.1046829  28.7567253  43.1770058  77.8388901
  28.9757404  42.2452774  77.8507919  28.6250496  43.3802834  76.9128342
  80.5151215  28.1707668  86.5013580  79.9776611  27.8071194  87.2050171
  81.0881195  28.8005695  86.9386826  46.6365967  47.9446983  84.1207199
  46.3531532  48.3622284  84.9340897  47.1000710  48.6347618  83.6461334
  23.2797699  43.7760162  85.7789688  23.7088718  44.4657249  85.2726135
  23.1264858  43.0743866  85.1461563  63.3075485  65.4128952  77.5657043
  63.0402565  66.1036377  76.9593506  63.9806442  64.9249649  77.0912476
  35.0067139  57.8845596   3.4977193  35.4912338  58.2733650   2.7695000
  35.5390282  57.1360016   3.7670503  31.7865467  52.9507408  75.2789001
  31.2270660  52.2268677  75.5603638  31.9082317  52.8084106  74.3401947
  76.9425507  60.1550827  15.3228397  76.2721939  59.7989006  14.7397556
  76.5886612  60.0245895  16.2025948  81.5227509  34.6046104  26.1190281
  81.4776382  35.4815025  25.7379036  80.9186707  34.6345406  26.8609333
  42.8211517  17.1809940  19.5734138  43.0098038  17.1437378  20.5110989
  41.9596786  17.5946274  19.5186691  85.1728210  55.6462135  82.1881485
  84.2821808  55.3696442  81.9725113  85.7228470  55.2126350  81.5356750
  42.1938629  69.3378220  27.6692371  41.5315819  68.6500549  27.6014614
  41.6908035  70.1505966  27.7198906  17.8103428   7.2810106  67.8757858
  18.5830040   7.7769227  68.1465302  17.2585526   7.2517223  68.6573944
  10.3608484  71.6937332  77.4890518  10.8481169  70.9710236  77.8846512
   9.5269117  71.7058105  77.9587708  53.1852989   9.5788603   8.8521366
  52.2312469   9.5889120   8.9290495  53.4469490   8.7378187   9.2268620
  51.4993324  10.9917183  12.3149366  52.4207077  11.2277441  12.4225950
  51.0960007  11.2118521  13.1546373  10.3826170  70.3407593  11.8985958
  10.2541742  69.4252167  11.6505575   9.6325474  70.5450974  12.4570513
  51.8029404  25.3043232  78.2184906  51.4607124  26.1040955  78.6178360
  52.7540321  25.3969631  78.2739258  43.2976913  17.7023525  85.4021759
  43.1894951  17.6085815  86.3486023  44.2455521  17.7218838  85.2702332
  67.4093323   1.4926561   1.1226379  67.5544739   2.3493049   0.7209933
  66.6067734   1.1691420   0.7134135  15.3937216  28.1602859  81.4390945
  15.7427416  28.9375496  81.0028839  15.9042864  27.4345760  81.0800705
  69.2638092   0.4305686  18.8202667  69.5719757   1.3062297  19.0536900
  70.0616531  -0.0938987  18.7522926  51.4171867   1.5545433  20.2107086
  51.1374245   2.3512247  19.7598610  51.2831993   1.7451223  21.1391277
  44.2695122  71.4840393  53.7475166  44.7574501  70.6735992  53.6014519
  44.0859718  71.8148880  52.8682671   2.2321303  49.9518776  25.3348598
   2.8793037  50.4659195  25.8177242   2.6351094  49.8018417  24.4796829
  34.6876717  68.3051758  62.7521706  33.7732010  68.2162552  63.0206375
  34.6585960  68.2940292  61.7954788  74.5861893  49.3383598  69.4025726
  75.1071930  48.5445137  69.2817612  74.1271667  49.4525375  68.5704041
  75.4241714  49.4160385  64.9460373  76.1663132  49.6880913  65.4858856
  75.4392548  50.0144157  64.1990738  49.9906273  38.3794098  67.4730682
  50.8967781  38.3847275  67.7814331  49.8454742  39.2652969  67.1408539
   8.4445572   0.1354854   1.1904905   8.2141104   0.4551898   2.0627949
   7.8070235  -0.5560098   1.0126804  15.9749908  10.1039600  87.0853348
  16.7735844   9.7451735  87.4723129  15.4712334   9.3347464  86.8193130
  59.0659866  34.1806641  59.4509354  58.7959557  33.6697311  58.6878738
  58.6120071  33.7701797  60.1868935   2.5966687  52.6387177   3.2752662
   2.2670684  53.4881516   3.5686219   2.4030938  52.6173668   2.3380868
  17.1837902   0.5647032  26.6354656  16.8336010   1.1390357  27.3164520
  18.0828934   0.8667011  26.5064602  64.4052887  57.7694855  45.5304527
  63.8154221  57.4213448  44.8618088  65.1183243  58.1720390  45.0347061
  38.3871880  48.9442902  87.9835892  38.5190086  49.7799301  87.5357513
  38.3287430  49.1759148  88.9104996  74.4909821  25.4590015  25.3864098
  74.0361633  25.9347229  26.0814362  74.2679672  25.9337063  24.5856915
  73.7354355  14.0977592   9.8125219  73.0371017  13.5693655  10.1989880
  73.5762482  14.0524836   8.8697386  70.7624283  29.1994591  55.8298187
  71.1316452  28.3375149  56.0220795  71.3999329  29.6078777  55.2441444
  66.1159439  48.8479195  40.3724442  66.9185486  48.7026062  40.8733788
  65.4454041  49.0097885  41.0360794  61.8475914  25.8245869  65.9464493
  61.5408897  26.6452675  65.5609055  62.6787224  26.0517254  66.3634186
  34.0451012  10.1899748  85.9092407  33.9050522  10.0425968  86.8446045
  34.8768883  10.6613712  85.8629532  75.7687378  23.6513042  55.0649071
  76.0767136  22.8084011  54.7318993  76.1905746  24.3000202  54.5014801
  19.3568764  60.4337959  39.1585197  18.9989281  59.5539474  39.2767372
  20.0358982  60.3285828  38.4921188   9.9918003  49.6539993  72.6417389
  10.3442764  50.5256920  72.4624557   9.0489798  49.7911911  72.7339325
  79.4974289   7.1774697  34.6881065  80.4016113   7.2163863  34.9998474
  79.2877884   8.0800562  34.4480705  81.5863647  44.1980858  41.2752228
  81.1052170  44.9927483  41.5059738  81.0153351  43.7437096  40.6557884
  32.2642784  48.6568565  20.6953487  32.8170586  49.4140625  20.8885059
  31.9673843  48.3520966  21.5527897  31.1131783   7.5657873  88.2192383
  32.0163307   7.6111555  87.9054184  31.1841393   7.6661725  89.1685104
  50.8596764  25.4176655  74.9798813  50.9173241  24.9390316  75.8068161
  50.7112923  26.3270092  75.2393188  40.3319359  35.1384315  16.5818520
  41.1999893  35.5152130  16.7259121  40.4069901  34.6762428  15.7469997
  55.3478050  15.1048021  40.8807793  55.1738281  14.3357944  41.4235420
  54.4801064  15.4275990  40.6376038  34.2715302  57.4905586  59.3491402
  34.8457756  56.7554207  59.5637245  34.8616753  58.2398643  59.2685013
  48.5048637  60.6559792  17.6311836  47.5544014  60.6088066  17.7342739
  48.8523712  60.3183212  18.4566879  74.7933044  33.8544540   7.8534603
  75.3192520  33.6256409   7.0871353  75.0149994  33.1879959   8.5037794
  60.3126602  60.9354248  54.5084000  59.6008530  60.3832207  54.8318710
  60.9736748  60.9036407  55.1999779  82.3111725  58.8359985  74.5687790
  81.8043365  58.9302406  73.7622681  81.6727371  58.9679031  75.2696609
  72.1008224  54.7622871  34.9445152  72.5779190  55.3705940  35.5089417
  72.2867203  55.0644951  34.0555000  79.3530197  50.4023590  57.1216583
  78.5452576  50.0060425  57.4482765  80.0070572  50.1988373  57.7902756
  47.4275551  36.4984703  32.8062172  47.1439171  37.3985138  32.9665298
  48.3157043  36.5853043  32.4599800  70.5327682  69.6094131  24.2664375
  69.5977936  69.8144379  24.2624836  70.8861542  70.1168442  24.9970989
  30.2971745  52.3282356  38.3874245  30.3060684  51.3724556  38.4387856
  31.0195599  52.6051178  38.9510956  41.0352058  24.0705967  12.5231400
  41.9031754  23.6772137  12.6131887  40.5786705  23.8306694  13.3295183
  37.5095177  29.5431919  68.6333237  36.7702599  30.0308495  68.2701187
  37.7022934  29.9822979  69.4617310  37.2146187  49.1099510  85.1004944
  37.5870361  49.9581947  85.3413696  37.8883972  48.4749031  85.3433228
  52.5094795  35.4439316  53.8071213  53.3179169  35.1940613  53.3596535
  52.6591530  35.2067757  54.7223167  47.1329918  18.1988449  69.2713699
  47.7167778  18.8749771  68.9274673  47.3248901  17.4248066  68.7419662
  76.6196976  43.7104378  59.7131386  76.3081131  43.1329880  60.4100609
  75.8456726  43.8752136  59.1746521  61.2258835  59.1589508  42.8246803
  62.0394821  58.6769981  42.6763268  61.2120132  59.3208694  43.7679825
  35.8524094  63.0642395  48.8163300  36.4818764  63.1195869  48.0973434
  35.5143852  62.1698875  48.7704086  70.2531967  11.1251488  85.1548691
  70.8556137  10.6380138  85.7170334  70.1804657  10.5921469  84.3631287
  58.5082817  47.4083023  73.3767548  59.1311760  47.7563515  72.7387161
  57.9914055  46.7710381  72.8838501  68.7270660  28.7406139  24.1026077
  68.2710114  27.9393635  24.3599834  69.2992935  28.9391308  24.8438091
   6.1284266  59.4271851  44.6252899   5.2338772  59.1858482  44.3849373
   6.1774774  60.3673897  44.4525261  60.4656143  54.8461418  23.9415016
  59.9619865  54.2570305  24.5032272  60.8230286  55.5012856  24.5408974
  63.9912148  40.1897964  82.5835114  63.8639832  40.8138847  81.8689804
  63.5062675  39.4109993  82.3105011  54.1663933  57.7149963  58.6414490
  54.1662025  57.5639114  59.5866508  53.4071350  57.2281456  58.3209229
  74.7536011  36.8968010  84.9650040  74.9887695  36.8308067  85.8905182
  75.5436096  37.2312164  84.5404053  79.1814957  61.0169296   2.4873247
  79.8451843  61.6043777   2.8487892  79.3600388  60.1715202   2.8991930
  70.0857697  46.6076736   2.3732395  70.0408936  46.6767540   1.4195912
  70.5153198  47.4163780   2.6520128  65.1458740  65.3471222  42.2004776
  64.3087616  65.1159973  41.7979012  65.7315140  64.6274109  41.9653778
  19.1285553  27.7967205  20.0473042  19.7144470  28.2558403  19.4454956
  18.4096737  27.4902420  19.4945755  46.6337738  39.1293869  45.3177681
  46.6784096  38.2464714  45.6847839  45.8683815  39.5240669  45.7356606
  83.4784393  61.8757095   9.1502028  84.3816757  61.7684097   8.8520756
  83.4520950  62.7573242   9.5220785  24.0235252  16.8708687  33.0796204
  24.4076481  16.0279369  32.8384857  24.4036732  17.4933949  32.4597969
  37.2339478  43.3434486  75.6771164  38.1029053  43.3919449  76.0755997
  37.3885803  43.4998970  74.7455368  30.2550259  24.7002506   6.3400669
  30.5309010  24.1458282   7.0699582  30.7408791  25.5159283   6.4619136
   9.5949450  68.2544937   7.1603370   9.0408049  68.1526413   6.3865237
   9.0753145  67.8898087   7.8767290   3.6345510  14.9435568  55.1771851
   4.0001473  14.9302454  54.2926521   4.3723168  15.1838980  55.7376938
  52.4783020  68.0714340  79.2773743  53.4176369  68.2245178  79.3795776
  52.1154823  68.2167740  80.1511459  52.7550430   5.9053268  88.1460266
  52.6421890   5.4649954  87.3036499  51.9932022   5.6378016  88.6600952
  75.1625366  26.8202763  49.8505974  74.9471588  27.2130833  49.0046997
  75.6944275  27.4816017  50.2932930  26.0144558  10.0308380  70.6185913
  25.2669201  10.6181068  70.7305527  25.6315823   9.1535501  70.6161804
  55.9055099  45.7992592  54.8468399  54.9720802  45.9179688  55.0224800
  55.9439201  45.0505295  54.2517242  78.0032578  51.8284187  18.9262371
  77.9690704  52.7769203  19.0503693  78.9120941  51.6512146  18.6836529
  75.1543655  12.4510851  64.1814880  75.5718536  11.9616365  64.8902740
  75.8775177  12.7076645  63.6092567  51.1114426  17.7277431  40.0706520
  52.0483398  17.8959980  39.9699211  50.9551811  17.7990189  41.0123177
  63.3359413  43.4931564  86.0213089  62.7806168  43.2292595  85.2876816
  63.5219688  42.6774902  86.4864044  76.8446274   5.2683730  77.6171417
  77.6004333   5.7349572  77.2603607  76.8648682   5.4610229  78.5545349
  28.8830566  10.0149441  66.9474411  29.2165680   9.7424164  66.0926132
  29.0092258   9.2499342  67.5087509  44.6896362  41.4193001  24.1961880
  44.1563873  41.1746597  24.9525146  44.2160873  42.1479530  23.7948780
  23.5598450  31.8567467   3.9782355  23.9930248  31.0381527   4.2200894
  24.1398716  32.5419006   4.3104472  34.2665558  37.0501747  84.8867950
  34.8749313  37.0286484  85.6254807  33.6314735  37.7275810  85.1192245
  35.3539772  16.6358871   9.9959068  34.4468956  16.9410667  10.0132551
  35.7232666  17.0272923   9.2042885  41.3456879  49.6162071  57.1433983
  41.7484436  49.2076035  56.3771973  40.4045830  49.5100288  57.0045471
  75.7432709  11.1320648  88.2961197  76.0578156  10.5035191  88.9459076
  74.7982559  11.1749430  88.4422302  68.7246628  58.6064911  21.7670155
  68.1741486  59.3818283  21.8766365  68.1055832  57.8780212  21.7190094
   9.8426743  18.8085651  77.6035385  10.5786610  18.4893742  78.1257172
   9.7727766  19.7359829  77.8299103  85.9278488   0.4445761  41.6250496
  85.1722946   0.5273497  41.0432281  85.8941269  -0.4607383  41.9340820
  47.6300201  19.9213543  41.7790260  47.5545921  19.5455971  42.6561508
  48.1229019  20.7318249  41.9072380  65.4253769  67.9554596   5.3468413
  66.1027069  67.3994293   4.9617624  65.2096481  67.5301895   6.1768050
  84.2962646  65.8721619  63.1888237  83.5968094  65.3352280  62.8164101
  83.8489456  66.6488724  63.5247498   8.5086365  44.8257217  22.3693943
   7.6351910  45.2132111  22.4257603   9.0935841  45.5032806  22.7084866
  76.8323441  30.0199318  60.5922127  76.3915329  30.7567711  60.1691475
  77.7034836  30.3533440  60.8071365  70.7580261  28.7001400  31.8246937
  71.4924393  28.0978928  31.7056770  71.1264496  29.4324150  32.3189316
  78.2205505  62.3227997  78.5716476  79.1462708  62.1002884  78.4728241
  78.1709518  63.2500229  78.3392029  52.2229958  27.2631836  38.1183167
  51.4446220  27.5551567  38.5927849  51.9293442  26.4975719  37.6245155
  53.9932747  26.1554718  49.0540352  54.9397202  26.0138493  49.0336456
  53.8568573  26.7572746  49.7857819  67.8262329  38.4459648  80.1298523
  67.4321823  37.6877213  79.6985397  67.5482407  38.3734055  81.0429153
  62.6345329  62.2241440  34.3285408  62.6617317  61.7054825  33.5245018
  61.8301697  61.9454727  34.7662315  59.3889847  65.1656113  41.2564545
  58.6487160  64.8234329  41.7576027  59.2341118  64.8610992  40.3622971
  77.4912796  13.8461065  13.8149700  77.8462448  14.7023611  13.5761042
  76.6935577  13.7632961  13.2924538   5.5941339  70.0762482  30.3215637
   5.2172537  70.4130554  29.5086975   6.4773002  70.4445038  30.3467178
  29.3679314   8.7963610  12.7738962  30.2838249   8.8182011  12.4965982
  28.9213428   9.3923283  12.1725540  81.3303986  59.9474869  36.9482689
  81.4881210  60.8723907  37.1377525  81.6053772  59.4899445  37.7427979
   6.1369290  35.9184952  72.4967117   5.6208644  36.6996193  72.2973251
   7.0155954  36.2518921  72.6784439  32.9084473  55.1309471  37.5153465
  32.7626953  54.4028282  36.9113312  32.6629791  54.7835922  38.3728561
  54.2342873  -0.2092047  43.2443619  54.4522552   0.7227644  43.2568626
  54.2272797  -0.4411040  42.3157043   8.0963955  57.1314354  48.9674225
   8.7766581  57.4595528  48.3793640   7.3451567  56.9681549  48.3971481
  48.9012337   3.6582060  74.1352158  49.4934921   3.1743591  73.5595779
  49.3235512   3.6276741  74.9936676  20.4465866  37.8213959  82.3947067
  21.3183708  37.6552162  82.0360870  19.8621540  37.7667122  81.6386108
  77.6397171  59.3065491  71.2869720  77.0184250  59.4548073  71.9998856
  78.2489624  60.0426750  71.3432465  55.4268990  12.7293301   9.5144339
  55.1307373  12.3212786   8.7007923  56.2018700  13.2314167   9.2623158
  36.1874924  53.9993248  19.1232319  35.3286438  53.7740402  18.7656631
  36.3804131  53.2965355  19.7437992  83.0979691  22.5914726  80.2095032
  82.3460693  22.0075321  80.3089981  82.8366623  23.3966713  80.6562729
  30.9984798  70.7039566  13.0604668  31.4062309  71.0307007  13.8624697
  31.0968876  71.4199677  12.4328671  20.4100494  14.5032969  57.3201714
  19.7238884  15.1677971  57.3822365  20.5935040  14.4352350  56.3831825
   5.4163694  35.7211723  22.2076378   5.5660086  35.6742134  21.2633743
   4.7624116  36.4122505  22.3124313  24.1020756  61.5023880  74.0729599
  23.9389648  62.4442177  74.1238098  24.9869938  61.3934174  74.4212036
  83.8456268  15.5766802  87.6306839  82.8888397  15.6038122  87.6378479
  84.1033783  16.3491707  87.1276398  79.1400757  52.4608879  36.7621880
  78.8751678  53.2446747  36.2807999  79.8906479  52.7431107  37.2849007
  75.8222885  51.6828995  70.2370682  75.3104172  51.0435715  69.7416153
  76.6369019  51.2263527  70.4473190  43.2585144  23.0393944  13.4107256
  43.9634132  23.6667213  13.5713797  43.6422653  22.1884708  13.6226082
  15.5965118  69.0491333  73.8550415  16.4980011  68.9121933  73.5638351
  15.3113642  69.8355484  73.3897781  13.9199715  66.4100189  11.3767796
  14.0242214  65.7650452  10.6772308  13.9921293  67.2561646  10.9351206
  18.7223263  34.6410141  65.8759995  17.7704029  34.5848274  65.9591827
  19.0246716  33.7376633  65.9696960  40.8235817  28.4069214   4.1194358
  39.9321938  28.2372322   4.4241719  40.8976974  29.3612385   4.1153045
  36.9062729  63.1194496  25.8593330  37.5129089  62.8679466  25.1629353
  36.5846901  62.2882805  26.2085857  34.6587944   3.5165176  20.5856380
  34.2269707   3.8875523  19.8161621  33.9930954   2.9588838  20.9882812
  55.2876587   5.8717694   0.5925871  55.7663879   5.3295870  -0.0343792
  54.3824883   5.8548002   0.2817685  46.4124413  49.0332260  64.5879669
  46.9899139  49.7445488  64.3108673  46.9364204  48.2405510  64.4724731
  33.7545013  59.6206360   7.8301377  33.4961433  60.5381165   7.9179697
  34.2844391  59.5962601   7.0333924  70.3432388  25.6782684   1.1095623
  70.3250427  25.5964794   2.0630877  70.0476074  24.8256626   0.7903503
  53.4202080  59.6711884  44.7211266  53.4145126  58.7233963  44.5873871
  52.5449448  59.9554863  44.4578476  64.4765167  26.2993469  17.8616371
  64.9339676  26.6310654  18.6342525  63.6466179  25.9636078  18.2004204
  36.7327461  20.1014214  78.2746048  36.3876343  20.7151184  78.9230728
  37.2759781  19.4978447  78.7813797   2.8896997  27.2120037  27.6554298
   3.6636503  27.7718945  27.5941410   3.1612861  26.3837967  27.2597713
  12.8482046  37.2737465  15.6653185  12.3014965  37.5431557  14.9272404
  13.0364704  36.3500404  15.4993172  15.7173395   4.6772661  58.3041534
  15.9652987   5.5044312  58.7171288  16.3942986   4.5265474  57.6444244
   2.4853358  11.0747938  18.4836369   1.5324858  10.9941950  18.4410610
   2.6419232  11.6893406  19.2006054  37.3773270  14.7457991  22.5359955
  38.0147018  14.1133528  22.2043324  37.1360626  15.2667952  21.7701054
  76.7413940  68.9398880  59.7659760  75.8341522  68.6486435  59.6747169
  77.1128922  68.3611984  60.4318161  27.1889248  48.5102158  13.4553347
  27.5132389  47.6139870  13.3668604  27.2092705  48.6804161  14.3970613
  57.0743408  39.3509331  14.6090775  56.3813629  38.6913185  14.5787973
  56.7386131  40.0240326  15.2010679  14.3639078  59.6624756  66.0130615
  13.6664505  60.0358543  65.4742050  14.1834536  58.7224693  66.0207443
  39.5199661  16.3096581   8.9521685  40.2031212  16.0320435   9.5624647
  38.7124138  15.9456024   9.3148708  59.9447021   9.1859083  28.6289310
  60.0386124  10.0011063  29.1217442  59.1715965   8.7658548  29.0058899
  65.1295853   3.2357955  85.0836334  64.1777496   3.3330715  85.1113815
  65.4564362   4.1217647  84.9272308  49.0635986  64.8572464  72.0363922
  49.0848999  65.8139343  72.0593185  48.8124237  64.6019211  72.9240570
  85.3078079  46.5018387  81.8554916  86.1928864  46.4861412  82.2196732
  84.8307190  45.8406754  82.3569717  69.9770660  52.1464729  81.6138077
  69.2216034  52.0083122  81.0424728  70.1155701  51.2990723  82.0368500
  25.6945534  23.0394726  71.7864532  26.0583267  23.7824135  72.2680588
  24.9146080  22.7911110  72.2826691  62.2121353  13.2541685  43.4045410
  62.7149391  13.9743023  43.7851028  61.6559296  13.6717100  42.7468758
  79.6319122  20.1371136  53.6298714  79.9996033  19.6009979  54.3324509
  80.3193970  20.1641445  52.9643898   3.7590170  10.9191513   0.6997131
   3.9276035   9.9960327   0.5108662   4.4563088  11.1709862   1.3051840
  26.1581707   9.6804113   4.9421062  26.5386925  10.4216385   4.4709196
  26.5298672   9.7397528   5.8221927  66.9476242  67.6787262  82.4032822
  67.5316772  66.9493179  82.1957169  66.1972427  67.5577469  81.8214569
  59.5148430  38.2588844  47.4108658  60.2122765  37.9310036  46.8431435
  59.8801651  39.0502815  47.8064194  54.6842804  60.1689491  87.8162842
  54.0970497  60.0885124  88.5678940  55.5234718  60.4308739  88.1949463
   1.0959780  31.1570072   0.1786684   1.9340311  31.5752907  -0.0186591
   0.4389874  31.7669334  -0.1568692  46.3216515  34.3554497  19.2163181
  47.2628517  34.5274582  19.1882458  45.9177513  35.2003517  19.0182362
  76.5920105  36.7718163  16.9552364  75.7662506  37.0316582  16.5467777
  77.2408752  36.8526802  16.2561893  62.5011597  48.9724274  51.8353539
  62.4292068  49.7782516  51.3237839  63.4421272  48.8046188  51.8868256
  26.9881134  57.3709869  21.1400757  26.1396332  57.5737267  21.5340424
  27.5948410  57.9899063  21.5463448  43.8996086  67.4659424  70.0499039
  43.8419228  68.0416641  70.8124313  44.8383255  67.3250885  69.9266052
  51.3485298  36.2532043  84.0631027  50.7291107  36.9765434  84.1597214
  50.8495216  35.4755516  84.3130569   2.4048264   7.1286612  86.5359955
   2.2375007   7.0712705  85.5952835   3.0551317   6.4470720  86.7056122
  55.3793335  48.4186363  41.0977669  55.3772202  49.3185005  40.7714615
  54.9548111  48.4733276  41.9539337  85.5405045  18.2495708  35.6163292
  84.9281387  18.8911304  35.9763908  85.4207230  18.3098030  34.6685638
   3.5223913  38.9656487  83.0403671   4.1567035  39.3604660  83.6387024
   3.3323016  39.6548805  82.4039230  80.2121201  18.1894321  26.7307167
  80.8358612  17.5410175  26.4040089  80.7574539  18.8619709  27.1388016
  56.3124733   4.8529234  78.7424545  57.2523155   5.0226412  78.8066559
  55.9065208   5.7147021  78.8361053   4.4432840  52.0370789  61.6139679
   5.1756487  51.6739311  62.1119614   4.6169019  52.9779358  61.5843697
  61.0004501  37.8968277  68.9880905  61.9204102  38.0812607  69.1775360
  60.8743820  38.2045403  68.0905151  17.2536621  58.5519295  10.9579782
  17.5148430  57.6505318  11.1463881  17.8546696  58.8365021  10.2694721
  82.5522766  59.1219597  29.1354332  82.5206909  58.1663132  29.0909863
  81.8462982  59.3571892  29.7375088   2.8060443  16.3585873  76.2261353
   2.7244811  15.7574091  75.4857559   3.5919292  16.0653934  76.6872787
  47.4626617  68.5505447   7.2674742  47.2111244  68.2700272   6.3875470
  46.7286263  69.0870209   7.5668278  18.9059353  65.6929855  42.9400940
  18.9264355  65.3329315  42.0534325  19.8088627  65.9610443  43.1106834
   5.3845706  41.8628922  13.2293844   6.2161422  41.4233017  13.0519619
   5.5060081  42.7503548  12.8919001  47.6683388  70.2216339  83.0497360
  47.6730042  69.2726440  83.1747742  46.7708473  70.4239960  82.7855606
  18.7333164  43.3018074  68.6367493  19.2326088  42.6990089  68.0857697
  19.3047504  44.0630379  68.7378540  71.1389389  13.7111425  35.0788727
  70.3819885  13.8685732  34.5145416  71.8855133  13.6976547  34.4799728
   1.4241561  25.9119911  32.1823044   1.7099153  25.1402206  31.6934853
   0.5304902  26.0706921  31.8783169  81.1885910  50.7512131  61.8487968
  81.0569687  51.2548637  62.6520691  81.1112442  49.8375664  62.1235695
  48.5826759  15.0925922  52.6842041  48.4032936  14.6194181  53.4967079
  49.1657677  14.5134277  52.1934891   1.9558535  58.5045357  28.8500900
   2.2603476  57.7011490  28.4280834   1.0090078  58.5047913  28.7096806
  53.1673012  26.9055309  81.1375961  52.2408638  26.6928768  81.2503815
  53.1661491  27.7389698  80.6668396  54.3588486  32.8530579  46.7199364
  53.4767838  32.4814415  46.7297554  54.9315605  32.1162300  46.9328194
  56.8476105  54.5486221  26.5338879  56.2012825  54.7913895  27.1968784
  56.5632553  55.0068741  25.7430820  54.5546227  17.2495556  71.1370316
  54.0036201  16.8748398  71.8242111  54.6200943  16.5577965  70.4786911
   9.2506628  25.3052483  16.1613750   9.4236450  24.6908646  15.4480419
   9.2069769  26.1611328  15.7350130  75.2036057  43.3032837  67.9714890
  75.3233032  43.2138329  68.9169540  75.8702927  43.9360962  67.7044678
  12.7878485  46.5707054  47.4009476  13.4785433  47.1381340  47.7432899
  12.6606503  46.8655357  46.4992142  47.5953674  44.8784790   3.6212049
  46.8540802  44.3079033   3.8241036  47.9003983  44.5793915   2.7646232
  24.2188148  46.5337105  27.3448849  23.7207203  47.3333740  27.1755486
  24.0590744  45.9849243  26.5770645  81.1879272  37.9217873  37.5644951
  80.4371033  37.7410545  38.1300316  81.7208176  38.5402565  38.0642433
  52.7286530  52.9677467  27.7339706  52.8474464  53.0220032  26.7857208
  52.3584023  52.0971413  27.8795452  17.6652927  44.0497513  64.9578400
  18.0754395  44.8408585  65.3073578  17.4722805  43.5186729  65.7304611
  52.7386169  66.1782227  36.4570465  53.3954926  65.5228806  36.2219467
  52.1231461  66.1741333  35.7239647  62.1799202  35.2608109  -0.0121023
  63.1335640  35.1823692   0.0132397  62.0005188  36.1233444   0.3621746
  37.5017052  31.2441616  16.3046970  37.8449860  32.0150261  16.7565308
  37.0431404  30.7518711  16.9855785   9.1480656  17.1022263  72.8671417
   8.1938505  17.1769333  72.8783417   9.3199377  16.1923504  73.1096649
  11.6186333  65.4930954  12.6379242  11.5273294  64.6314316  12.2312031
  12.5006084  65.7783737  12.3992376  53.5484161   9.0177422  55.8401184
  53.9249725   8.5995483  56.6144257  52.7028961   9.3542175  56.1369514
  53.4068832  49.2411842  57.4729652  52.9656219  49.6203461  56.7128601
  53.6606712  49.9961548  58.0038528  39.7996941  16.2405872  77.2315445
  39.3821068  17.0308762  76.8890610  40.1722832  15.8131618  76.4603653
   7.9976773  33.2727928  43.7365074   8.2139683  34.0348892  43.1992378
   7.8612685  32.5659332  43.1056557   1.7029120  41.8925858  43.6709366
   2.2359576  42.6412201  43.9385986   0.8570336  42.2731552  43.4345284
  67.1248474  68.9111938  59.1721001  67.5246964  69.4177322  58.4651604
  67.4938965  68.0332413  59.0760689   8.7066727  34.8797188  35.8110809
   8.8518047  34.7490349  34.8740158   7.7554760  34.9390907  35.9001389
  14.8659086  43.0748901  49.4425507  15.0047321  44.0015984  49.6379280
  14.0135860  42.8737144  49.8289528  12.4431620  66.7529984   4.4435344
  12.0030146  66.3046494   5.1656742  11.7738647  66.8253937   3.7630699
  16.1240788  53.3554955   3.7905450  15.3882074  53.3259583   3.1791110
  16.0253105  54.1927071   4.2439237  20.8667011  30.5222645  70.4551620
  21.7654533  30.2648258  70.2497330  20.9606590  31.2581348  71.0600586
  48.8036995  55.6353912   8.3226204  48.1003876  55.3627625   8.9119091
  49.1990967  54.8156128   8.0262175  34.3575020  35.7494583   0.9815786
  33.4322701  35.5573463   1.1341213  34.7234344  35.8756027   1.8570297
  64.1262894  69.5452042   0.1307375  64.5493393  68.8417969  -0.3616846
  64.3641052  69.3759766   1.0423523  81.4522934  24.9344959  71.2479248
  81.2061005  25.7305965  70.7769165  80.6215591  24.4908104  71.4189758
  45.9341393   4.2275996  64.5595627  45.9026146   4.8210740  63.8092079
  45.0990295   3.7606955  64.5308990  25.5025177  27.3848228   3.5404761
  25.9062977  26.5889454   3.8865602  24.9397030  27.0781898   2.8295281
  43.7720261  48.3890228  71.8663483  43.8275070  47.8746681  71.0609970
  43.1731186  47.8943672  72.4256897  72.2603073  18.7905846  72.5760956
  71.7513657  19.2374973  71.8997192  72.9174347  19.4326134  72.8448181
  73.3367844  17.5363083  32.1568298  73.9998932  18.1555119  31.8516960
  73.3129501  16.8586521  31.4812222  63.2136345  49.6610527  66.2272263
  62.3812408  49.6271935  65.7558365  63.8089027  49.1274681  65.7007523
  30.9955730  23.6088734  76.8647537  30.7233295  23.0044842  76.1742249
  30.1759911  23.9044533  77.2611771   8.0083799  27.5647545  44.6834145
   8.6707420  28.2230434  44.8935699   7.3207312  28.0529461  44.2306023
  64.0767899  18.9097652  33.6589737  63.7148094  18.0602875  33.4068031
  64.8975906  18.9747925  33.1708221   4.5046754  34.3403397  63.6669693
   5.2194963  33.7610664  63.4029541   4.3403945  34.8844261  62.8967667
  64.6239700  49.7096977  42.8344154  63.8183403  49.3556366  42.4578056
  64.4564743  50.6483231  42.9190331  78.9818192  48.3863449   4.0228658
  78.9372940  47.7705460   4.7543297  79.8349380  48.2204666   3.6217234
  16.4558887  60.3073044  61.2806435  16.7489929  59.5077171  60.8436241
  16.0968609  60.0062218  62.1153183  81.1552048  35.4465866  50.8092957
  81.5519791  36.3175659  50.8232880  80.7714767  35.3722115  49.9355392
  34.6586113  63.8936729  12.5745544  35.2824821  63.1850319  12.7321758
  33.8833084  63.6467781  13.0787230  49.0602722   7.0988164  55.8466072
  48.3296204   7.5176816  55.3917122  48.9992523   6.1761951  55.5990639
  40.9780312  19.4225292  74.3117599  40.8542595  18.8322449  75.0550537
  40.1339188  19.4196091  73.8604431  41.9738960  64.1341248  36.6208954
  42.2950249  63.5556259  37.3125916  41.1722984  64.5146637  36.9798622
  34.6192245  33.0249748  67.7528992  35.0867310  32.2089500  67.9311447
  34.8428001  33.2360115  66.8464203  64.8213577  52.5006371  17.0577049
  65.0358124  53.0173378  16.2810040  65.3908920  51.7334900  16.9997864
  59.7081833  35.3521729  78.4908447  59.7663651  36.0655937  79.1263580
  58.9351921  35.5610657  77.9663620  49.6565514  71.0147171  37.1952553
  48.8218956  71.0399170  37.6631660  49.5769005  71.6949768  36.5265694
  11.7576923  47.8868408   2.9135761  11.5102549  47.6436043   3.8056760
  12.5075798  48.4714050   3.0239644  52.0354729  64.5917053  29.9604359
  51.0892410  64.4515915  29.9250488  52.4109230  63.7163277  29.8656425
  82.3675461  34.1724243  21.4380379  82.6311035  33.8954926  20.5604992
  81.4917374  33.8035545  21.5526562  64.2848358  38.8730354  75.1620483
  64.7953644  38.1131630  75.4416733  63.8123016  38.5717125  74.3860703
  81.9711456   8.6927042  24.8900108  82.0197830   9.4997177  25.4024506
  82.5861053   8.0984774  25.3200665  73.5690002  55.8670692   5.3116884
  72.9104767  56.5546455   5.2126346  73.0612717  55.0659027   5.4404173
  69.1953125  49.3640022  56.7873192  68.8614273  49.0018311  55.9665947
  68.4475632  49.3338890  57.3841438  23.6236496  21.1705494   8.6393299
  23.1012611  20.6458111   8.0327072  23.9211330  21.9153461   8.1168232
  18.3215733  13.5095263  19.1503487  18.7980804  14.1064358  19.7272987
  17.5373840  13.2728014  19.6455650   5.8084707  43.6438789  25.4154243
   6.7005792  43.8311310  25.7075062   5.6238704  44.3184357  24.7618752
  37.3083572  30.8442268  65.7478485  36.5482635  30.9230118  66.3242874
  36.9677238  31.0378075  64.8745041  38.1908989  39.9864197  42.0575676
  38.0778580  39.8314896  42.9953575  38.7422905  40.7673149  42.0085754
   7.7868114  34.0190964  38.2891121   8.4267664  33.7375031  38.9428673
   8.3016205  34.1574898  37.4940948  76.0148163  39.3067322  72.3881531
  75.5740204  39.8014145  71.6973495  76.6283493  38.7388916  71.9219208
  76.6839066  41.0830383  65.6759491  75.7367554  40.9490013  65.7099533
  76.8406906  41.4666786  64.8131256  16.5622654  60.6702728  14.0513563
  15.7348776  60.7110825  13.5717802  16.7311077  59.7341881  14.1584558
  19.6272984  11.5278673  70.6051559  20.4838219  11.5883198  70.1821365
  19.1828156  12.3403625  70.3632507  55.8170433  13.6985207  30.4224930
  56.0323067  12.9683313  31.0027676  56.6529236  14.1404762  30.2734585
  71.9769363  17.5975647  28.9426231  72.5599289  17.4619637  28.1956520
  71.9029083  18.5488300  29.0190792  16.4517708  43.5338707   0.6756330
  16.4833679  44.4175644   0.3091407  15.7901373  43.5842056   1.3655161
  67.8794708  45.0793304  67.8148422  68.0202713  45.7447701  68.4883347
  68.6309052  44.4921799  67.8974609  78.5885391  56.5931778  80.1703873
  78.6008682  57.2384224  80.8773117  77.7196579  56.6832504  79.7790222
  24.3471966  25.0696850  23.3243370  23.8965530  25.8978634  23.1591930
  24.5125084  25.0708179  24.2671547  32.6640320  48.3112221  23.6826191
  32.9936943  47.8210297  24.4357891  33.3758392  48.9098282  23.4562645
  54.8482056  11.0463657  18.5615578  55.0434189  10.8257389  19.4722977
  55.2449341  10.3388309  18.0533905   7.1436076   4.2362790  83.6542740
   7.9303927   4.7476873  83.4654312   7.2410688   3.9763107  84.5703278
  79.5044327  48.3705177  53.5745964  78.5473557  48.3609352  53.5621223
  79.7339630  48.1851921  54.4852028   5.0081329  16.7006626  24.0433655
   4.3665190  16.2841339  24.6187496   5.2067494  17.5342655  24.4698505
  82.4746323  14.9854183  83.9970551  82.1445389  15.7140760  84.5227280
  82.3326874  15.2600250  83.0911484  50.5659027   4.2805004   3.8522835
  51.0623245   4.3993979   4.6620126  50.3528252   5.1697145   3.5692141
  47.8685913  41.9603958  47.0354881  47.8810730  42.8255234  47.4449196
  47.0664482  41.5525475  47.3617744   1.8744613  52.2142296  57.6990128
   1.8632126  52.4130821  58.6352654   2.3216386  52.9610672  57.3008957
  63.3811989  16.4633656  32.6110229  63.6657829  15.9566250  33.3715858
  62.4926376  16.1536064  32.4356842  37.9574471  12.0691748   7.7281728
  37.8820343  11.6404619   6.8756762  37.1593590  12.5920744   7.8047380
  51.4152756  69.2550812  46.4361382  52.2363777  69.2708664  45.9444313
  51.6153679  68.7436142  47.2201042  79.7690582   7.4350791  84.0700378
  79.8666916   8.3835659  83.9859467  79.9282913   7.0987868  83.1881180
  17.3371029  42.8922539  40.6276398  16.7071800  42.8495903  39.9081879
  17.7314949  43.7609177  40.5494728  71.1098938  57.1671371  63.8914566
  70.4773560  57.7079659  64.3643570  70.6225052  56.8307648  63.1394310
  22.4898109  19.5164356  10.5189314  23.1956234  19.7293949   9.9084330
  22.9390163  19.2597961  11.3242769  32.0321693  63.9512901  50.8245621
  32.3403358  63.9261017  49.9186745  31.8937588  64.8811417  51.0046959
  64.3004608  21.7291412  16.4332199  63.5090332  21.3178463  16.7806549
  64.7271423  22.1127396  17.1993961   5.9741302  37.5588417  31.2046013
   5.4300208  37.6519547  30.4226131   6.6262565  36.9001770  30.9655952
  58.7285576  16.8574448  56.2144547  59.0302353  17.4150105  55.4972763
  59.1656647  16.0189037  56.0660706  32.1463089  47.9540787  68.1186905
  32.9734764  48.4094925  67.9617615  31.9108124  48.1877899  69.0165482
  43.1332016  69.6286621  63.9464836  42.7405396  68.9242325  63.4308891
  43.6530457  70.1263046  63.3153381  71.6664200  51.2771721  10.6645088
  72.0382843  52.0812492  10.3020067  71.2553558  51.5516968  11.4841967
  32.7770844  45.5459518  11.3149557  32.9560471  46.2889023  10.7385607
  32.9009132  44.7764473  10.7592936  20.0716019  69.4356461  53.3391495
  20.3861675  70.1951447  52.8488083  20.8053627  68.8211136  53.3255653
  75.7232132   0.7703679  52.5408859  76.2681961   1.4835285  52.2082748
  76.2583160  -0.0146128  52.4238205  25.8661823  18.8228397  73.2176132
  26.6358700  19.0185776  73.7519302  25.3455734  19.6256371  73.2443924
  46.3808098  25.1195259  86.8843307  47.0938911  25.4089260  86.3151245
  45.6305237  25.0226021  86.2978897  54.8188629  64.8180008  46.7597809
  54.8382988  65.7743149  46.7235413  54.3626938  64.6185226  47.5773087
  67.2009354  33.9242630  19.4685211  66.2778702  34.1032867  19.6477547
  67.6733246  34.3853188  20.1617107  38.6438065  51.6914940  30.4110584
  37.8522911  51.1784058  30.5737724  39.1753426  51.5677223  31.1974297
  35.7514648  42.6118279  24.0863380  35.2566032  42.1264038  23.4262543
  35.1078148  42.8189697  24.7638645  85.6769409  12.8436766  23.4576263
  86.5411301  12.4325705  23.4375248  85.7699585  13.5665255  24.0781670
  48.0483589  40.8984108  12.6087580  48.0929070  41.2240410  11.7097511
  47.7183952  40.0039406  12.5234365  79.6711884  56.7288742  44.6240044
  79.3047867  57.3365974  43.9816246  79.2574768  56.9763107  45.4509583
  51.2874336  70.0147705   4.6372242  51.5028610  70.0298920   5.5697441
  50.9518929  70.8924408   4.4546542  33.4540825  46.0538864  61.2096138
  33.3469048  45.5539856  62.0188408  33.4281082  45.3949585  60.5158081
  75.1593552  58.2702599  30.3424740  74.4480972  58.8014069  30.7005653
  74.7184830  57.6020088  29.8177738  77.8255844  55.3201408  53.4115944
  78.3852005  55.7899704  52.7932663  78.3291397  55.3035202  54.2254715
  66.0919037  51.7003212  47.9127083  65.1759720  51.6521149  48.1865120
  66.2031555  50.9593277  47.3170700   9.5062971  57.7795639  75.9121628
   9.7656078  57.5112839  75.0306778   8.8292971  57.1515770  76.1642227
  42.4170876  47.1024284  12.1623211  42.1866684  46.5743561  11.3979425
  42.6329041  46.4616623  12.8398714  80.7814331  66.6377945  10.0269594
  81.2416077  67.1551056   9.3660040  81.4428940  66.0310593  10.3594856
  32.4131165  71.3120346  22.7315331  33.1523705  70.7124252  22.6305141
  32.1456871  71.2107773  23.6450195  54.1657257  36.1448517  10.4529781
  53.2381248  35.9943962  10.2709150  54.5269966  35.2698402  10.5946550
  82.2951508  23.4457970  68.2690506  82.4248581  22.6510792  67.7515259
  82.4600754  24.1611767  67.6548386  81.1983109  61.3014374  79.3567810
  80.8965378  60.5125847  79.8072052  81.4714127  61.8895988  80.0608444
  50.1292992  37.4353142  12.9527617  50.8498421  37.8201332  12.4537964
  50.2060661  37.8250351  13.8236561  48.5631828  35.3437958  41.0597839
  47.7182503  35.7839050  41.1526794  49.0244522  35.8496399  40.3907700
  55.1753960  59.6063271   2.2160244  54.5117416  60.2636642   2.0069799
  55.7602463  60.0446014   2.8341644  80.3122025  10.8473234  45.3962860
  79.6238632  11.4104671  45.0423203  80.3539200  10.1091156  44.7883873
  60.8364944  21.1070023  28.6093006  61.0922546  21.7005348  29.3153706
  59.9723778  20.7861385  28.8673363  15.4372225  11.9973898  17.3645306
  16.3813000  11.9706717  17.5202007  15.3358850  12.5707464  16.6047764
  70.5796280  71.4779587  50.3731194  70.2289047  70.5999069  50.2239838
  71.4523849  71.3286819  50.7367783  40.0384521  71.3379974  21.6137466
  40.2531204  70.5401688  21.1304073  39.9319725  72.0066223  20.9371109
  84.5351562  69.8406143  33.9739075  84.8276596  68.9751968  33.6880455
  85.3349686  70.3655548  34.0050888  33.2350655  60.7958298  64.8296738
  34.1086655  61.1798363  64.9044571  33.3146172  60.1555290  64.1226273
  47.6424789  63.9101524  52.5248108  48.0122681  63.1473618  52.9693718
  47.9702110  63.8467407  51.6277008  84.2481003  30.3567600  41.0146675
  83.3690720  30.0291328  40.8243904  84.5994873  29.7405109  41.6573143
  28.3798637  20.5010986   6.6671872  27.9440994  19.9195042   7.2901549
  29.1049442  19.9809952   6.3208027  44.1109428   8.6271601  20.7445698
  43.2776985   9.0345707  20.5080242  43.8660469   7.8824835  21.2938538
  59.9714279   7.4649763  62.3644028  59.9610367   8.3743181  62.6631050
  59.1009331   7.1314998  62.5818062  61.5832367  48.6011696  68.6182251
  60.8665237  49.0757446  68.1971130  62.3313179  49.1954041  68.5591125
   3.5070379  42.6183243  55.4153786   4.3356085  42.1390686  55.4111633
   3.4803829  43.0430717  56.2727661  22.4199486   4.9283357  27.5210438
  23.1543465   4.3509436  27.7296352  22.7920742   5.8097134  27.5514908
  25.2542210  54.7575989   8.8764935  24.4162750  54.8010063   8.4158459
  25.8602142  55.2441673   8.3176975  71.2191849  15.3069258  47.8446770
  72.0143204  15.2198429  48.3704300  70.6189651  15.8056402  48.3989792
  42.2525558   3.8429215  42.3831139  42.4781685   3.1345313  42.9860344
  42.7690468   3.6625443  41.5976639  49.1300621   2.0615013  70.3733749
  49.4346695   1.8360162  71.2523499  49.1023293   3.0182819  70.3675995
  74.0247040  70.8623657  39.8483238  73.8079376  71.6180725  40.3943558
  74.4718857  71.2359619  39.0889282  39.0671844  16.7187347  13.0326881
  39.6735420  17.3456020  12.6382275  38.2612076  17.2172680  13.1672049
  63.1676331  28.0803242  84.9435806  63.0042191  28.3878670  85.8351822
  64.1209488  28.0202694  84.8818893   9.5047150  54.8681221  75.0066681
   9.6487675  55.4153748  74.2346649   8.6972294  55.2069702  75.3931656
  78.1863174  26.6126232  68.4756851  77.3237228  26.4415989  68.0976486
  78.7765656  26.0285492  67.9995575  62.9832687  -0.0885416  67.1995926
  62.6436577   0.7562613  66.9042892  63.8457909   0.1135486  67.5621490
  16.0014706  63.1128578  23.7725544  16.7361412  63.7224541  23.8424644
  15.8290100  62.8412285  24.6740570  11.5358725  59.6288109   1.0498425
  11.2481947  58.7629166   1.3391513  11.2295485  59.6931152   0.1452640
  62.9475441  60.6122322  22.5985966  63.3714142  61.3297920  23.0694199
  62.1975784  61.0199165  22.1654987  70.4222183  68.4480515  36.5474472
  70.0860062  67.5571671  36.6449852  70.1788788  68.6996841  35.6565475
  80.3425140  19.1738377  41.9929237  80.8835373  18.7826214  42.6788330
  80.6410141  20.0818272  41.9411125  38.2439079  26.2138329  45.1655540
  38.5172844  27.0298347  44.7464600  38.8244362  25.5485535  44.7959290
  41.4010239  60.2220612  17.2002220  42.0190849  60.9179573  17.4237404
  41.1487198  60.4072456  16.2956333  38.5704346   0.7748292  84.0936966
  38.6717529   1.6923690  83.8405380  38.4897346   0.3048796  83.2637177
  75.7022018  61.7336349  10.3253517  76.4730301  61.1877861  10.4805861
  75.0484085  61.4060211  10.9429760   9.3928757  28.8803406  67.8132172
   9.7401609  28.1813831  68.3673706   8.8277283  29.3887329  68.3949203
  71.5781631  70.6289825  20.1554432  71.6266861  71.1436234  20.9610596
  72.4705887  70.6408920  19.8095036  85.5106277  60.1178169  59.0375481
  85.4465332  60.5555611  58.1887207  85.3945999  59.1889954  58.8374023
  76.2604828  39.4147072  51.8573799  76.7900696  38.7654495  52.3202362
  76.6418839  40.2565422  52.1065292  52.1860580  39.1068382  64.3210526
  52.4333725  39.3917465  63.4413414  51.2375450  38.9863358  64.2759781
  20.0896244   2.2982826  65.1175919  20.4964314   1.7096682  65.7534180
  20.8229237   2.7765684  64.7306213  15.8195019  17.1125641  22.6380844
  15.2734461  16.9963303  23.4156094  16.6014671  17.5614033  22.9594975
  50.5551758  52.8594818   7.7471848  51.5118217  52.8920059   7.7454948
  50.3346138  52.2608643   7.0335717  51.1324120  27.8004150  13.3027058
  51.9281120  27.2769566  13.3980312  51.2489815  28.5270462  13.9147940
  67.2640915  41.7576752  65.2643814  67.7991562  40.9722977  65.3789215
  67.8777695  42.4219208  64.9506607   5.1307645  58.7365723  38.0634804
   5.7268825  58.7863731  38.8107414   5.4807458  58.0269661  37.5247765
  62.0090027  22.0225735  46.8607407  62.3333206  22.2416115  45.9872017
  62.7985153  21.8430672  47.3713036  63.9977226  31.1381454  42.0113525
  64.5345230  31.9302826  41.9868927  63.8613930  30.9126911  41.0911293
  77.1697083  21.7795582  70.7504807  76.2462921  21.6018486  70.5717087
  77.6135483  21.5963364  69.9224319   4.4373684   1.2572682  73.8469543
   3.7658410   1.1408342  73.1748505   3.9634693   1.1797245  74.6749878
  25.7462921  34.7944260  33.7920837  25.5983734  35.5662613  34.3385544
  25.2795467  34.9841728  32.9782181  71.8270340   3.9306095  15.9197540
  72.4201736   4.2565546  16.5966473  71.9562607   4.5257225  15.1812601
  17.7418137  66.2323914  23.8499355  17.0741482  66.2730408  23.1652451
  17.3994007  66.7862244  24.5515480  37.1726379  54.1871643  75.8928757
  36.3754616  54.6264534  76.1891174  37.1015129  53.2994919  76.2438889
  17.4237099  34.7548370  48.2372131  18.0698929  35.1192284  48.8421097
  17.2993565  35.4386864  47.5790939  37.2801323  52.8592949  62.3955917
  36.5290298  52.4717484  61.9462738  37.0719833  52.7754326  63.3261147
  55.2447968  27.1251659  71.2567749  55.1699142  28.0704975  71.1265106
  54.4188423  26.8742123  71.6703644  21.7873688  45.4451523  70.2010040
  22.2966919  46.2229919  69.9734344  22.3166962  44.9967690  70.8605499
  74.3333664  37.6237640  34.2266273  74.8262405  37.1688156  33.5437469
  73.7568130  38.2201042  33.7489243  31.4717979  18.9563732  11.8882036
  31.7097740  18.3215714  12.5639448  31.8571053  19.7800674  12.1870289
  79.3984070  39.2112656  67.4803543  79.7338409  38.6212730  68.1553574
  78.6092300  38.7784691  67.1545944  60.2709389  28.2073612  20.5680866
  59.8428001  27.9089088  21.3704910  59.6975403  27.9048023  19.8638821
  69.9960785  39.5127068  25.2225990  70.7392426  40.0317230  25.5301056
  70.3343430  38.6189270  25.1680946  10.4831972  59.0288086  20.1656342
  10.4129219  59.8833313  19.7400913   9.7839699  58.5069618  19.7719479
  84.2214813  27.4869480  65.5780792  84.2321472  27.1596031  64.6786575
  84.8859558  26.9669609  66.0301056  43.9784470  30.6920757  59.9445190
  44.1617355  31.6011581  59.7074318  43.0462990  30.5793056  59.7584801
  58.5519257  34.3602867  15.8334427  57.6402664  34.0788269  15.9102077
  58.6578217  34.5793304  14.9076786  17.6195774  67.1541367  78.9992523
  16.8411751  67.5835571  79.3541107  17.7630806  66.4037933  79.5759888
   3.9334810  58.5755424   3.3534529   4.8302670  58.8986397   3.4407074
   3.8562639  57.8987045   4.0258827  33.6731148  62.9228668  53.0341415
  33.1553383  62.8463097  52.2327194  33.1007423  63.3860588  53.6457558
  76.5159302  33.7802353  33.7404022  76.6797867  32.8777313  34.0140228
  76.4543228  33.7338181  32.7863159  66.3219299  48.7608986  31.3477974
  65.7083588  49.4904289  31.2609081  65.8765488  48.1408195  31.9251766
  84.4043427  16.2338352  65.4828873  84.8727264  16.2295952  66.3176498
  85.0693741  16.4702396  64.8362961  72.4965668  27.5581284  19.3285408
  72.1133347  28.4044533  19.0981102  73.4408417  27.6931171  19.2488098
  60.9679222  45.5702171  73.4146042  61.1113129  46.4914551  73.6313705
  60.2815514  45.5851364  72.7475891  10.7596998  63.1970749  22.4364471
  11.4525766  63.0876884  23.0877457  10.1350336  63.7934799  22.8491535
  14.7225904   6.0752411   5.7009950  13.7674160   6.0422244   5.6482348
  14.9029045   6.3832211   6.5891767  40.8655205  29.2258377  66.2044830
  41.1438675  29.7188244  65.4326553  41.4373703  28.4583416  66.2175217
  85.2182159  23.6823521  26.6779194  85.6452942  22.8288708  26.7514362
  84.3256760  23.5311413  26.9889450  58.1934967  38.5731163  78.9482574
  58.7163544  38.3341637  79.7136002  58.8125153  39.0075073  78.3614349
  52.5908508  20.7517223  63.2102699  52.4039879  21.2897243  62.4409370
  52.0183258  21.1023712  63.8925400  76.6983643  16.7211361  78.9792099
  76.2621918  17.0851707  79.7495804  76.8570251  15.8044815  79.2046051
  59.6072998  45.5758286  80.6372604  59.7082253  44.7932701  81.1791611
  58.6716003  45.6105042  80.4385376  40.4804993  43.2961922  13.5901957
  40.2829857  44.0483551  13.0320988  41.0134239  42.7226906  13.0394535
  75.1182632  57.1842384  15.5958452  75.1054611  57.9256821  16.2010937
  75.0179443  56.4152603  16.1569538  26.3886814  34.6625900  88.3284836
  25.8903904  34.9293480  87.5559692  26.9345589  33.9380836  88.0229645
  60.3169289  48.8897095  49.3247032  61.1995811  48.5195885  49.3374977
  60.3203278  49.4915123  48.5803528  37.8454056   8.9815836  83.2559128
  37.0646553   8.4614601  83.0658340  38.5452118   8.5514984  82.7644501
   1.2522526  21.9890823  81.9481430   1.5589402  21.3065472  82.5450745
   0.3025801  21.8728504  81.9190979  72.0601730  12.6107922  69.1480255
  71.3450089  13.1555929  68.8194656  72.8356781  13.1679449  69.0816269
  34.7653923  50.5400848  50.3980980  33.8122253  50.5747452  50.4787178
  34.9195404  50.2712059  49.4924622  21.6498699   9.2442427   7.7899704
  22.3681355   8.6500063   8.0072498  21.9844131   9.7683105   7.0621891
  19.6897869  28.5899258  78.9814758  19.6522770  28.4049721  78.0430603
  19.7138214  29.5452385  79.0365372  53.3710289   8.3655777  87.3419418
  54.0813255   8.2588005  86.7092361  53.1426163   7.4721775  87.5986404
  79.6553802  19.6422710  15.0091867  80.1182938  20.4648209  14.8499708
  80.2195435  19.1636028  15.6164989   0.3247342  55.2277412  87.5419769
   0.1910658  56.0682602  87.1039276  -0.2395336  54.6176720  87.0669479
  66.6025162  36.4825249  78.1011505  65.9975967  35.9020538  78.5630569
  67.3134003  35.9089470  77.8149948  73.6447372  46.4283295  53.3373108
  74.3071899  46.0957680  52.7316780  73.0222015  46.8942299  52.7790833
  43.3717308  60.8111534  81.2071075  43.5061951  59.9390106  80.8362732
  44.2179947  61.2470818  81.1069565  21.3623924  55.5959473  73.5843201
  21.8013840  56.2316895  74.1494293  21.0683632  54.9078102  74.1811829
  79.8587036  67.9430923  81.7505646  79.9440842  68.8186874  82.1277542
  80.7286072  67.5552979  81.8460541  15.3756142  37.6552048  50.0356941
  14.4312658  37.5024567  50.0689278  15.5814114  37.6804771  49.1012192
  80.7566833  15.1981554  56.4119911  80.1569366  14.4521666  56.4182892
  80.7155075  15.5310154  55.5154762  42.3558540   6.5862613  47.7497330
  42.1838608   7.4726019  48.0676155  42.5545425   6.6995115  46.8202553
   7.0920901  69.8589172  80.5018005   7.2369075  69.6330566  81.4206314
   6.6142325  69.1108093  80.1437149  28.3607311  28.7461681  22.3093987
  28.2629967  29.6958160  22.2397442  27.7944489  28.5001221  23.0408478
  34.4023972  30.4728241  10.9229727  33.9991722  31.3406792  10.9013720
  34.0008354  30.0408440  11.6768780  69.4944611  60.4220734  13.6339188
  68.9744492  60.5438232  12.8395634  69.3074722  59.5240021  13.9072943
  64.5632172  38.4520912  64.2738266  64.0120850  37.6879272  64.1048813
  65.0827408  38.5537300  63.4763336  23.8237362  48.1689758  17.2870350
  23.5722389  48.3339577  16.3783188  24.7093220  48.5250778  17.3588810
  61.2764206  10.3972921  26.5808811  60.8358078   9.8832636  27.2575397
  61.2594566  11.2949038  26.9129009  41.8087616  71.0830688  86.7143707
  42.0604286  70.4629669  87.3987503  42.2349892  70.7528763  85.9234619
  80.3222275   3.9574070  47.9461975  80.3036652   3.6750050  48.8605995
  81.2262421   4.2359290  47.7998466  42.9137421  28.8187771  57.8560944
  43.2543411  29.4067802  57.1819458  42.1593246  29.2824955  58.2194786
  58.3433418  39.8354034  23.6058178  58.1866035  40.6738701  23.1714935
  58.9596558  40.0412674  24.3086777   0.8612695  13.9598150  48.2305374
  -0.0234035  13.5947027  48.2472267   0.8516423  14.5776482  47.4994965
  22.1576271  63.3710060  62.9593201  22.5660019  64.2270126  62.8300133
  22.7622032  62.7527504  62.5488548  15.4783640  44.6687393  62.8909302
  16.0730972  44.0254860  63.2766075  14.9969072  44.1798515  62.2235336
  48.5024834  18.1919518   9.2261095  48.5204506  17.7252579   8.3905821
  47.6187057  18.5558891   9.2782135   0.9611776  26.8976021  62.7737350
   1.1017379  27.7099571  62.2873688   0.6949696  27.1844482  63.6472816
  85.6590500  11.2783890  61.1456108  84.7517700  11.1207962  61.4068336
  86.1580658  10.5905504  61.5861740  26.4145470  41.4696159  14.9819908
  26.1348171  40.5877190  14.7365513  26.6740208  41.8772392  14.1557045
  57.2145615   0.1120553  83.9624939  56.8082161   0.9137140  84.2918243
  56.8352242  -0.0085974  83.0919876  45.5321198  58.8206100  39.3705139
  45.5166588  59.5005226  40.0440941  45.0665207  58.0827599  39.7642517
   2.9483116  26.9893284  67.3610840   3.5389576  27.6780338  67.6661301
   2.2799702  26.9273548  68.0435104  66.6409531  40.2049255  54.6126442
  67.1929550  40.9182320  54.9331322  65.8666763  40.6419983  54.2581024
  85.5987625  56.9094505  33.3849030  85.7871552  56.8884583  32.4466591
  86.2672882  56.3470497  33.7760735   9.1226816   0.8875059  14.8855076
   8.4095173   0.7494897  14.2621450   9.8047838   1.3250253  14.3760519
  35.8083382  25.8774567  76.5248032  35.5650482  25.1252136  75.9851990
  36.4269180  25.5237160  77.1639099  11.0488739  25.4778347  84.8149872
  11.9183073  25.1819725  84.5452042  11.2163677  26.2420750  85.3664474
  14.7465372  50.8208694  17.3146973  14.7966633  51.7766685  17.3276901
  15.6137390  50.5394897  17.0231152  61.3876152  53.6319160  32.7730026
  60.4652672  53.8159447  32.9508781  61.4723587  53.7277412  31.8243885
  39.4613953  22.6232433  21.1304436  40.3148384  22.2903214  20.8529053
  38.8689880  21.8783531  21.0283508  64.2778931  63.8117409  16.4457512
  63.9226379  64.5182571  16.9850712  64.9004593  64.2456360  15.8623390
  10.1985950  69.2702560  82.4611130  10.4714870  70.1648788  82.2575989
  10.3536491  68.7826614  81.6521378  77.7978058   9.5022125  71.1223602
  78.6643295   9.5471411  70.7181931  77.5396118  10.4166880  71.2377014
  80.5685120  45.5110359  53.3602257  80.2909393  44.8939972  54.0373116
  80.4598465  46.3728104  53.7624321   7.2248149  51.1259613  50.2090607
   6.7233582  50.9084091  49.4232864   7.2189989  52.0826530  50.2396660
  30.7229404  62.0657539  52.8366356  31.2368755  62.7674141  52.4369164
  29.8168221  62.3682976  52.7762413  27.4948750  38.7316360  61.5830231
  28.1754684  38.2549286  62.0581818  27.6375561  38.5012207  60.6649933
  67.7633362  10.7484426  14.8081636  68.2019730  11.5893269  14.6787682
  68.3494263  10.1080256  14.4049292  54.7743416  50.3158340  60.9496765
  54.3524628  50.8105774  60.2471924  55.4878807  49.8467674  60.5171623
  47.7898979  55.0348358  29.0165462  48.6099129  54.5876427  28.8071861
  47.1072922  54.4083023  28.7762604  41.5594711  49.2711220  37.3279877
  42.0746078  48.6197166  37.8039513  42.1790581  49.9763451  37.1408997
  33.2053261  43.2290115  14.5356207  32.4280663  43.7712898  14.4013414
  33.8806305  43.8446999  14.8204403  12.6817293  39.9729767  48.8331757
  12.2201462  39.5803070  49.5741081  13.6015482  39.7524452  48.9799042
  39.7172432   7.7545257  85.5360718  39.6363716   8.3020706  84.7551193
  40.6604652   7.6860843  85.6839752  17.4942360  44.1182442  18.1767826
  17.1179619  43.3272781  17.7907524  18.3437214  43.8377914  18.5173016
  27.7557983   1.5620581   8.9234715  26.9509850   1.4610362   8.4152393
  28.2056656   0.7224512   8.8290663  51.1813087  54.1573753  69.1851578
  50.6931610  54.7596321  68.6237030  52.0041428  54.6119041  69.3656540
  67.6377258  51.8320808  23.1813850  68.2101135  51.0806389  23.3360958
  67.0451431  51.5429344  22.4875069  31.4735031  69.7178879  20.1690617
  31.1074924  70.3734589  19.5753536  31.8575325  70.2282410  20.8820038
  10.9907675  44.7399559  36.5398293  11.4983425  44.4526596  35.7808418
  11.5614986  44.5677986  37.2887344  19.1796894  59.1969643  15.5713835
  20.0113640  59.6704941  15.5892382  19.1809235  58.7424088  14.7290001
  55.8281784  21.8029461  74.3135605  56.2439232  21.0581036  74.7478409
  55.5900230  22.3941746  75.0276794  14.8465128  63.7942848  76.6090164
  14.6650972  62.9930344  76.1177750  14.6701298  63.5614815  77.5205688
  56.2615547  65.3661804  35.7498512  55.9193306  65.7565079  34.9456406
  56.9727631  64.7969208  35.4559860  47.2174950  59.2635193   9.6068144
  47.3053741  60.0781288  10.1017094  47.2300339  59.5378113   8.6898422
  73.5198669  10.6111956   9.7460432  73.8990707  11.3341646   9.2462931
  74.2472153  10.0027752   9.8765202  45.8687172  29.9241371  45.5633049
  45.8673286  30.1987267  44.6463356  44.9424553  29.8705635  45.7986832
   1.8721037  25.3980694  34.8150673   2.7019057  24.9220924  34.7817802
   1.6227071  25.5091038  33.8976212  35.5849152  59.8240585   5.8681021
  35.3355026  59.4666519   5.0158782  36.0998955  60.6034966   5.6595211
  42.7588882  50.2948074  59.4545822  42.2583389  49.9041786  58.7382774
  43.4234772  50.8286018  59.0191345  73.6009521  32.6006775  16.7268257
  73.6221466  33.5022163  16.4058723  72.9058685  32.5969963  17.3849125
  75.6156006  23.3635998  79.4511871  76.3796005  23.0141907  79.9099426
  75.3639374  22.6695518  78.8419342  44.3806572  27.0426865  47.8466454
  44.0046692  27.4053574  48.6487274  43.7231445  27.2178040  47.1734123
  66.0201645  40.8254395  18.1108074  66.3908539  40.5355110  17.2772827
  66.7815933  41.0373001  18.6507874  24.2770557  39.3455467   3.3955944
  25.2075157  39.5587425   3.3247201  24.1693039  39.0398788   4.2962542
  83.4339371  19.0429020  50.0492973  83.3032837  19.9188004  49.6860313
  84.3625336  18.8602104  49.9059296  21.1845131  36.8157578  67.7553940
  21.4662380  37.6298447  68.1726761  21.7668438  36.7188339  67.0019150
  68.0081635  24.5238152  88.0454865  67.2321396  24.0229473  87.7941742
  68.7431793  24.0127296  87.7067108  17.6593552  52.7587891   7.2044396
  16.9208698  52.9320946   6.6206284  17.3993073  53.1450462   8.0407467
  86.2770462  54.9776001  11.9250345  85.4393845  55.0894585  12.3745203
  86.3225784  55.7149239  11.3163366  71.3543854  37.3040619   1.1028591
  70.7883530  37.0916901   1.8449757  72.0943146  36.7025719   1.1861699
   3.6627972   3.7097657  87.6643982   3.4933658   3.3598204  86.7897186
   4.3110342   3.1136405  88.0394363  16.2434139  47.2630157  67.0658340
  15.7049656  47.7752037  67.6691284  16.5859737  46.5463715  67.5999756
  59.5155449  68.9807053  44.3547554  58.7925797  68.3648300  44.2353897
  60.0042953  68.6345062  45.1014175  66.9617462  27.9739723  70.5026016
  67.4387665  27.4731998  69.8408508  66.4393997  28.5988255  69.9996643
  82.8037109  14.0159817  43.8396759  81.9389343  13.7970085  43.4926300
  82.6776505  14.0585012  44.7875824  18.9588566  49.9913216  61.9769363
  18.4058170  49.2101402  61.9653168  18.3605061  50.7051201  62.1976166
  50.7984581  59.6867218  54.5597420  50.6149178  58.7604027  54.7162018
  51.6892433  59.8129158  54.8865547  61.2759781  34.6097794  83.3648071
  61.0739326  33.6749687  83.4039917  60.6535416  35.0148735  83.9687119
  47.6846809  70.8405228  60.2455292  48.0154991  70.3496323  60.9977341
  48.4535599  70.9777527  59.6921501  53.1003685  71.0802536  32.7845459
  53.7075462  70.4728546  32.3619003  52.6226158  70.5413666  33.4150925
  32.0044479  62.6126556  60.5830917  31.4037838  61.9785347  60.1915207
  32.4049721  62.1430359  61.3147087  55.0366554  37.7874908  50.0777893
  55.1799393  36.8487053  49.9578323  55.9168015  38.1630211  50.1013489
  45.1310387  26.7419548  64.0676193  45.0557709  25.8851242  63.6476097
  45.0643692  26.5562477  65.0042572  21.9380970   1.5841902  77.5567093
  21.6773453   2.4480531  77.2373657  22.7737694   1.7344176  77.9986496
  50.4825478  69.2877121   9.9411964  50.6778793  70.1790390  10.2303410
  51.3341522  68.8512650   9.9184046   1.2181983   2.8337364  18.5748272
   0.8931513   2.0107276  18.2098160   2.1531067   2.6817832  18.7129879
  47.2605782  16.4737339  20.9562817  48.1747665  16.7301807  21.0776443
  47.2576256  15.5261698  21.0917282  36.8104935  39.0911980  69.9262619
  37.4039345  39.8067894  70.1542664  35.9414711  39.4924736  69.9231949
  53.9733925  65.0614319  83.2248306  53.7431755  65.1073303  84.1528015
  53.2564774  65.5112228  82.7776718  39.2503319  60.4085846  22.4986534
  38.3302803  60.3599129  22.2390957  39.5994606  59.5380402  22.3076191
  84.0259399  64.6350098  80.1462784  83.3395233  64.0668640  79.7965927
  83.5968781  65.4819412  80.2680817  85.5867996   8.7131681  55.0492172
  84.6849442   8.6527729  54.7341843  85.7155075   7.9149141  55.5615234
  78.1623230  21.6588039  37.5396843  78.0436096  20.7091255  37.5237656
  77.4203491  22.0013123  37.0412903  23.9073925  47.2948036  70.1461716
  24.4782925  47.3648148  69.3810577  23.1629658  47.8608742  69.9421463
  35.8581543  47.8731804   5.9810615  35.3495255  48.2994118   5.2912374
  36.0124321  46.9875031   5.6524105   3.5374994  57.5883636   0.8248358
   3.7400103  57.9315910   1.6951329   3.6911707  56.6463547   0.8971587
  13.9458008  57.2357559   5.7882276  13.7139540  56.7079582   5.0240903
  13.6362448  56.7240639   6.5356088  79.2408676  16.1406765  21.9214478
  78.3571854  15.8189650  21.7430325  79.1102448  17.0307693  22.2484093
  72.6589966  38.3417931  55.4549294  72.3746490  37.5255051  55.8660851
  73.0867081  38.0654182  54.6444283   2.0188148  31.4799118  51.7818909
   2.9031503  31.7930508  51.5918236   1.5412406  31.5981064  50.9608040
  33.2131577  53.8243523   3.6835186  32.3943939  54.3159409   3.6187105
  33.0512772  53.1790924   4.3717523  49.1288376  59.3833313  41.1331673
  49.1154976  58.9440346  40.2828331  49.0775146  58.6716728  41.7712440
  50.4952431  58.0859489  74.8364182  50.0068626  58.0122414  75.6563492
  50.4660034  57.2062225  74.4603119  78.8137131  37.4608536  41.6770287
  79.3948822  38.1094398  42.0742798  77.9507141  37.6574478  42.0414734
  78.5916824  60.5339394  56.5763130  77.7498093  60.0798264  56.5407829
  78.4008255  61.3574791  57.0253029   3.7967279  37.0714035  40.9198227
   3.7442648  37.2239037  39.9763069   3.5542979  37.9103012  41.3118782
  38.9502373  35.5363235  75.5911407  39.8649559  35.8106918  75.6562958
  38.7761726  35.0849037  76.4170685  69.7321091   7.8726492  57.5255051
  69.8683853   8.2332478  56.6493607  69.2248154   8.5425005  57.9839630
   3.4100542  60.2868385  16.8907223   3.0246253  60.5020027  16.0413799
   3.2020862  59.3615799  17.0206280  76.5368576  28.7692127   3.7556031
  76.9911194  27.9269352   3.7343967  76.3295212  28.9063072   4.6799660
  43.7915611  48.3977509   9.8176327  43.3452110  48.1641235  10.6315250
  44.6188698  48.7867470  10.1013174  72.4505234  54.7258301  46.4155540
  72.8985062  53.9509430  46.7547989  72.8093948  55.4522820  46.9251709
  31.4433880  57.3297806  45.1611595  30.5971928  57.3219261  44.7138100
  31.6472702  56.4055519  45.3042183  13.6625719  55.6012154  62.8483696
  12.7244110  55.6942368  63.0139999  13.7292442  55.4995842  61.8989182
   3.9884059  38.8663712   3.2923188   3.8811131  37.9360123   3.0944412
   4.5471444  39.1978683   2.5893593  68.1707306   4.7804556  42.4882889
  68.9272690   4.2697968  42.1999931  67.9119873   4.3780308  43.3173447
  79.8258362  35.3147507  87.6089249  80.2779465  34.8631210  88.3215714
  79.4902496  36.1171494  88.0086365  69.1400375  39.8783646  20.9088440
  68.3938065  39.5457077  21.4075642  68.8031998  40.6560326  20.4638672
  73.3007584  17.7718105  12.1510792  73.8165665  18.2936516  12.7657814
  72.5402298  17.4872284  12.6578770  69.5025330  58.0421257  15.1196432
  69.3439484  57.9887543  16.0621052  69.3268890  57.1583023  14.7967815
  58.6634254   6.2233777  65.9635468  57.9454803   6.8533425  66.0262451
  58.2358093   5.3929291  65.7544250  49.5721092  61.6246872   7.0748048
  49.9746704  61.5926895   6.2069597  49.7290573  62.5186539   7.3788171
  53.8576584  70.3666458  57.7892761  53.4257202  69.5725250  58.1039734
  54.5167084  70.0517197  57.1706429  51.8773193   6.8357024  77.6640167
  52.2432976   7.1791482  76.8489456  52.5547256   7.0019970  78.3195267
  77.8839035   5.7142825  61.7279053  77.9217072   5.4906626  60.7979622
  77.0734787   5.3106256  62.0385551  40.2052460  59.5671234  53.5733566
  41.0203476  59.3225174  54.0115433  39.5797653  59.6970673  54.2861862
  24.4731998  53.0656090  29.7241745  24.9478760  52.9333649  30.5447979
  25.1591702  53.1644440  29.0639400  14.0188389  29.2625923   8.1842413
  13.9763327  30.1278610   8.5913458  14.3135519  29.4330196   7.2896295
  77.5301437  65.2533112  79.1308365  77.4730530  65.9385910  79.7966919
  76.6194077  65.0340576  78.9340897  80.5942078  24.3129292   0.1827545
  79.9562683  23.7673473   0.6427614  80.1127396  25.1103458  -0.0375751
  23.6398830  44.9650421  44.0761986  23.4338856  44.0379906  44.1960945
  23.8429298  45.2810860  44.9566078  41.2729149  44.1642647   5.4610119
  42.1323662  44.1618843   5.8824019  41.3083229  43.4361916   4.8406205
  53.7926788  51.0054474  45.8159142  53.0665512  51.2981987  46.3666077
  53.7854042  50.0517159  45.8970222   5.9161472  55.7158546  18.0521584
   6.4043889  55.1240234  17.4798069   5.1970077  56.0363998  17.5078049
  36.2066879  66.6672592  27.3734341  36.5061913  65.8119049  27.6814919
  35.2632484  66.6631699  27.5350876  32.7738037   2.0946190  22.0077991
  32.8330078   1.2118126  22.3730106  31.8645058   2.1740842  21.7195415
   2.1710849  50.3035240  63.6192322   1.7159522  51.1452141  63.6445961
   2.8926811  50.4026222  64.2402878  79.8236542   4.3347726  12.2488489
  80.2915268   4.5742149  13.0488472  79.4377213   5.1553593  11.9423742
  41.0258141  23.0844002  23.2892151  40.2958984  23.4271660  23.8049335
  40.6201286  22.7633419  22.4838753  41.3660164  61.9376335   0.9714431
  42.1055298  61.4082527   1.2699550  41.7014580  62.4094429   0.2091387
  85.7471237   5.4962597  11.6819534  85.0733643   4.8322821  11.8282881
  85.7125854   6.0486975  12.4628830  85.4102249  18.9350624  76.7202606
  84.5619125  18.8724499  76.2813034  85.9408722  19.4801445  76.1392899
  29.2819595  46.2152061   2.4154644  29.8890896  46.1230774   3.1497250
  29.1795406  45.3259735   2.0763431  57.8531799  49.7030525  57.8135376
  57.2674751  49.4491768  58.5267944  57.9066925  48.9246826  57.2590027
  83.9763947  44.5529060  83.5178604  84.2124481  43.7079086  83.9005966
  83.0354156  44.4875870  83.3549881  45.9375114   8.7860584  16.7017384
  46.6035805   9.4650459  16.5942249  45.8507919   8.6835489  17.6494751
  58.5098610  50.0419350  66.1644821  58.9589424  50.3413239  65.3739548
  57.5790939  50.1140976  65.9530640  54.3696938  55.2433701   7.0575638
  54.1815376  56.0111847   6.5178490  54.5690765  55.6016312   7.9225068
  40.5808411  62.3589706  30.9312553  40.6107750  61.6487579  30.2902126
  41.4128723  62.8185883  30.8185368   1.1254886  68.0653992  20.6214752
   1.2475704  67.5698776  19.8116703   1.9813168  68.0395737  21.0494041
  55.3820724   6.6003985  61.5072670  54.6131439   6.1567383  61.8652382
  55.0760040   7.4845414  61.3051643  80.5219498  20.4883118  84.3011703
  81.0564270  20.2916794  85.0705261  80.5438843  19.6841679  83.7824173
  74.9396744  56.5709953  19.2445927  74.7506638  57.4981270  19.3892841
  74.4346619  56.1156273  19.9182682  31.0707207  41.6276855  68.3297424
  31.1948814  42.3210487  68.9778671  31.7589588  41.7792740  67.6819992
   2.1054506  68.5848465  31.4620895   1.1527249  68.6048965  31.5523319
   2.4217105  68.3078537  32.3220253  61.8287888  69.4990311  17.5389957
  60.9709740  69.2437592  17.8784485  62.1529694  70.1438599  18.1677494
  41.1333084  69.0333862  58.1731415  40.2524567  68.9291534  57.8133240
  41.5861206  69.5908127  57.5403175   0.6452121   4.0432649   9.8966036
   1.4282049   3.8173952  10.3987360   0.2315925   4.7442722  10.4003286
  44.8312950  64.9259415  20.3910332  44.7700386  64.8330307  21.3417416
  43.9432716  64.7571030  20.0761681  30.3087254  70.2080841  76.5186768
  30.0489464  71.0907059  76.7827301  29.5650043  69.6567078  76.7617722
  21.6023693  70.3192749   7.4609485  20.8646755  69.7115631   7.4087167
  21.4378262  70.9560394   6.7654710  55.8037720  23.1009483  81.6189194
  55.1688690  22.5687885  81.1394043  55.5401001  23.0203857  82.5355530
  48.3616905  68.0184174  17.7163773  48.1894875  67.9693451  16.7760735
  47.5710106  67.6643906  18.1234703  73.2265091  24.1741199  13.7492542
  72.4322891  24.6082287  13.4378204  72.9080658  23.4305534  14.2610483
  85.7424164  33.9154320  25.0586491  84.8484955  34.1331749  24.7945728
  86.1557770  34.7624168  25.2259235   7.9318581  68.4002609   5.0451694
   7.0199962  68.5358353   5.3027763   7.8799534  68.0495148   4.1560621
  35.9224129  45.1144447  10.8086252  35.4040833  44.3769722  10.4865913
  35.5629311  45.8763885  10.3542614  84.9664383  39.4876747  75.0961151
  84.3842087  38.7279587  75.1046906  85.5434952  39.3387489  74.3470764
  69.0633392  49.7866249  24.1170444  69.2176819  49.4405937  24.9960632
  69.7627411  49.4080200  23.5843830  61.7502747  51.1830482  50.1761284
  61.3083572  52.0124741  50.3577766  61.0435600  50.5813293  49.9422112
  48.1990318  61.9278221  43.2544136  48.2611961  62.3137474  42.3806686
  47.9582748  61.0149574  43.0964622  14.7000751  37.5818825  43.2429390
  13.9070311  37.8840790  42.8002357  14.4068661  36.8511047  43.7872009
  84.3040771  37.8446770  26.8285446  85.2384186  37.9543152  26.6518669
  84.1320496  38.4203682  27.5736713   4.6804829  12.9475899  82.9308472
   4.3330746  13.8319578  83.0467453   5.5979595  13.0800362  82.6922531
  56.2832985  65.8384781  59.1090889  55.6558952  66.1236038  59.7733917
  55.7448502  65.6252365  58.3469620   7.0456934   1.3875297  26.9324894
   6.9858575   1.8551760  27.7655315   6.9440231   0.4652681  27.1677094
  34.8869781   9.9673672  38.0817680  35.7005920   9.7899876  37.6097488
  34.3965454  10.5509224  37.5028305  32.8123245  54.1786766  42.2468719
  32.7312088  55.1258087  42.1346779  33.7478180  54.0044632  42.1432724
  11.9955645  50.6165085  37.8734970  12.9258261  50.4676285  38.0428505
  11.6378107  49.7426338  37.7166862  53.4818993  52.3818588  80.1510468
  53.8033562  53.2082291  79.7904816  53.8986549  52.3172417  81.0103302
  43.2615852  22.2010365  68.8508682  43.3370399  21.2728729  68.6294022
  43.0172424  22.2073555  69.7763367   5.6999526  70.9387360  85.2697830
   6.4854126  71.3380814  85.6436920   5.2614198  71.6558685  84.8119202
  68.9142609  16.1359634  41.0107040  68.5085983  16.9374599  41.3412590
  69.7287216  16.4303112  40.6029739  40.8721390  44.5532265  40.3462563
  41.2119789  45.2579956  40.8976593  40.0359497  44.8861160  40.0203629
  11.3134460  33.9732361  40.3640938  11.5222063  34.1409378  41.2830734
  10.4729252  33.5159225  40.3890076  76.6409454  15.6885471  37.0581512
  76.1741104  15.7830353  37.8884315  77.0100937  16.5557213  36.8908958
  21.0498333  16.9059105  82.9758072  21.4075279  17.7088795  82.5969543
  21.1735077  17.0104103  83.9192123  58.6740379  19.9569130  11.9613400
  58.3084946  20.5496426  11.3046169  59.5144348  19.6821346  11.5946569
  73.3477097   0.8764819  24.6987324  73.8345871   1.6347789  24.3759804
  73.9464493   0.1391637  24.5799580  76.2081528  44.0581589  87.7206955
  76.1542282  44.9792862  87.4660492  75.4635468  43.6448631  87.2836838
  28.6387424  44.2444153  72.3086319  28.0767708  45.0108337  72.1945114
  28.2882175  43.5971489  71.6967392  53.8838234  34.0515785  -0.0063103
  54.3012695  33.2977562  -0.4231142  53.2440681  33.6693001   0.5943657
  79.9553223  42.2685242  72.2423172  79.5501022  41.5172615  72.6754761
  80.8947754  42.1453629  72.3783035  56.6984444  31.5329494  84.3956223
  56.0784721  30.8845310  84.7294159  56.2123222  32.3574333  84.4075012
  60.1016426  14.7730360  52.8140144  60.3635292  14.6940603  53.7313004
  60.9257126  14.7560167  52.3273430  39.6299973  34.1518784   8.2641411
  38.7290764  34.2601433   8.5688648  39.6638489  33.2553978   7.9303708
  47.0802841  51.2572021  13.6144657  46.3758011  51.8129539  13.2811842
  47.8833580  51.7235603  13.3824883  59.4007759  52.7853127  35.7040863
  58.9878578  52.7235527  34.8427391  58.9760551  52.1021347  36.2228432
  78.5786896  36.7360954   0.5363631  78.9918594  37.3203278   1.1721250
  77.6814194  37.0607338   0.4605494  66.1742935  41.2138481  42.4438705
  66.2464752  42.0979462  42.8035736  66.6669235  41.2479286  41.6238785
  52.7890892   2.2010045  49.9987450  52.3571968   2.4688511  49.1875992
  52.1809654   1.5803422  50.4002304  18.3383236  57.1302223  51.5335541
  19.0083218  56.5280495  51.8571625  18.7697258  57.6115074  50.8275185
  73.6268387  24.7752266   0.9773627  74.0225220  24.1055088   1.5351696
  73.4339218  25.4994678   1.5727506  61.0578613  20.4640064  43.4119072
  61.6244164  21.1323814  43.7972946  61.1848297  20.5577393  42.4678078
  68.4260254  21.4609146  32.1230354  69.0318604  21.9781399  31.5923100
  68.3834763  21.9252663  32.9589806  50.7823715  23.5228996  38.2607574
  51.5850525  23.5408936  38.7819252  50.0831604  23.3964691  38.9021225
  13.3725805  25.2454433  81.2266769  13.7201509  25.9189434  81.8113327
  13.4931269  25.6055679  80.3480377   1.2022076  25.3598976  53.6330872
   1.9648579  24.7823734  53.6004944   0.6121382  24.9422436  54.2604752
  29.6859093  22.4735508  74.3019257  29.9153309  21.6491928  73.8729324
  29.6645260  23.1151829  73.5919342  53.0030174  59.3833275  37.3400764
  52.9624901  58.8787193  38.1524582  52.2944145  60.0219612  37.4192047
  10.7027826  18.6900043  10.2472897  10.8120937  18.2649422  11.0979385
   9.9996786  18.1985874   9.8225708   8.1670790  34.9353561   4.8420844
   8.2983942  35.5722656   5.5444622   7.2709455  35.0897713   4.5431976
  18.7732449  60.2133217  42.9505196  19.3570499  60.8007622  42.4706039
  19.3515282  59.5378914  43.3049355  55.6353188  18.6599979  38.2608337
  54.9355812  18.9280396  38.8564415  55.2024803  18.0929794  37.6225739
  53.3210945  26.9704247   9.7261782  52.8128815  26.7612553  10.5098858
  53.2887001  26.1718121   9.1994896  44.2803993   6.5046964  33.5956459
  43.6742897   6.0593791  33.0035667  43.9819374   7.4141335  33.6043816
  27.7768688  19.8122005   2.8778841  27.8301163  20.7473583   3.0750537
  28.5396500  19.4317856   3.3134079  19.1841831   2.6510949  13.3164082
  19.2325802   1.8105713  13.7718306  18.6652699   2.4694211  12.5328550
  45.2459526  36.3622169  83.3185043  45.1170731  36.9887047  82.6063690
  45.7791367  35.6672440  82.9325562  21.0186481   4.5205407  12.6079941
  20.3923397   3.8683176  12.9219589  20.5234756   5.0443835  11.9782124
  84.2941513  46.2130737  14.0806265  83.9375839  46.6864662  14.8322868
  83.5727310  46.1831894  13.4522238  56.3326683  13.2812157  22.2698364
  57.2011108  12.9429073  22.4879761  56.4469872  14.2309866  22.2367115
  42.1445732  32.9096107  25.6976395  41.2955132  33.1488800  26.0692310
  42.2988625  33.5612030  25.0136452  85.5260468  67.9427643  70.8890762
  86.0876312  68.3097458  70.2063141  85.9329987  68.2214813  71.7094040
  13.6562557  19.1388912  83.5724258  13.2941895  19.9445076  83.9413681
  13.7158356  18.5401592  84.3168716  63.0932617  18.2876034  58.6627083
  62.6138039  17.5912209  58.2139282  62.6692352  18.3575687  59.5180054
  80.6706238  44.7464371  38.0844193  79.7227173  44.8794403  38.0885773
  81.0321198  45.5906372  38.3543854  38.9509697  62.3786583  -0.0172719
  39.7205544  62.3228989   0.5491727  38.9054871  61.5232620  -0.4444202
  34.4588051   2.6074617  67.0821075  34.3245544   2.5989759  66.1344070
  34.8699493   3.4537389  67.2582016  27.5207157   0.7940570  85.2823410
  28.2941093   0.8165064  84.7187958  27.6057472   1.5697078  85.8367538
  86.5777588  67.7610779  34.3684006  86.1807327  66.9225922  34.6040955
  86.6788864  68.2208862  35.2018127  70.7725983  29.9027996  48.0543671
  71.6449890  29.6394901  48.3473282  70.4467850  30.4708004  48.7525444
  69.1122055  39.2862434  44.4616737  69.1266632  39.1611938  43.5127869
  70.0066147  39.0927544  44.7424164  58.5543861  11.2454958   9.6095934
  58.0267906  12.0362587   9.4974747  57.9225616  10.5277920   9.5656567
  51.3798714  55.5380325   9.3219986  50.8135872  56.1787109   8.8917828
  51.5892029  54.9044037   8.6357574  10.1205912  24.2703972  69.8276749
  10.7190351  24.0483437  69.1143799   9.4033689  23.6421928  69.7429123
  25.4535561  69.3809662  80.3934631  25.9668884  70.0496216  79.9400177
  25.9922314  69.1344147  81.1453094  65.1336823  63.1120453  60.9700012
  64.2953796  63.5706367  60.9136734  65.4839249  63.3575439  61.8263245
  55.9292030  47.3486710  18.9506016  55.1053162  47.1338921  19.3879967
  56.2573776  48.1150398  19.4209290  41.3466949  57.3297958  60.5288277
  41.5859718  57.8128128  59.7378311  41.9935226  56.6264420  60.5848312
  54.0273972  52.4784622  65.9901886  53.1660423  52.2625961  66.3475418
  54.6202469  52.4144363  66.7389679  46.6915512  68.4125977  85.6716766
  46.8387337  69.2805252  85.2958145  47.0274544  68.4785919  86.5655670
  74.1772385  34.2612114  63.9654732  74.4457550  33.5976562  64.6009445
  74.9814835  34.4825478  63.4959793  77.7738037  65.7029114  72.6281891
  77.7324982  65.7637253  71.6738205  76.9610977  66.1090775  72.9294662
  54.2571983  19.4433823  25.4773540  53.9638100  18.5322914  25.4689922
  54.0000725  19.7698994  26.3396225   7.1365681  44.9821358  39.4897881
   6.8525858  44.3281326  38.8511429   7.9888406  45.2764130  39.1684418
  67.8807220  50.6263504  69.7118988  68.1368408  49.7686729  69.3727417
  67.0074768  50.4878654  70.0786362  18.8253708  22.2498474  14.6910934
  19.5322475  22.2562943  15.3364744  18.0282478  22.3676739  15.2077589
  47.5510521  60.1433067  49.9964180  47.7146378  60.5642929  49.1524734
  48.0669899  60.6520805  50.6218719  36.4237556  22.8952408  21.6306362
  37.0818634  23.3203411  22.1805611  36.7915268  22.0321407  21.4408131
   1.3280158   8.0290966  88.8137817   1.7769824   7.7961864  88.0011292
   0.6623479   8.6628742  88.5464935   4.8655419  24.9977894  66.8195267
   5.5347776  25.2660656  67.4491119   4.2760806  25.7497253  66.7615509
  47.9151573   7.1239376  41.5886841  48.3480492   6.2929320  41.7842979
  48.2673950   7.3828659  40.7371445  12.2924938  51.4161301  28.6219387
  11.9032803  52.2803001  28.4879513  12.8296728  51.2719841  27.8429050
   7.1058245  12.2034121  74.5997162   7.9163151  11.6947622  74.6244736
   6.9555931  12.3694582  73.6690750  72.4405060  15.8102379  61.7247047
  72.6939316  16.7019749  61.9630585  71.5318222  15.7336149  62.0156517
  59.9214973  27.7196922  69.2520905  59.2753906  27.5915184  68.5575714
  59.4518852  27.5063820  70.0584335  27.0774689  22.5268669  75.7565613
  27.8033905  21.9033909  75.7799988  26.3924770  22.0783901  75.2606888
  71.6933899   9.8026667  55.0232353  72.2029648  10.6126356  55.0004921
  72.3502121   9.1063747  55.0224571  18.2096710  34.0220718  87.7663879
  17.8507767  33.1494789  87.6051331  18.9981098  33.8645401  88.2857971
   9.6058788  59.4397964  40.5123100  10.4200172  59.0095978  40.7737312
   9.8709993  60.3269310  40.2695503  42.8877068  52.1612701  50.6961937
  42.3457031  51.3735161  50.6524849  42.2877350  52.8490982  50.9845657
  21.6168766  64.3530426  12.7195959  21.2559128  64.1510391  11.8563852
  21.0289249  65.0195084  13.0750837  59.5922546  44.7329369  41.2633171
  59.6812859  43.9353371  40.7416458  59.4594765  44.4202499  42.1582069
  76.5208435  22.3606243   7.1384153  75.6742020  22.7988262   7.0523195
  76.3738861  21.4838161   6.7836709  83.6714630  48.7221794  61.3909874
  83.2279282  49.5487633  61.2005577  83.5656433  48.2042046  60.5930290
  63.3759918  21.6981850   2.2656474  63.2836113  21.6048870   1.3174950
  64.0398483  22.3789234   2.3757787  66.6239471  13.0895987  85.4416351
  67.0252380  13.2005129  84.5797272  66.2953873  12.1905594  85.4389648
  56.7350426   4.3782296  57.0381126  57.6071701   4.1659245  56.7056198
  56.2613297   3.5467618  57.0159988  44.0501633  32.1466904  77.1079788
  43.8824158  32.9765778  76.6614609  43.7516937  31.4782715  76.4912415
  67.6958618  11.7982664  18.8991222  68.0153046  11.3666945  19.6915436
  66.8741684  12.2106133  19.1656246  80.1631012  24.4064217  32.1137314
  80.8564758  25.0567036  32.2259712  79.7993240  24.2902622  32.9914589
  52.8722153  21.3314037  68.0584183  53.5190048  21.8569050  67.5875244
  52.0327225  21.7409554  67.8492508  35.0389290  31.9205780  22.1046696
  35.5895844  32.1023483  22.8662281  34.4969025  32.7036591  22.0086384
  24.3826408  36.3513794  15.4037170  23.6749763  35.9497223  15.9078140
  25.1820946  35.9731598  15.7698555   8.3200188  27.1522560   6.7899718
   8.6701670  26.2646179   6.8656449   7.9958367  27.3574200   7.6669245
  18.8824444  16.6096344  24.2855511  19.6681862  17.0738201  23.9968071
  19.0540390  15.6924639  24.0720463  84.9721603  51.7388725  88.1234283
  85.5586700  51.0589104  88.4549179  84.3479156  51.8841820  88.8343658
  26.4655838  25.6950340  87.0782928  26.8595448  24.9015217  86.7158432
  26.1452389  25.4309597  87.9407730  77.6857376  54.8612633   9.6768522
  77.9630432  55.7021217   9.3131285  78.0809708  54.8352089  10.5482578
  57.6323814  49.5492020   3.5312829  58.0143738  50.4259415   3.5717676
  56.7581406  49.6512413   3.9074779  39.8332214  36.9299431  88.7135315
  40.4464645  36.5748215  88.0700684  39.6932907  36.2130127  89.3321304
  21.7640915  25.1552162  82.2968826  22.6024799  24.9506187  81.8827820
  21.5414562  26.0266018  81.9692383  73.1573715   1.7394055  40.8776131
  74.0768814   1.9974608  40.8133621  72.6832504   2.4222462  40.4030914
   7.3968301  16.4397621  68.6849747   6.7395167  16.5508080  67.9980698
   7.7175603  15.5456085  68.5672684  85.3467636  48.0560913  30.6921978
  84.9563522  48.1310616  29.8214531  86.0504532  47.4161415  30.5848866
  65.9970627  15.4021473  25.6215706  65.9749069  14.7268953  24.9435024
  65.4389114  15.0591650  26.3194714  63.6689415   7.8239527  34.8459244
  63.8305931   7.9497170  35.7809563  64.5399323   7.7109075  34.4653625
  40.2600441  60.7454453  27.6834641  40.1037712  60.7798805  26.7397346
  40.6400337  61.5982437  27.8945885  48.9651070  70.1377563  46.5506020
  49.8011169  69.7731323  46.2601357  48.4110794  69.3727417  46.7056351
  57.0821991  13.6128998  86.1926270  57.8154182  14.1385441  85.8727570
  56.3915329  14.2503920  86.3737793  62.1981354  70.4369736  80.8094101
  62.7277946  69.9845276  81.4659042  61.3565788  70.5846481  81.2409286
  23.7541943  39.8209991   8.0223150  23.1315727  40.1595116   8.6657295
  23.3948078  40.0897484   7.1768289  25.7238331  45.6778030  52.9703522
  25.0265560  46.3080750  53.1514473  25.7895432  45.1568069  53.7706490
   5.5456843  40.2246475  84.6468964   6.3544760  40.2477913  84.1354752
   5.8213549  39.9401131  85.5182648  75.1952438  26.2502403  64.7968597
  75.6620102  27.0385590  64.5195236  74.5270081  26.1184711  64.1243057
  77.2896957  31.3106537  66.9727173  77.1270065  30.5982285  67.5909500
  78.0928192  31.7239876  67.2895432  59.4645653  38.3535881  16.0552673
  58.6025581  38.3298836  15.6397991  60.0747681  38.1250610  15.3540812
  81.1335297   5.2455530  74.5989304  81.1110382   4.4566193  75.1405106
  80.4926071   5.0798159  73.9075623   3.1518304  45.5981026  70.3115158
   3.0204010  46.2992210  70.9497833   2.5473647  44.9083405  70.5855331
  56.9144135  69.2159576  25.8335838  56.3839760  70.0055389  25.9404659
  57.3935509  69.3579941  25.0171986  15.0440922   9.4644899  18.3685951
  14.1199961   9.2441492  18.2514305  15.1356668  10.3312817  17.9729729
   5.1313181  23.5996666  87.2055359   5.0030079  24.5070343  87.4820328
   5.7625380  23.6548920  86.4880753  42.7452850  11.0084581   3.8724136
  42.9202118  10.2690458   3.2902606  43.3807869  10.9105902   4.5814919
   0.6773905  27.5329418  51.8614502   0.4411454  28.1312084  52.5703201
   0.4801764  26.6623669  52.2070465  78.1011505  33.4842033  25.1374683
  77.9501038  33.6850624  26.0610867  78.2962875  34.3313866  24.7369270
  21.8395309  55.9627609  45.0762177  21.2778606  55.5344048  45.7221794
  22.1476040  55.2499847  44.5165100  40.5543289  44.2338943  84.3033295
  40.3765106  44.0176010  83.3880005  39.7345695  44.6097145  84.6242447
  66.1034393  29.0689678  73.2142487  66.2448730  28.7137756  72.3367157
  65.1547775  29.0337200  73.3368683  24.2898083  10.0756903  78.0554047
  24.7157574   9.9944181  77.2020569  23.5166512  10.6142530  77.8868484
  45.2868347  35.7280197  79.2520905  46.0572243  35.2111664  79.0163116
  44.5446777  35.1610603  79.0423508  16.1925716  68.4107056  46.5812645
  15.8850517  67.5982056  46.9831467  15.7363167  69.1025085  47.0603027
  79.3028030  35.3002777  48.4430733  79.3919525  34.3756409  48.2121315
  79.2759323  35.7557945  47.6016350  40.5179672  61.6973610  10.6473532
  39.7708015  62.0675774  11.1173697  40.2876968  61.7873688   9.7226334
  52.6728668  12.3192291  17.4998131  53.1133766  12.5920362  16.6949787
  53.3539352  11.8788033  18.0081482  56.6804581   1.2307453  60.3906937
  57.5030212   1.7161410  60.4540634  56.7755699   0.5151827  61.0193062
  52.0495415  22.5904427  61.0728531  51.4132271  23.3046741  61.0380402
  52.7281418  22.8435192  60.4470024  64.2779236   0.6438225  48.9501457
  64.2305145   0.1583922  49.7737617  63.4413681   1.1058556  48.8959541
   1.7737591   4.7244887  41.6521721   2.6769481   4.4530592  41.8159027
   1.3414445   3.9346590  41.3273544  78.6633530  25.6745892  21.1070156
  78.9582367  25.4500256  20.2244892  78.9541779  26.5776291  21.2341843
  84.2360840   5.1430950  37.4721107  83.4079361   5.4517326  37.1044884
  84.8585358   5.2077498  36.7478142  50.2591782  37.9826584   5.1269321
  50.5981522  37.0876236   5.1423817  49.8107109  38.0834503   5.9665446
   7.7050266  40.5978699  48.2448044   7.0721726  41.2990265  48.0895424
   7.2266994  39.9551468  48.7685814  80.9806366  29.6815987  23.3966618
  80.3405457  30.3931618  23.3827400  81.7273407  30.0214596  22.9035473
  42.5807190   6.8933892  72.4404297  42.9854660   6.0758767  72.1504593
  42.4125252   7.3773446  71.6318970   3.5444245   0.6166785  62.3133316
   4.1065063   0.2617366  63.0020332   3.8536117   1.5142258  62.1906776
  61.9297600  29.7135448  32.9628334  62.4076614  29.0625610  33.4767075
  62.6073685  30.3058453  32.6368561  64.2560196  66.6241913  11.4541225
  63.3199921  66.4287567  11.4107046  64.6613388  65.7977142  11.7165852
  52.6207504  30.2455006  35.3739929  52.5710983  29.6141624  36.0917549
  51.8710594  30.0348034  34.8173943  77.2499619  11.1029615  18.9758778
  76.7486801  10.2917576  19.0589066  77.1193161  11.3732872  18.0669842
  83.6698685  46.7381287  33.6572609  83.3850555  46.8177910  34.5676308
  84.6258087  46.7280464  33.7053795  49.6662903  38.6961174  36.0676193
  48.7209206  38.5523186  36.1103668  49.7597733  39.6418304  35.9531021
  25.9240303  30.9521980   5.0928941  26.7155457  30.9069653   5.6292615
  26.0870209  31.6740837   4.4858131   9.2229204  39.5531082  43.7064400
   8.6557751  39.2309380  43.0058784   9.5434217  40.3963776  43.3864288
  70.5454788  26.8475475  81.4571686  69.6983871  26.9306641  81.8950653
  71.1328964  26.5109520  82.1338348  40.6997910  16.5485573  86.6724091
  41.4965286  16.2861633  87.1334915  40.2093201  17.0615749  87.3146591
  70.8091354  40.7242851  69.5875320  71.7337418  40.7262955  69.8351898
  70.7498627  41.3639488  68.8779221  44.0620651  13.8722515  71.8538284
  44.6179047  13.8840876  71.0746384  44.5971909  14.2779274  72.5359573
  26.1673927  46.9389267  63.7400093  26.0907993  45.9891167  63.8306961
  25.4360638  47.2879219  64.2495117  56.1859894  19.1149654  15.6246462
  56.8906631  18.7811184  15.0694761  55.5509644  19.4830341  15.0102348
  10.1491337   8.1462927  81.9133606  10.8147078   7.4596300  81.9550476
  10.6201277   8.9175396  81.5978088  84.0822525  17.7573318  85.7349930
  83.1771469  18.0551605  85.8262024  84.5671082  18.5406456  85.4750595
  50.7288971   4.8842845  59.9117279  50.0866814   5.3264070  60.4669914
  50.2025948   4.3689013  59.3004875  68.8646774  62.2999458  66.5068665
  68.4020157  62.1926041  67.3379211  69.6708298  62.7607307  66.7393112
   2.8164880  60.4565163  31.1376324   2.0780876  60.8624191  31.5917683
   2.4116168  59.8669357  30.5014687  41.9061012  44.2248192  59.4544258
  42.6247864  43.8861313  59.9882965  41.9724045  43.7429314  58.6300316
   7.6047034  64.3164520  36.9187546   7.3214469  63.8814659  36.1145248
   7.0957875  63.8947639  37.6111488  17.9098530  59.1987648  77.9716949
  17.6269207  58.5123825  78.5758972  18.8321514  59.0050812  77.8041153
  23.0256138  22.8892078   4.4273477  22.8628216  22.1972980   5.0684333
  23.9784355  22.9786339   4.4082012  48.9789009  14.4821482   7.3150425
  48.6022644  13.9413719   8.0092602  49.8298683  14.7543640   7.6585269
  61.2891006  57.8896370  82.5549774  60.4458504  58.0551186  82.9766159
  61.8043861  58.6764183  82.7329941  46.8863449  39.1555977  32.8477173
  47.4489670  39.8280449  33.2317772  46.6593590  39.4982986  31.9832726
  35.2980156  26.8643188  79.8829269  36.2281418  26.8055878  79.6646347
  35.0268593  25.9569130  80.0219345  74.6318130  36.7683945  87.8450012
  74.8349609  35.8381500  87.7469788  75.3219452  37.1053543  88.4163208
  77.7911224   6.4341860  28.8932800  78.2973099   5.6266737  28.8042564
  76.8871689   6.1393003  29.0034809  41.7265892  41.9695244  45.5953445
  41.6727295  41.3798866  44.8432426  41.8523293  42.8371048  45.2109947
  55.3036461  13.3649263  70.6058502  55.9203224  13.5649643  69.9016266
  55.6875114  13.7711573  71.3829269  46.1385002  36.0787086  63.0296021
  45.7934151  36.5384064  63.7949944  47.0869102  36.0764923  63.1590004
  74.4301376  38.8917007  69.4206161  74.0153046  38.0392380  69.2885284
  75.3213120  38.7781525  69.0902481   2.0532649  65.7814636  75.1626587
   2.6880701  65.9871063  74.4763870   2.4304142  66.1571503  75.9581757
  68.0329514  10.3509684   5.0758696  68.1461868  10.4180565   6.0239773
  67.6394424   9.4887152   4.9420733  70.7706223  59.4769363  49.9180107
  70.8406143  59.1099892  49.0367126  71.6764603  59.6328621  50.1851692
  55.3015480  12.9968967  14.0311193  56.1024590  13.4732294  14.2499409
  55.0716019  13.3049402  13.1544971  59.0544243  67.6504669  26.5367661
  58.1089172  67.7649460  26.4411621  59.3996315  68.5417786  26.5880260
   4.6585221  68.1715088  68.8904037   3.8796170  68.1252060  68.3359756
   4.6852388  67.3253174  69.3370438  17.3092136  43.7834244  83.8907928
  17.8764400  44.4459343  84.2852173  17.8134670  42.9718018  83.9476395
  73.9207001   8.2623873  88.2109146  73.7005463   9.0276985  88.7420120
  74.2844162   7.6343465  88.8350143  61.2971153  30.3338490  40.4411736
  61.8398819  30.9970741  40.8675194  61.5724640  29.5075722  40.8382645
  79.6493912  41.1335030  27.5827217  79.7489014  41.3709183  28.5046558
  78.8620377  41.5982704  27.2993469  21.5029011  14.6438208  74.9760895
  21.6452236  13.9261045  74.3589478  20.7600555  14.3585110  75.5080719
  73.5117035  69.0559311  86.4309921  73.4887543  68.2867737  85.8616867
  73.3771133  69.7960815  85.8391342   9.5603809  49.2627220  36.3254471
   9.6188383  49.2802696  37.2807007   8.9123926  48.5837173  36.1375771
  83.0714340  10.5680428  61.7822380  82.5072861  10.0387468  62.3459854
  82.5262070  11.3130646  61.5294456  54.8922729  70.5173645  78.4495087
  54.8736839  69.8405914  79.1261673  54.2978096  71.1947937  78.7719040
  51.2305374  15.1008635  39.3857574  51.7564430  15.3725281  40.1379890
  50.9155693  15.9206991  39.0051079  20.6779137  16.1280193  70.1678467
  21.1168575  16.2754803  71.0055923  21.1171856  15.3617611  69.7989044
  71.5341568   5.9512167  42.6128349  72.1308136   6.1486764  41.8908653
  72.0214767   6.1950259  43.3997993  62.7246094  10.5042305  59.1982803
  63.1094131   9.7720127  59.6799622  62.6872902  10.2009792  58.2911568
  11.2614508  36.0933380  25.1654320  10.5604076  36.3565407  25.7616653
  12.0414104  36.5330582  25.5038681  38.9637146  69.6436386  79.6358795
  38.3787575  69.2532196  78.9865417  39.7723999  69.8192825  79.1548309
  21.3052406  71.7607269  13.0533886  21.4169979  70.8102112  13.0695152
  20.9794903  71.9486847  12.1731672  45.3213768  30.3507977  27.1073933
  45.0219879  29.5112247  27.4562683  44.6741142  30.9838123  27.4181576
  21.4062004  30.8498917  76.2969818  21.9130344  30.5855274  75.5292130
  20.5823746  30.3690624  76.2173080  74.5680618  70.0385513  36.0277863
  75.1358185  69.3348465  36.3419380  74.6610870  70.7313309  36.6817284
   3.7357609  27.0889511  84.3423996   2.7976336  27.2089272  84.1949005
   3.9043005  26.1819725  84.0870209   4.4320254  34.8999710  75.0738983
   5.2296700  34.9267731  74.5454330   4.0997734  34.0094032  74.9610596
  67.8025665  23.6254940   8.0401335  67.9830475  22.7483559   7.7020698
  68.4328232  23.7425785   8.7509785  18.4868755  14.0381765  72.6778336
  19.4189987  14.2555351  72.6662827  18.2238388  14.0625429  71.7578049
  29.3749409  57.1620560   7.7460675  28.7923203  57.9083595   7.8868380
  30.1818123  57.3984756   8.2035599  28.5376625  44.7891426  60.8337631
  29.3786812  45.1004639  61.1684227  28.7157612  44.5491219  59.9244194
  62.2394104  41.2672844   6.0505376  61.5556602  41.8914986   5.8074913
  62.5081367  40.8715401   5.2214389  10.8955145  34.9364319   3.7399414
  10.9391079  35.8115768   4.1252356   9.9621906  34.7240944   3.7328105
  74.6342773  55.6052322   0.5552998  73.7030716  55.3840904   0.5686956
  74.7081757  56.2905235  -0.1088904  42.6851425  -0.0930916  68.5501404
  42.6716843   0.4498758  69.3383255  43.6098976  -0.3028869  68.4195862
  85.7257309   4.4968705  68.1798859  86.3323364   4.1351833  67.5337830
  86.2477646   5.1331067  68.6686783  22.9900608  26.4016571  68.7622299
  22.7660675  25.4712639  68.7829056  23.0575676  26.6111126  67.8306732
  14.1264553  30.3009548  87.4675293  14.8573360  29.7724800  87.7880859
  13.4283304  29.6678047  87.3002625  56.8019028  43.8950958  39.8298149
  57.0998230  43.7259712  38.9360199  57.4908676  43.5300179  40.3850441
   3.2508662  31.4623394  61.1625214   3.7898080  31.3867683  60.3750839
   3.8661671  31.3440189  61.8861504  50.7329445  36.0591698  75.4224777
  50.4789505  36.3957939  74.5631714  51.1014328  36.8166504  75.8770905
  49.2718658  26.0994396  70.3760452  50.1063309  26.5028267  70.1369247
  49.4945068  25.1909084  70.5791092  63.3104401  44.9425507  65.8738861
  62.9475594  44.9902687  66.7583466  63.9975166  44.2786713  65.9323959
  17.7705059  63.1390495  86.0142899  17.4791355  62.6782913  85.2275009
  17.4871807  64.0435715  85.8808975  85.9683304  23.2292404  67.9947586
  85.4325790  23.1988754  68.7873993  86.4346466  24.0631676  68.0526505
  85.3208771  24.3137970  56.2709389  84.8443146  24.0578136  57.0606117
  84.6367798  24.4932899  55.6259422  69.3189621  29.0927010  27.0695457
  68.6929932  28.3866673  26.9085712  68.8103104  29.8950748  26.9524975
  59.2889519  19.4984493  77.6615067  58.6500702  19.5619450  78.3714600
  59.1796989  18.6110859  77.3196259  40.7033539  67.0261154  14.2281036
  40.9158707  67.1780701  13.3072472  40.6663780  67.9017258  14.6130266
  83.2250061  24.9263992  88.4822769  83.1899414  25.7468185  88.9741287
  82.4395676  24.4510288  88.7530899  44.9048271   6.0588269  28.7202263
  44.7410431   5.4074368  28.0382462  45.8355370   5.9644871  28.9229813
  72.3319550   6.3709564  14.4886923  72.3424835   7.1647248  15.0235319
  72.0808105   6.6734948  13.6159782  66.0974731  29.1358662  37.6769066
  65.5556946  28.4101658  37.3669662  66.0469208  29.7879963  36.9780502
  30.9927902  22.7703590   8.2906227  30.7467518  22.8395176   9.2130728
  31.4583721  21.9363060   8.2288008  65.0043869  64.4150620  85.8912201
  64.8737793  63.7711830  85.1950989  65.7469559  64.0783691  86.3926697
  14.2949286  42.0548134  88.2402573  15.0464821  42.6474075  88.2555161
  13.5862885  42.5763702  87.8633804  10.4199409  50.7920990  78.8251266
  10.3807411  51.4249153  78.1080246   9.7810726  50.1202850  78.5869064
  68.8761978  61.4535332  56.7587700  68.1411743  61.7116051  56.2025566
  68.6062775  61.7019234  57.6428947  18.7917976   3.6880932  88.1837311
  19.5568314   4.1843204  88.4747925  18.2837029   4.3128910  87.6663361
  82.0357437  21.4391479   5.2033663  81.1970367  21.6749287   4.8068824
  82.4323578  20.8301315   4.5804462  31.2448807  51.9535675  87.5366516
  30.7278214  51.9695702  88.3420258  31.6448193  51.0839844  87.5260315
  58.8562279  38.7318878  30.4018917  57.9281311  38.9095535  30.5545425
  59.3144455  39.3158150  31.0062923  71.3656082  54.7208138  68.4811401
  71.8833771  54.7926979  67.6792831  70.4985733  55.0440254  68.2361755
  11.6637650  71.1199417  81.2300568  12.1612682  70.4286804  80.7931595
  11.6668930  71.8471985  80.6077118  46.9360352  60.3034897  74.6768799
  46.8488770  60.8726540  75.4415359  46.0434227  60.2117043  74.3436356
   7.4696474   2.1650624   3.5828722   6.5325427   2.2451625   3.7607794
   7.8407569   1.8308630   4.3994627  18.5796394  58.9715919  26.4759541
  19.0977478  58.6682625  27.2214661  18.7086315  59.9199905  26.4646645
  82.6114044  25.6433620  30.4321365  81.7651367  25.9377689  30.0954075
  83.0865021  26.4515114  30.6255493  56.7449799  64.4876938  75.6730957
  57.6968193  64.5779266  75.6273727  56.5909843  63.5444565  75.6200180
   7.0967360   3.7861786  25.3651867   7.1623292   2.9748163  25.8687954
   6.9843955   3.4975019  24.4594955  54.1050034  20.6795540   7.4860706
  54.9498177  20.3842888   7.8256788  54.1246834  20.4451370   6.5582275
  72.6471024  30.2674999  86.2439117  71.9612274  30.6031303  86.8211136
  72.3908005  30.5630398  85.3703003  53.7207222  67.8848267  49.0105095
  53.3946037  67.3630295  48.2772903  53.5792694  67.3323441  49.7792702
  60.9798775  60.5210152   5.9769931  61.2209358  60.5131760   6.9033089
  61.7883224  60.7551193   5.5210915  77.8818359  54.5590477  35.6137390
  77.1658249  54.9643097  36.1029434  78.2119827  55.2580414  35.0492516
  14.7851057  61.3606987  43.5588379  14.2400370  60.5768738  43.6277504
  15.2062511  61.4356117  44.4151421  67.1136017  33.7585983  64.3932800
  67.5223389  33.0492516  63.8973007  66.1761475  33.6564560  64.2290268
  29.9025288  70.7569733  85.8039474  29.8081913  71.4893723  85.1949081
  30.7153893  70.3272858  85.5377579  66.5174561  28.9786758   6.9988127
  67.1587906  29.4532776   6.4699697  66.7948990  28.0639820   6.9479022
  44.4274330  58.4682350   6.1173820  43.7667694  58.2606049   6.7781739
  45.1373787  57.8486137   6.2855487  77.4383926  62.5007362  73.1494827
  77.5569992  62.8046837  72.2496033  78.2182617  62.8088531  73.6111069
  52.6444244  25.7193241  45.5597229  51.9271698  25.9944077  44.9886703
  52.7685966  24.7918034  45.3584328  28.7607327  41.1467972  57.3779678
  28.7953968  40.3092957  57.8401566  28.1858330  40.9840508  56.6301498
  61.9748268   0.2806444  70.5800781  61.9430199   0.1604163  71.5291672
  61.7311134   1.1965922  70.4463806  68.8229141  24.2886562  64.6459885
  69.3299713  24.8148327  64.0277176  69.3067474  23.4654655  64.7130280
   4.8443351  64.4007111  43.6889954   5.1952677  65.2520905  43.9502106
   4.1922007  64.1947556  44.3587189  40.7704124  43.0541191  31.3171902
  40.3903694  42.3298569  31.8144283  40.0780754  43.7144928  31.2888451
  75.6089554  26.6553135   7.0456476  75.8568954  26.1945457   7.8471785
  74.7708054  27.0671730   7.2556477  61.9376907  48.9436760  85.5419846
  62.2067413  49.2899971  86.3928070  62.4165268  49.4741745  84.9051743
  67.3123779  48.0635872  80.2001190  66.4551773  48.4537582  80.0292511
  67.2287598  47.6733093  81.0701370  59.3199272   7.4895558  68.8757553
  60.0744400   7.3594375  68.3012848  58.6297836   6.9494820  68.4907227
  20.3030376  51.5095711   1.5045886  20.7042904  52.2145576   0.9964323
  20.9936810  51.2215195   2.1014717  48.6086311  50.0305176  40.0533867
  48.3324966  50.0202408  39.1369400  49.5170174  49.7294197  40.0332184
  64.9742813  29.5288410  64.5979767  64.1510696  29.0409470  64.5752411
  65.0369034  29.8511753  65.4970932  66.8986816  37.1534004  29.3112411
  65.9500885  37.0258293  29.2997780  67.0512619  37.8711929  28.6966515
  80.5311737  66.3199768  85.6889191  79.9603271  65.6295547  85.3517609
  80.8222122  65.9952850  86.5410309  74.2007675  24.4699726  46.9128952
  74.7438889  24.1988010  47.6529770  73.4295273  23.9051819  46.9621620
  65.9062729  41.7183266  12.3099813  66.2127991  42.3842850  11.6945362
  66.5564957  41.0185204  12.2491007  53.5394287   4.5703788  59.3493805
  53.8802071   3.7087874  59.5897217  52.6228333   4.5506830  59.6245079
   2.3510723  24.8580036  73.4686661   2.8112049  25.6973534  73.4698639
   2.8016505  24.3388023  72.8025970  49.1165352  52.4033051  64.9992676
  48.4548264  52.4073486  64.3076401  49.7750740  53.0322723  64.7043762
   1.9649608  54.1571388  38.4212837   1.6952866  53.6060791  39.1560249
   2.8780525  53.9167480  38.2640953  49.2877655  24.2422562  60.2699127
  48.8184357  23.4133205  60.1759453  48.6800156  24.9010162  59.9338951
  54.0683365  49.7868919  51.0974007  54.3609467  50.6157417  50.7184296
  54.8357697  49.4511566  51.5606117  76.7357025  56.9598961  36.7942772
  76.7511826  57.5041389  36.0070076  77.1907196  57.4817772  37.4552116
  47.1599426  62.2159729  27.1472702  47.0278702  61.8525085  28.0228729
  48.0502968  61.9553413  26.9115448  67.5712357  45.1252022  18.0519123
  67.4110947  45.3086548  18.9776192  68.5127716  45.2572403  17.9409637
  62.9644547  19.0053329  28.3216934  62.2465820  19.6342506  28.2485352
  62.6714973  18.3839397  28.9882336   3.0669932  40.5856514  38.9145851
   3.6945767  39.9015808  39.1478691   3.5989673  41.3753166  38.8162804
  86.0513458  62.7586517  79.9903793  86.7975388  63.0547714  80.5116653
  85.5257111  63.5471001  79.8551102  59.9979134  11.8183575   5.9405842
  60.7820396  11.7744656   6.4878030  60.3315620  11.9627676   5.0551147
  21.4858074  27.1308517   3.1368167  21.2929211  26.2039223   2.9960048
  21.8794575  27.1638203   4.0087023  15.5716143  32.1110191  85.8303299
  16.3494854  32.0260849  86.3816376  15.0697441  31.3137436  85.9997787
  14.3896856  39.8028793  25.6286583  15.1365891  39.3695221  26.0416565
  14.7821999  40.4182663  25.0094128   5.1600881  63.6161766   1.1868535
   5.5256333  64.4169006   1.5629554   4.8760800  63.1039162   1.9439263
  51.2123070  30.2325649  68.5977783  51.3360367  29.5739288  69.2812347
  51.2707672  31.0696106  69.0583954  77.4300308   5.3775878  59.1413918
  76.5773239   5.6660285  58.8159218  77.7141953   4.7137871  58.5130157
  83.1544189  41.4698296  69.0722046  82.7421341  40.8128204  68.5113220
  82.4575577  42.1000900  69.2549133  14.0654659  29.9988136  10.9268084
  13.9545670  29.2119541  10.3931532  13.7789707  29.7371063  11.8018293
  49.1945877  40.5463791  19.0449295  49.0129776  41.3007698  19.6054192
  48.6609993  39.8414536  19.4117947   0.9909802  58.0820503   2.5680859
   0.9795479  58.1182899   1.6116406   1.8155973  58.5013962   2.8138201
  85.4362946  59.6237411  14.5397291  85.0476608  59.0575104  13.8729601
  85.2249832  60.5120087  14.2523947  71.2464142  48.1333427  37.9209709
  71.8409271  48.8062973  38.2525253  71.2616119  48.2474213  36.9707146
  13.8169146  18.5397911  16.8467808  13.1235733  18.1058769  16.3495598
  14.5995131  18.4384480  16.3050232  55.9192810  38.8063965  43.6507187
  56.7173347  39.2481194  43.9409447  55.9405861  37.9580078  44.0934525
  79.1632614  47.5973778  24.4012909  78.4272003  48.0905190  24.0389919
  78.7938156  47.1326981  25.1521664  56.1711807   2.0159311  44.5263863
  56.2593384   1.0702765  44.6455383  56.1553993   2.1372769  43.5770378
  46.7740784  19.6234398  59.7218742  47.1253967  19.5654926  58.8333626
  45.8454361  19.8208389  59.5998421  74.7247009  35.1214600  10.9570570
  75.6758804  35.1585541  11.0575905  74.5893555  34.6714172  10.1231651
   7.5259442  23.2304668   3.9085276   7.1176910  23.3069077   3.0461366
   7.4943771  24.1170807   4.2679033   8.3162918  26.2235279  12.8641958
   7.3973808  25.9751053  12.7635956   8.6350031  26.3304234  11.9679661
  42.0032463   2.0311885  20.2113342  41.4193077   2.7891750  20.1848679
  42.6219215   2.1803801  19.4963398  32.2942581  67.6812744  22.0870132
  32.4032784  67.9092407  21.1637688  31.4295235  68.0211334  22.3171387
  21.0203323  38.3106880  23.7817459  20.1598549  38.2238312  23.3715439
  21.6391678  38.2599983  23.0532513  69.9347534  67.2039795   6.3860493
  70.1874466  66.9417801   7.2712779  69.7218399  68.1340027   6.4633064
  76.0527802  68.5409698  37.9562073  75.6482544  67.6784973  38.0496254
  76.2417068  68.8153687  38.8535614  77.0938339  11.7958946  72.6318283
  76.3333740  11.8159637  72.0508499  76.7339401  11.5707073  73.4897308
  32.3997536  69.8813095  59.4679222  32.7197533  70.7526932  59.2344284
  31.5268478  70.0355530  59.8291321  16.4840679  63.6912384  47.4814301
  17.0634098  63.7128983  46.7197685  16.4852066  62.7746315  47.7572289
  61.2798538  57.9323158  25.6921864  60.9034538  58.8107224  25.7466030
  62.1907310  58.0774841  25.4363346   0.5096720   0.3769338  69.5108490
   1.1506221   1.0135278  69.1943588  -0.3264622   0.6847470  69.1610413
  48.4077835  70.8176575  72.4125595  49.2370148  70.7632599  72.8875809
  47.8932152  71.4596710  72.9017181  47.9195862  57.6241684  29.3903065
  47.7253647  56.6935043  29.2790794  47.3296280  57.9102821  30.0876732
  68.9688950  48.8417091  86.6453629  69.5802536  48.3854752  86.0671616
  69.1776428  49.7688446  86.5310211  14.5487328  51.7011452   9.5878553
  15.1950712  50.9992790   9.6644392  14.0399303  51.6475143  10.3968525
  73.6698608  38.1893692  51.5083122  74.5700378  38.4599495  51.3275070
  73.7559586  37.4846191  52.1502991  19.9582481  67.4618073  27.8280296
  19.0798073  67.3543549  28.1927643  20.5157375  66.9142227  28.3808270
  42.1859932  68.1011810  37.6376419  41.9685440  67.8060379  36.7534256
  41.6535339  68.8862228  37.7658234  67.1649246  10.3961296  82.4461212
  68.1185608  10.3247862  82.4875412  66.8513641   9.5038252  82.5934448
  57.2328110  18.3752632  27.9713516  56.3543816  18.1177940  28.2511768
  57.2244644  19.3318005  28.0059662   6.1950345  45.8784485   9.5773954
   6.9804635  45.8131790  10.1206017   5.4712682  45.8933029  10.2036333
   2.7555811  22.5633774   6.6132526   3.4199078  22.4645786   5.9312406
   2.1312344  21.8579807   6.4434361  33.6464767  28.7953072  85.2223282
  32.8903236  28.5308552  85.7462845  33.7011909  28.1357174  84.5308228
  59.6370392  50.4703751  60.9082642  60.1455193  50.8812752  60.2090950
  58.9443512  49.9928589  60.4517670  43.6836929  33.0673370  33.0226822
  43.8311195  33.9712830  33.3008461  43.5129433  32.5914497  33.8354607
  32.5395126  24.3251362  12.8825369  33.2603683  24.5305042  12.2872000
  32.4292374  25.1178627  13.4075661  78.8173828  44.5690880  83.6803207
  78.0097046  44.1591568  83.9898987  79.0914688  45.1339645  84.4028320
   4.5243845  57.6935501  85.7303696   4.2102847  58.2174568  86.4673233
   4.1520452  56.8242798  85.8785553  83.8538055  15.2701406  60.6133690
  83.6477203  15.3210077  61.5467377  83.0396271  14.9773912  60.2039261
  69.0000687  54.2309303  65.2374725  69.2787476  54.9616127  65.7894440
  69.8024597  53.9368782  64.8062744  64.8174057   0.5056610  69.5058975
  63.9504547   0.8188716  69.7638168  65.4100647   1.2189741  69.7429123
  45.3925438   1.9642611  68.4490433  45.5236740   2.1447127  69.3798904
  44.8147888   2.6656237  68.1481781  31.7894173  59.4151039  70.3255005
  31.7983208  60.0102081  69.5758362  32.6855164  59.4392700  70.6611481
  49.9864464  53.1648254  78.0369339  49.1135521  53.5029945  77.8371048
  50.5407677  53.9439240  78.0812912  55.6750412   2.7320542  70.5242310
  54.9720612   2.6371663  69.8815384  56.4717140   2.8054063  69.9987106
  40.8401337  47.3882065  51.3382645  40.4017029  46.9050980  52.0387039
  41.5476494  46.8092918  51.0545197  23.6090794  40.0834312  24.6692867
  22.9994850  40.6386795  24.1831512  23.8880615  39.4222412  24.0358639
  24.7265491  54.7318344  46.2553902  23.9211426  54.2404022  46.4167824
  24.5801353  55.1615524  45.4126930  70.4602051  70.0280304  38.8502617
  71.3697052  70.1720200  39.1116257  70.5187302  69.4582825  38.0833206
  39.1496353  47.1204758  17.5515270  39.4989128  47.1834793  16.6625576
  39.9085732  47.2612534  18.1175880  71.9755402  37.6899109  49.5585976
  72.4153061  37.9705658  50.3611374  71.3673553  37.0083199  49.8445549
  55.2405739  52.4752274  44.0892067  55.8737259  51.9190369  43.6353302
  54.8088074  51.8888969  44.7105179   1.2255034  64.2548676  27.0455055
   1.4811553  64.5783920  26.1816750   1.9857469  63.7595940  27.3504086
  51.5435524  21.0067005  37.1414757  51.2314453  21.8694553  37.4143791
  50.8039169  20.4215965  37.3052559  11.4258537  41.9984131  55.4980354
  11.6533279  41.2775116  54.9108505  10.5241632  42.2207527  55.2661934
  61.1133461  51.5734024  25.2831059  62.0479088  51.7658768  25.2070866
  60.8097000  52.1375313  25.9942951  31.6111660  58.7323608  28.2653370
  32.3944588  58.2201843  28.0644321  31.7073917  58.9648819  29.1888676
  11.8119364  66.8849182  44.8655128  10.9872160  67.3632355  44.7801666
  11.8362236  66.3108826  44.0999222  70.9789276  46.1117783  56.4898720
  70.1497040  45.7945747  56.8476486  71.5944061  46.0494385  57.2203064
  50.6267433  11.3478508  80.5931854  51.1491547  11.4070005  79.7932968
  50.5507774  10.4084940  80.7607269  32.5925369  14.4556284   3.5959246
  33.3636093  14.0557108   3.9981017  32.5945969  15.3569489   3.9181821
  53.8599892  58.7201462  83.9141617  54.2405128  58.8470497  83.0450668
  53.0120468  58.3088493  83.7466354  28.4312630  13.6605883  77.7194214
  28.2678318  13.2598524  76.8656464  29.3438358  13.9466085  77.6790085
  61.4159546  46.3122673  84.6109161  61.8396187  47.1243248  84.8889465
  61.2900963  45.8182335  85.4210587  25.3877525  37.6918945  23.7009048
  24.7456379  37.8011169  22.9994831  25.7553329  36.8201294  23.5555058
  40.5575485  16.7259941   5.2733870  40.5784683  16.9715309   4.3484516
  39.7569847  17.1285133   5.6100016  44.5392265  51.8635292   0.6150720
  45.2533684  51.2764893   0.8633008  43.7464104  51.4119987   0.9045389
  39.9055748  28.8715229  56.9840660  39.1924591  28.8209362  56.3475609
  39.7901840  29.7229958  57.4058609  57.9239655  69.5080490   8.2796974
  57.0534897  69.3282928   8.6349306  57.7564278  69.9134216   7.4289122
   9.6937551  55.4055786  37.0502586   8.9609165  54.7902184  37.0728149
  10.4384489  54.8805313  36.7570190  19.6787090  70.0070724  83.8084946
  20.3234596  69.8260345  84.4924240  19.5440693  70.9538116  83.8508148
  46.2795372  62.0084381  62.5077553  45.8678093  61.2818146  62.9754410
  45.5739937  62.6430397  62.3823776  20.0485725   9.8431673  72.8473129
  19.7926216  10.2012491  71.9973145  19.7756786   8.9263353  72.8129730
   0.7990523  12.6345758  41.7395630   1.2753563  13.1793833  41.1130219
   0.1918561  13.2376738  42.1683044   2.3726742  49.7220573   4.7971764
   2.7241170  49.9180565   5.6656833   2.4072580  50.5572052   4.3307395
  50.3779297   3.8316243  15.6894445  49.7875862   4.5428171  15.4405813
  49.7963486   3.1217415  15.9615917  66.4051514  31.9669018  56.2296791
  66.9952774  31.2160873  56.2949562  66.0704041  31.9312439  55.3336296
  26.2031498  41.1620407  44.9001389  25.9483490  41.7472343  45.6134834
  27.0226154  40.7659073  45.1964264  20.4983692  22.7590656  73.8579636
  20.9406815  23.5920639  73.6945419  19.5668564  22.9792862  73.8621521
  37.3265114   8.6249981  23.7136173  36.6098862   8.0146217  23.8871670
  36.9277077   9.4915018  23.7933483  76.6662064  38.1735954  12.8450975
  75.8442383  37.6971741  12.9618416  76.4231720  38.9508438  12.3420534
  62.8932686  41.9109764  80.8581314  62.5498886  41.5093994  80.0599670
  63.2194481  42.7652626  80.5752258  20.4491405  44.3453102  60.9989853
  19.6358528  43.8474998  61.0825195  20.2247429  45.0757103  60.4224510
  38.7419472  17.1816235   0.5392652  38.1119804  16.5200005   0.2535596
  38.9896317  17.6392365  -0.2641490  19.2406902  55.5165405  29.9898853
  20.0773010  55.1816597  30.3126316  18.7066975  55.6254921  30.7767868
  78.7845993  13.0670643  34.1294403  78.1229935  12.9005880  34.8008537
  79.6171951  12.8745565  34.5606766  75.9498978  24.8238068  73.1165695
  76.0408478  23.9938145  73.5846252  76.7858582  25.2692776  73.2542648
   0.4960360   6.2779717  47.7136726   0.6318552   6.4287686  48.6491127
  -0.0078809   5.4651818  47.6727791  51.2025528  39.2376785   8.9911194
  51.9450722  38.8250389   8.5499535  50.4409142  38.9757500   8.4738846
  58.0870628  35.1362114  64.7587585  58.4405479  35.3460732  65.6231842
  58.0406532  35.9792709  64.3078461   1.7008660  69.9410095  75.6860275
   1.8970639  69.8664169  74.7521210   0.7448142  69.9298706  75.7315521
   7.8069644  68.9957275  32.9444008   7.7503772  69.5047913  33.7530327
   7.6032462  69.6237030  32.2513008  61.4182587   4.9023352  15.0937386
  61.4035034   5.1598873  16.0155201  60.6634445   4.3220282  14.9950838
  78.0444260  33.4675255  40.6897011  78.1153259  33.1411476  41.5867424
  77.2054520  33.1288490  40.3772125  63.3145332  69.3252640  53.9487114
  64.2223587  69.5095367  54.1897888  63.3794823  68.6698761  53.2540970
   7.1904254  48.2913208  22.0982914   6.8430281  48.7094383  21.3104305
   8.0951872  48.0731773  21.8745689  30.5358753  58.7181091  87.8860779
  31.1106434  58.5449409  87.1404953  31.0560703  59.2750740  88.4652328
  11.4868717  43.4487953  81.9227219  10.5454187  43.3236313  81.8034210
  11.8716249  42.6020126  81.6965485  67.6052094  56.4840012  39.0929108
  67.7028351  57.2851257  38.5782204  66.7602158  56.1259842  38.8207970
   4.0099430   4.5406466  69.9569168   4.6089392   3.7985587  70.0390244
   4.5726852   5.3116846  70.0280075  70.6254120  62.7922592  15.2602215
  70.0888672  62.0890312  14.8944120  70.8979874  63.3058434  14.4998455
  57.4663696  14.1813164  37.8702583  56.5262489  14.3220310  37.9825363
  57.8516502  15.0527039  37.9623108  82.2242813  64.7477188  27.6183453
  82.6772461  64.5066681  26.8102951  81.5105362  64.1140594  27.6909924
  58.4242287  28.3931198  18.5936871  58.3339806  29.1849747  18.0635414
  57.8196030  27.7675018  18.1946068  -0.0430202  44.2949104  58.0344772
   0.4855828  44.2745590  57.2367325   0.2174469  45.1044655  58.4738007
  64.9225922   9.7651711  25.8237553  64.4936752  10.2858658  26.5028267
  65.6392517   9.3224173  26.2782936  14.6386023  44.3425751  84.8697281
  15.5470839  44.2203369  84.5941315  14.2246647  44.7965698  84.1357117
  33.9672508  64.8270874  42.4831314  34.5440063  64.8661957  43.2460556
  34.5565720  64.6713867  41.7450981  71.1171722   7.8284163  50.6527748
  71.6910477   8.1430130  49.9542580  70.7936707   6.9852657  50.3354797
  80.4500046   0.6188892  14.5806866  79.6407394   0.6870846  14.0740623
  80.4616470   1.4089458  15.1209707  32.6267281   9.6340427  83.7120667
  31.8660431   9.1740541  84.0670319  33.1683998   9.8271704  84.4772644
  30.3213100  70.4843140  39.4433060  31.1939507  70.7236633  39.7554703
  30.4478321  70.2709198  38.5188141  20.8523102  22.1300335  16.2846394
  20.6665230  22.2528439  17.2155704  20.7492294  21.1891632  16.1419182
  52.5432434  23.3671532  16.6594887  53.3013535  23.1801529  17.2131462
  52.0969315  22.5248985  16.5720539  33.2529831  41.9264336  55.7270699
  33.6496544  41.5619545  56.5182953  33.9562416  41.9115486  55.0778885
  33.8805618  37.1503754  87.7110596  34.0580597  36.5324402  88.4202042
  32.9257545  37.1747589  87.6480026  37.6880035  47.9811592  35.7105865
  38.6047668  47.7876549  35.9063721  37.4789886  47.4200821  34.9637718
  33.8525047  55.3283119  72.3703079  34.4058228  56.0479546  72.0666809
  34.4432411  54.7677727  72.8733597  20.6063347  44.5664978   5.3648009
  20.2093410  44.3452606   6.2072277  21.4579163  44.9398766   5.5920210
  34.1674576  69.9536972  55.8551979  34.9151535  70.5382462  55.9796638
  33.4360237  70.4080582  56.2732773  47.5395813  64.0945587  25.1309834
  48.1441116  63.6612358  24.5284843  47.3332863  63.4266510  25.7848759
   8.8033113  39.0045547  27.1510468   8.7579937  39.5246468  26.3487492
   8.7969456  38.0964546  26.8484802  82.3192825  59.0723305   8.7527428
  82.5814285  59.9886284   8.8416901  81.7161789  59.0668221   8.0094604
  57.4432030  10.1813974  50.2457504  56.4978294  10.1317129  50.1042061
  57.8082047   9.5176001  49.6606216  47.4081078   2.0622971  87.8114319
  46.8433685   2.4735775  87.1571045  47.1297913   2.4458492  88.6430969
  48.9694748  61.1796913  67.5996475  49.2186852  60.7478371  66.7825623
  49.3816528  60.6529083  68.2843628  58.5170326   3.4544716  44.8327103
  59.0833511   2.7196598  44.5969849  57.6284981   3.1247573  44.6984253
   4.5494251   4.9386435  58.0206070   5.3494282   4.4145317  58.0597763
   3.8886662   4.3412995  57.6701622  84.6666183   4.0424461  42.9467201
  84.7600861   3.4808426  42.1772423  85.2544250   4.7789407  42.7785339
   6.5313702  12.2072659  53.4922256   6.6502905  12.8887939  54.1537476
   5.6170597  12.2926321  53.2220764  20.9911327  36.0094948  74.6127777
  20.4544621  36.6687851  75.0527191  21.4463100  35.5579834  75.3235321
  66.0683670  61.1475945  12.9764404  65.2272186  61.3673553  13.3769541
  66.6697235  61.0585785  13.7158175   3.7977889  49.8466034  57.4461823
   3.4942861  49.5499992  56.5881958   3.4840519  50.7484856  57.5125961
  42.2502480  27.5388126  62.8955803  42.2703934  28.4900074  63.0007286
  42.2172432  27.4031696  61.9486160  81.1307907  70.5036316   8.1254950
  81.3319168  71.4301682   7.9939542  80.3321075  70.5044708   8.6530733
  75.9349289  41.1762581  76.3169632  75.2804108  41.8418121  76.5288010
  76.4356308  41.5542908  75.5940399  51.4488144  17.6887054  18.7239952
  51.3627892  18.0596275  17.8457870  52.3245316  17.3024349  18.7361240
  76.7338867  39.7227325   5.4416738  76.5196686  40.4316483   6.0481253
  77.0603867  39.0186768   6.0019741  63.7104340  48.6326065  63.5691299
  64.3994522  49.2867279  63.4524574  64.1352310  47.7987671  63.3679047
  85.7062759  55.8952751  40.1568756  85.6284332  56.4251671  39.3635368
  86.5224228  56.1887932  40.5618248   9.2580795  42.4807510  23.7450371
   8.8976755  43.2482224  23.3008232  10.1346292  42.3789978  23.3741760
  12.5264006  11.5810308  84.6188736  12.5188684  10.7053881  84.2323151
  11.6640263  11.6712780  85.0243301  59.0225220  63.2492714  80.9359360
  58.8685989  63.9545555  81.5645142  59.1985245  63.6991196  80.1095657
  39.4428520  42.3688660  41.3728600  38.6404343  42.8780022  41.4874916
  40.0224915  42.9444466  40.8739014  60.8437271  57.3477516  48.8856926
  60.7881126  57.6708527  47.9863892  61.7496910  57.0531158  48.9787369
  51.6451645  19.8779354   9.9298239  51.7505264  18.9762611   9.6263208
  50.7009621  19.9822884  10.0474081  56.1816254   8.2457371  80.8904037
  57.0892601   8.0400677  81.1142960  56.1995316   9.1702719  80.6431198
  80.7841339  26.1803284  76.1747284  80.6272583  26.5710201  75.3150864
  81.1389771  26.8961010  76.7019730   1.8597914  34.4879112  19.1803894
   1.6216871  33.7102432  18.6756382   1.1712804  34.5648155  19.8408985
  81.8996353  70.5700912  30.8486519  82.5033646  70.2000427  31.4927044
  82.4151382  71.2342453  30.3910542  48.8043480  42.0634117  80.5727386
  48.7200432  41.4060631  79.8820724  48.0402527  41.9227333  81.1318436
  50.5198441  68.3304672  50.8313217  50.1242180  67.7544556  50.1771622
  51.0519905  68.9415894  50.3218346  63.2178497  30.2414932   4.8385406
  62.7036209  29.8025818   5.5161533  62.6499329  30.2396297   4.0680199
  58.8351669  23.9593849  32.5114365  59.1425972  24.1498737  33.3976822
  58.5252457  24.8018703  32.1791763   5.7891045  50.5769463  34.4424591
   6.7167954  50.6482124  34.2176437   5.4951477  49.7821808  33.9973030
  61.3439369  33.8488922  70.4249344  61.2919426  32.9828796  70.8293533
  60.4359818  34.1492538  70.3844986  59.2810822  48.1159973  85.2986832
  60.1778297  48.3447227  85.5431366  59.3403053  47.8673363  84.3762436
   7.4312072  66.4759979  81.7779770   7.6885700  67.3608398  82.0369110
   7.8350096  66.3507538  80.9192047  61.5938225  14.6112366  22.4108372
  62.2572060  14.6705008  21.7233448  62.0939941  14.6114264  23.2269611
  44.9848328  33.5493164  41.4437408  44.2637291  33.9382401  40.9487915
  45.7095222  34.1651421  41.3350334  63.5932693   3.8095241  45.3511925
  63.3433456   2.9693654  45.7357750  63.5764008   4.4234829  46.0853615
  81.2668076  62.4143944  34.4834480  81.5310745  61.5786133  34.0989189
  80.4182968  62.2342072  34.8881645  61.8822403  46.7931061  26.5216408
  61.6626015  47.5207977  25.9398708  62.3133507  47.2062721  27.2697525
  78.4967575  70.1902084  74.3763885  78.3354111  70.1446381  73.4339828
  78.6479416  71.1195221  74.5488358  78.8220215   6.8663721  18.8288670
  79.1693573   7.7535486  18.9211159  78.5769196   6.6114264  19.7183361
  46.2417488  37.4650040   3.8326082  46.5858345  37.4362450   2.9398541
  45.5393333  36.8147774   3.8396280  51.5620422  23.8100166  87.1683044
  51.7264366  23.1320229  87.8236923  50.7572670  24.2369690  87.4620438
  82.7718506  32.5505676  48.8320961  83.0129929  33.0810356  48.0726967
  83.4298935  32.7655640  49.4931374  54.1550293  49.1060181  43.4444351
  53.9604683  49.9988823  43.7293472  54.3256607  48.6275520  44.2557220
  13.4560928  24.3936043   9.0260668  13.1801462  25.2367249   8.6665745
  13.0957203  23.7456169   8.4206944  45.5219994  19.0865002  12.4847965
  46.4645805  18.9243641  12.4461861  45.1508217  18.2656250  12.8082495
  68.5046616  51.9390411  19.5413475  69.4146118  52.0498390  19.8169384
  68.2205734  52.8189278  19.2937107  55.5443230  68.8010635  39.4086342
  56.1233482  69.4653549  39.0349045  55.0012589  68.5158844  38.6737976
  71.8788605  63.5671425  84.6422653  71.7531738  64.1182556  85.4147339
  72.1194000  62.7106972  84.9956436   8.5370951  18.4398232  56.5947685
   7.6535749  18.2496853  56.2793808   8.5687695  19.3944435  56.6574440
  46.3716888  11.7581673  63.2989159  46.1961212  10.8607311  63.5817909
  47.1024284  12.0435476  63.8473701  81.0723648  56.6276894  28.5016727
  81.4740524  55.7919388  28.7391624  80.7413864  56.4906921  27.6140270
  37.4412270  69.3980713  31.4345341  37.4396324  70.2074127  31.9456100
  36.6251869  68.9602737  31.6766987  86.5159531  47.6459427  12.6612349
  86.5445175  48.5901260  12.8159246  85.6923752  47.3629494  13.0585546
  30.7879982  61.7176361  27.1299744  30.7760391  60.7622871  27.0716839
  30.7165489  62.0138741  26.2225780  51.6470222  48.8207474  42.2502594
  52.5850563  48.7849846  42.4374657  51.3837662  47.9040031  42.1695786
  38.6671028  68.9059525  42.1161652  38.5571938  69.2561340  43.0002022
  39.3762054  69.4265213  41.7387848  44.3300667  47.4494133  74.6300659
  43.4317780  47.2709045  74.3517838  44.2831917  48.3052139  75.0562592
  61.7479515  11.4693441   3.3603597  61.7209358  10.7822151   2.6945093
  62.5584183  11.3042555   3.8421524  36.1211700  53.5317078  70.2473526
  36.8203659  53.5534363  69.5939865  35.3706779  53.9321327  69.8084259
   4.2438269  19.6118584  73.4782181   4.4899526  20.4390640  73.8922043
   3.4600868  19.8220139  72.9704590  41.8866882  34.7304955  23.4641190
  41.2230835  35.4159317  23.5418453  42.6362724  35.1675568  23.0599785
  49.8540382  54.8307457  36.8746529  48.9958763  54.4251099  36.9981346
  50.3251877  54.2250061  36.3025246  42.6182632  65.6218796  72.7932892
  42.9535980  65.5011597  73.6816635  42.5930023  64.7388229  72.4247589
  34.1759758  71.7791672  27.6287537  34.3268814  71.5916824  28.5552044
  34.3381538  70.9460144  27.1862755  80.0917053   6.0991054  24.6543941
  80.8176880   6.4823022  24.1621170  79.8105392   6.7956681  25.2476711
  44.1197739  28.7668171  65.8414078  44.9956017  29.1093960  65.6630859
  43.7735596  28.5342503  64.9798508  47.2121620  39.1411324  15.1017427
  48.0890350  38.8193703  15.3110199  47.2991600  39.5225220  14.2281265
  19.4811611  46.0431747  65.9874268  20.2782230  46.5677567  65.9116974
  19.2905293  46.0311966  66.9253769  65.3535461  29.2724686  68.8679428
  65.1697159  29.9564610  68.2240524  64.6475067  29.3514061  69.5094299
  16.7150631  28.3151302  36.8095093  17.2298679  27.6682014  37.2918930
  15.9444685  28.4647331  37.3572655   0.4870852  10.0240507  70.5621643
   1.4155763   9.8603888  70.7275391   0.4706610  10.4830713  69.7223587
  56.3019409  62.9372520  38.6520996  56.4235725  63.8175011  38.2962990
  57.1062851  62.7632561  39.1409607  15.4438505   0.1340007  63.7821083
  14.9644766   0.7352654  64.3521194  16.3505821   0.1896853  64.0837250
  32.6332016  39.2242241  31.3339176  32.2512856  38.7820969  32.0921364
  32.3698807  38.6878319  30.5861378  34.7208710  19.0169849   8.1159391
  34.9783669  19.5708637   7.3789554  35.3648491  19.2102242   8.7972488
  23.0549889  21.4935150   1.1741183  23.3821182  21.7305222   0.3063363
  23.4979630  22.0973854   1.7702272  49.9679337  18.3595200  79.9947510
  49.3140030  19.0573692  80.0349426  49.7348061  17.8575134  79.2138062
  66.5466080  54.6886749   8.2553682  66.2841721  54.7242355   9.1752024
  65.7793884  55.0001907   7.7751927  86.7912064   8.1420155  38.4033546
  86.0867538   8.4456501  37.8308334  87.3987045   8.8803883  38.4478951
  47.2102280   2.1090772  13.1285839  47.2570648   2.4490843  12.2350330
  47.7814407   1.3410194  13.1228437   5.7094278  34.3492050  35.5489197
   6.0719881  33.4644432  35.5044174   4.7750463  34.2341347  35.3759422
  18.7115498  66.1872177  19.9113159  18.6652927  67.0083923  19.4216614
  18.5569115  66.4417572  20.8210030  77.7086334  14.1238756   5.8876624
  76.7555008  14.1792898   5.8191638  77.8704147  13.2729969   6.2951736
  56.8907661  41.1514931  36.8021736  57.4149551  40.8861237  37.5578423
  56.3633347  40.3803596  36.5938492  35.4777222  46.2848587  49.1985931
  35.6634712  47.0472717  48.6504517  34.6402206  46.4877892  49.6152992
  31.3813744   4.0095110  69.8478394  32.2301369   4.4155874  69.6719513
  31.4782982   3.1086481  69.5391617  42.4539986  28.6808167  81.0454788
  42.3933945  28.2987976  81.9210510  42.9190865  29.5071335  81.1763611
  84.3988342  41.2589569  53.1031303  84.7951813  41.8323212  52.4470863
  84.8017883  41.5258942  53.9293289  81.2796097  35.7005501  76.9378815
  80.7579422  36.1785393  77.5825653  81.1824188  34.7810211  77.1853867
  70.3433914  35.2049026  53.7418861  69.4138336  35.4332504  53.7441292
  70.3628464  34.2777634  53.9790916  63.3705902   5.7554479  47.5525818
  62.6349907   6.3295221  47.3391228  63.5057793   5.8786736  48.4921379
  26.8824902  36.3589859  79.4045258  26.0359097  35.9452782  79.2360764
  27.4877815  35.6267929  79.5217667   7.1518097   0.1403037  22.9084492
   7.8797078  -0.0826354  23.4887028   7.1783209   1.0951582  22.8469543
   8.7776537  29.0647945  18.4652519   9.7226076  29.1315708  18.3280144
   8.5188293  29.9324341  18.7758102  33.7834167  24.6329479   3.7894008
  33.2370911  24.1041679   3.2078915  34.6333275  24.1926479   3.7855437
  69.2787628  28.9615955  15.6374245  68.7164078  28.8639069  16.4058285
  69.2736053  29.9011879  15.4547453  66.8054199  45.3059654  65.3295593
  67.6140289  45.6885071  64.9889069  66.9920120  45.1341629  66.2525406
   1.8425100  29.0262184  87.7195129   1.4810847  29.6844616  88.3130798
   1.5929025  28.1887150  88.1100388  12.9126568  47.7698364  53.9954109
  12.8755198  47.2326622  53.2040215  12.5965757  48.6292458  53.7165947
  79.7761917  24.5734310  26.3547020  79.6244125  23.6525097  26.5670624
  79.2592545  24.7251320  25.5635033  12.1223860  64.3442688  68.5338593
  12.7670727  63.7028198  68.2352829  11.3012333  63.8546257  68.5806122
  84.3707352  36.0548210  41.9614944  84.0395050  36.8174515  42.4357491
  84.4801331  35.3831253  42.6346130   3.6833949  18.5603237  19.0883694
   4.5194921  18.3084984  18.6962490   3.2773039  19.1340923  18.4386673
  62.6559563   1.2892915  12.5276632  63.5851059   1.3369673  12.3026314
  62.6282768   0.7498095  13.3178692  12.3034954   3.9956100  26.8107128
  12.9238768   3.2667549  26.7993584  11.8463316   3.9340997  25.9719925
  72.9346542  58.6352386   8.6961231  72.2577286  59.1664810   8.2768602
  73.3132706  59.2106781   9.3607683  83.7843323  62.9775238  62.7019272
  83.5767288  63.3550224  63.5566940  84.7292099  63.0994759  62.6093445
  65.0508423  35.9492378  33.2237358  65.7374573  36.3498421  32.6905327
  65.5028152  35.2717819  33.7267303  58.1524811   9.1045094   0.7714696
  59.0923729   9.2161827   0.9141693  57.9431839   8.2719765   1.1949257
  45.9058952   7.4582376   1.0462983  45.2335968   7.8139834   1.6274090
  46.3477325   6.7909703   1.5714346  42.4536057  24.0456448  73.0202713
  42.9478989  24.5592442  73.6591187  42.1788406  23.2651463  73.5014801
  16.7062435   5.8113794  84.3075027  15.7526464   5.7690439  84.2361450
  16.9989510   6.0939951  83.4410858  67.8505020  10.5428686   0.5131251
  68.5021896   9.8585377   0.3607406  68.3435059  11.2576914   0.9158719
  49.1714516  24.1138191  34.5503197  49.6760292  23.4767094  34.0446320
  48.2578011  23.8798771  34.3867798  53.1778336  66.0619659  17.2727470
  53.4084091  66.8484726  16.7783031  52.2424049  66.1573563  17.4519386
  53.5474243   5.7577295  69.5749741  52.8995247   6.4505334  69.7033463
  54.3725777   6.2235770  69.4395370  39.2847824  66.1974487  65.5345688
  38.8832703  67.0469437  65.3518677  38.6388588  65.7376022  66.0708084
  46.3935852  64.9800644  47.4773293  45.4393845  65.0540466  47.4612083
  46.6251793  64.6769485  46.5994225  42.5856552  37.1595650  66.9282990
  41.8974838  37.5393333  66.3820114  42.1173515  36.7673149  67.6652222
  26.9951057  31.8078041   2.5796590  27.7066002  32.0014114   1.9693128
  27.0283871  30.8578930   2.6927598  76.6615829   2.3583415  16.5149708
  76.8978577   1.9413359  15.6864109  77.1158371   3.2006989  16.4972572
  77.5038071  51.1708679   7.1782246  78.0887375  51.7635384   6.7061787
  76.8868256  50.8638573   6.5139093  35.3027802  64.7540894  80.3088379
  34.5985222  64.3818130  79.7781219  36.0872917  64.2807846  80.0317841
  57.7817650  11.7018900  41.0423279  58.1848335  12.1079912  40.2749596
  56.9223061  11.4121847  40.7363319  54.2176399  21.6178455  79.9687881
  53.8066826  20.8343678  79.6033936  54.0688057  22.2958889  79.3097382
  26.4500866  49.2402878  69.9950485  27.1488991  49.8845596  70.1082153
  26.8167400  48.5924492  69.3932953  47.3942986  19.2828312  56.9802780
  47.7534981  19.9918880  56.4469414  46.6446152  18.9621601  56.4789047
  72.4483490  49.2846947  81.2272415  72.1497040  49.6269379  82.0698013
  73.3499908  49.5961876  81.1482010  67.4910278  63.7805061  42.0120735
  68.2024002  64.4077377  42.1415138  67.9330521  62.9467850  41.8515968
  48.0559044  66.9085541  24.6049652  48.1937294  65.9731827  24.7543583
  47.1788101  66.9638367  24.2256546  14.4250603  57.1499977  22.0255089
  15.2636194  57.3510666  21.6100311  14.4170799  57.6842079  22.8197308
  35.4596367  53.5523300  11.5871210  34.5185699  53.7145119  11.5213776
  35.7497482  53.4544830  10.6802073  17.7866230   6.5937662  81.7026978
  18.0214157   7.3181763  81.1227570  18.6066360   6.1183839  81.8361969
  75.1627655  59.0968437  47.0457993  74.8602371  59.9224434  46.6675224
  75.6367950  58.6667519  46.3340721  23.1338787  45.8521347   5.4748039
  23.4983368  45.0782928   5.9044194  23.1922112  46.5425301   6.1352468
  35.6817131  41.1161156  78.5016479  36.2765427  40.9112053  79.2230530
  36.2526817  41.4403381  77.8051529  63.3619194   6.1195326  17.6684132
  64.1662292   5.7323461  17.3228683  63.6628952   6.8152757  18.2528687
  81.0377884  16.8833542  14.9187765  80.9974136  17.2433777  15.8047705
  80.7853241  15.9657660  15.0213737   4.6168628  11.0201416  74.4147797
   3.8764079  10.4431696  74.6020279   4.5851879  11.1505699  73.4670410
  34.4807663  63.6066551  31.7483959  35.3434219  63.9293861  31.4878254
  33.9131470  64.3759918  31.7019234  69.8816910  58.3762741  88.3603821
  69.1395721  58.9704094  88.2485657  69.7892609  57.7412796  87.6501236
  48.1519585  17.4867363  24.9387131  48.9179916  18.0345573  24.7674942
  47.4351654  18.1090488  25.0618763  52.7321053  17.2864666  46.1485443
  51.8489990  16.9181099  46.1227493  53.1742821  16.8000488  46.8443260
  40.4362488  55.0037727  86.2906418  40.9615250  55.5737877  85.7290344
  39.5303955  55.2420998  86.0934982  42.0166016  44.2409058  81.2732925
  41.8380165  43.3947792  81.6836777  42.4951324  44.7340546  81.9396591
  80.2373428  40.4098129  64.4291763  79.7766876  41.0867462  63.9334030
  79.5455780  39.8202782  64.7294159  31.2813702  45.3612976  87.7720490
  30.8287582  46.0721321  87.3180771  30.6537628  45.0581703  88.4281464
  55.7277145  41.2498169  47.3117142  56.2788353  40.6071472  47.7583389
  55.0801773  40.7245445  46.8415947   1.3528451  23.0128117  12.6718483
   0.5229048  22.5702686  12.8495741   1.5573491  23.4740200  13.4852953
  24.2843475  51.6732750  13.2595024  24.8049316  51.5490952  12.4659014
  23.5366478  52.1991920  12.9756212  62.0911751  55.3126984  39.6469803
  61.9000664  56.1784897  39.2862625  61.3230057  54.7861824  39.4257851
  28.2299805  17.9249039  71.8657761  28.6609917  17.1833363  72.2906723
  27.4025841  18.0231323  72.3369446  49.3477097  64.4925461   7.1084170
  49.4023476  64.4952469   6.1527815  49.4694710  65.4086151   7.3578677
  67.5672607  35.5184784  39.9100151  66.6756897  35.8560562  39.9958534
  68.1074753  36.1430054  40.3941307  64.2976456  59.2285614  88.3450012
  64.0282974  59.8666344  89.0057220  64.0548325  59.6304703  87.5108948
  16.4287338  46.9768410  59.3830147  16.0552750  46.1211052  59.1721191
  16.8852634  46.8408966  60.2132759  61.5999260  47.2473412  14.3649035
  61.8533897  46.4279175  14.7897949  61.8733940  47.1393738  13.4539757
  18.8417759  28.1689053  34.0543518  18.8402328  27.6602097  33.2435112
  19.7675171  28.3384171  34.2289886  26.2497120  26.3536530  20.1010208
  26.9715900  26.2148762  19.4879417  25.5046597  25.9072113  19.6987534
  13.6008501  58.6116066  44.1587639  13.7309523  58.7685127  45.0940094
  12.7785597  58.1240883  44.1098099  50.9325943  20.1604137  60.0541306
  51.4827194  19.6993542  59.4208717  51.4717979  20.8935394  60.3508110
  45.4394226  55.1329842  20.9780674  45.0939941  55.3802032  20.1202850
  44.8865891  54.4033051  21.2576656  80.9578094  18.3493977  17.1086559
  80.1070404  18.2633781  17.5387993  81.5943451  18.2737446  17.8195229
  74.7158432  53.7524529  38.9457016  73.7741013  53.8861732  38.8385429
  74.7872238  53.0961304  39.6387939   1.2194049  12.8155785  57.5321198
   0.6620670  12.9449711  58.2994957   0.8013749  12.1020660  57.0500565
  10.4769917  34.1422615  15.4305487  11.3940163  33.8985291  15.3044844
   9.9920921  33.5620537  14.8436356  22.8335953  54.2143440  42.7274284
  21.9231377  53.9202232  42.7555275  22.8037968  55.0398598  42.2438278
  31.3461685  67.6313782  58.1709099  31.8951778  68.3561325  58.4701614
  31.3657722  67.0023880  58.8921738  62.1400414   6.2809858  60.6483536
  61.6627388   6.0907474  61.4559555  62.5353813   7.1393814  60.8003273
  56.6992035  53.4079933  75.2895432  56.9226036  52.5159874  75.0237350
  57.4950256  53.7406502  75.7045593  19.6262321  42.0509949  71.5349350
  20.5049191  41.8869820  71.1925278  19.4267731  41.2779121  72.0629425
  48.9229240  20.9277554  10.2293167  48.4683228  20.5067520   9.4997120
  48.7410889  21.8609524  10.1183586  44.4773903   7.1752152  55.2770805
  43.9623184   6.5565257  54.7592430  44.0047226   7.2450581  56.1065025
   7.2482533  64.6394272  12.9644308   7.2006660  65.2164764  13.7266502
   6.5139899  64.9098282  12.4130955  45.5894241  35.8422852  25.3224087
  46.1949692  35.6817055  26.0461235  45.9625664  35.3579216  24.5859394
  73.2979355  44.7391891  64.7424774  73.9958496  44.6476135  64.0938110
  73.2834625  43.8980370  65.1990814  67.6057816  42.3346367  28.4171581
  67.1745758  41.8522034  27.7117882  67.4706802  41.7933617  29.1949749
   0.2881317  30.2184715  45.5309448   1.2092801  29.9774208  45.6289864
   0.0284577  29.8362961  44.6926498   0.5490421   2.2101622  28.5996666
   1.3981034   2.3712835  28.1881256   0.6049442   1.3097285  28.9195518
  56.8545609  48.8975906   7.1831732  56.3771400  49.3379288   6.4800372
  56.1776581  48.6467667   7.8117609  66.4983063  66.9406204  25.9235878
  66.7882156  67.4856949  25.1920929  65.6103745  66.6734695  25.6860199
   1.9354174  43.8473930  21.9572392   1.3511677  44.0636978  21.2305374
   1.5204782  44.2426109  22.7239590  57.1646385  56.9159889  17.3941059
  57.1062813  57.7842445  17.7927971  57.1413193  56.3102226  18.1348743
  13.3602505  71.1781006  61.9650803  13.8188305  71.2610550  62.8011742
  12.5006132  70.8268661  62.1972160  44.7260742  66.1828308  80.5597382
  44.0963020  65.5574570  80.2012329  45.0955887  65.7395325  81.3233948
  21.9496403  51.6488228  39.0566635  21.4021969  50.9785156  38.6477318
  22.7554913  51.1890526  39.2921371   5.6818519   5.8275065  79.2164917
   5.7440057   5.7649117  80.1696243   5.7113285   4.9196997  78.9144211
  30.8541317  29.3478832  15.2065783  29.9105034  29.3591080  15.3668070
  31.1415329  28.4933662  15.5281878  74.6767883   7.3768339  67.1586609
  75.4498901   7.9128346  67.3354111  74.0436859   7.9870124  66.7803802
  45.7228622  59.5469208  52.8584671  45.4456291  59.0118561  52.1147728
  45.6076546  60.4492378  52.5605011   8.0152016  67.2153778  20.8753719
   8.7103596  66.5826797  21.0561409   8.1341820  67.4451523  19.9538097
  10.5866737  65.8379135  89.0047226  11.3210354  65.5276794  88.4749146
  10.4549541  65.1503296  89.6574936  79.0186768  16.8909111  29.1917057
  79.2377319  17.3427944  28.3768139  79.1162567  15.9616356  28.9839611
  21.5033913   9.2400150  79.8411484  22.1585789   9.9153929  80.0167236
  21.2767467   9.3601618  78.9189682  48.6612167  43.2594032  59.0693626
  48.6369171  43.4667435  58.1352043  49.5550804  43.4710655  59.3385086
  38.0428200  53.6424751  48.3359985  37.8013687  54.5647964  48.2508125
  38.2176743  53.5259323  49.2698479  73.9105453  12.9895487  43.8700752
  73.8662415  12.2421951  43.2736397  73.0800858  13.4479313  43.7417755
  28.7780266  14.2739706  70.4578629  28.0668011  14.5791378  71.0211258
  28.4447536  14.3886023  69.5679092  80.5962067  11.8722181  29.8963509
  81.5016632  12.0562744  29.6463242  80.5653305  10.9213085  30.0014725
  77.6450806  48.8115921  27.0827751  76.7917480  48.8600655  26.6518250
  77.4390717  48.7444687  28.0151310  85.2487335  63.8881836  20.6147232
  84.8221893  63.0317039  20.6418781  86.1371841  63.7234116  20.9305420
  31.6562881  66.7177658  50.7565765  31.5622787  66.7141342  49.8040123
  32.5176544  67.1057129  50.9107666  25.4245720  54.3476791  79.8320160
  25.8246994  53.5164146  80.0872116  24.7085953  54.0993309  79.2472687
  57.1030388  19.6531391  24.7848415  56.8023987  20.3718452  24.2286835
  56.2996864  19.2739754  25.1413441  66.6706009  15.1380415  35.2769737
  65.7381058  15.1692019  35.0631676  66.6958771  14.9054823  36.2051468
  17.9497223  47.8500557  39.6518059  17.7865047  48.4701157  38.9410896
  18.1817055  47.0337830  39.2089539  15.4112358  31.6700306  73.6585464
  14.5231981  31.8084641  73.3292160  15.3620787  31.9037228  74.5854797
  26.7571125  51.1874962  29.0094948  27.3842182  51.9103050  29.0323372
  26.9474392  50.7310905  28.1899204  72.6700211  63.1032791  72.1428757
  73.0037918  63.9909363  72.0128937  72.9490128  62.8697472  73.0282364
  71.4071045   2.3164752  56.8758659  71.2850113   2.5910170  57.7846870
  71.4217911   1.3601665  56.9144669   4.3530574   3.7646160  42.0628395
   4.9267859   3.7780130  42.8289261   4.7944193   4.3235211  41.4232635
  56.0497437  27.7262516  57.5798531  55.7931976  27.7461109  56.6578865
  56.8604469  27.2174854  57.5919724  41.5794640  43.5628357  20.0656948
  41.1620674  42.7751465  19.7170429  41.1420517  44.2851677  19.6149883
  54.8896561  34.2798271  38.4768600  54.8558540  33.4562225  37.9902802
  55.7527351  34.2782326  38.8907738  81.9854507  18.3701515  83.0770645
  82.2690430  18.0087738  83.9168320  82.7234650  18.2142811  82.4877625
  67.8001938  23.1057110  50.5282364  68.3096008  23.5914593  49.8795547
  66.9726562  23.5829067  50.5891380  63.4071579   5.8837276  37.8203468
  63.6750412   6.8022189  37.7912865  62.7180862   5.8560967  38.4841576
  49.2378654  32.9191246  24.2206402  49.5444527  33.7163086  23.7885094
  48.3218346  33.0986710  24.4324894  17.2623043  19.9066048  89.2760010
  17.1886024  20.6975498  88.7419586  17.9712048  19.4082546  88.8693848
  78.5796204  50.9054871  14.1079187  78.6537552  50.7951889  13.1599894
  78.7995377  51.8245811  14.2600288  29.2222633  67.3388443  87.9018021
  29.5512486  67.2541885  88.7966995  28.4681416  66.7503433  87.8671875
  23.0230808  42.1327438  43.4068604  22.8982830  41.1926231  43.2771072
  23.1279564  42.4846840  42.5229073  50.4566460  34.8596191  48.4595795
  50.7624207  35.3196373  47.6778374  51.2557755  34.5339584  48.8737869
  31.4032974  68.2197571  70.8310928  32.0286407  68.1647797  71.5536957
  30.5456123  68.2197952  71.2560730   2.0003240  45.8294945  32.1842155
   1.5505825  44.9953804  32.3192024   2.4512584  45.9951897  33.0121269
  17.8435879  48.0937767  64.7254028  17.2842731  47.6511192  65.3637238
  18.7352715  47.8730049  64.9944534   5.4127326  40.2358551  54.5759087
   6.1179218  40.7632751  54.2007141   5.6481810  39.3333435  54.3608093
  65.8263702  69.2879944  79.4006271  66.0519867  69.9008408  80.1004486
  65.5806961  68.4832382  79.8569641  48.0985260  18.8691292  78.0118942
  48.1042366  19.7597923  78.3624954  48.3645515  18.9697933  77.0979309
  83.9703522  19.2308655  67.9851685  84.6288376  19.0929947  67.3042679
  83.8928757  18.3811493  68.4189987  41.2774963  50.0124207  50.0176620
  40.7073708  50.0557976  50.7853241  41.3730049  49.0761795  49.8428459
  76.1879120  59.7785988  27.6578941  75.7721176  59.6203766  26.8103600
  75.5661774  60.3324814  28.1300106  44.0969429  51.1413918  70.8726425
  43.9301109  50.2791557  71.2533646  45.0335655  51.1388931  70.6752396
  46.5301971  67.4515152  69.6505280  47.0761223  66.7195206  69.3635025
  47.1490898  68.1645508  69.8079605  27.7983456  63.7130623  33.6999550
  27.5916195  64.3042221  34.4238548  27.0074596  63.1855888  33.5881462
  48.1672325  44.9218292  15.1252823  48.0529900  43.9724731  15.0816364
  47.3786774  45.2770691  14.7151451  72.9340286  69.0045853  81.2355423
  72.9855881  68.0568237  81.1117554  73.1478653  69.3702316  80.3771667
  69.1907730  63.9094925  33.9696808  68.7589722  64.7569199  34.0775604
  69.0878525  63.4784966  34.8181381  68.9426041  49.3969078   6.4036961
  68.2091751  50.0119820   6.4041781  69.5011978  49.6896858   7.1237583
  75.7954559   6.5459399  12.9064846  75.4312744   6.3438311  13.7683163
  75.2203751   7.2267103  12.5571060  46.6046906   0.0654634  32.8166389
  46.0624962   0.7225960  33.2530251  46.0046196  -0.3826804  32.2205544
  50.3503876  26.3731022  63.7609329  49.5591698  26.4185181  63.2241478
  50.1612053  25.6950321  64.4095154  29.2896938  64.1579437  55.4304314
  30.1287842  63.7327309  55.6075020  29.2132397  64.8287888  56.1089211
  64.7932892  36.3118668   4.1354971  64.5826569  35.4834747   3.7046440
  64.3591080  36.9768982   3.6012175  61.4971771  44.7187195  20.2462788
  61.3154373  45.4717064  19.6839523  62.2415962  44.9936371  20.7815266
   9.8736467  16.1358662  76.3218384   9.2893333  15.6180429  76.8756180
   9.9404736  16.9801693  76.7678452  70.3496170  20.5836868  58.6154060
  70.4349213  21.4291306  58.1747475  71.2468643  20.2571354  58.6828461
   5.7254248   3.1554146  78.2253952   5.1791487   2.4039137  78.4557495
   5.7991090   3.1146603  77.2719116  65.7428741  52.7038574  68.4339447
  66.3592606  52.6111641  69.1603775  66.2244644  52.3879852  67.6694031
  71.5390549  31.8026085  63.6432381  71.0439606  31.2337360  63.0537453
  71.9405594  31.2037601  64.2728424  12.3107052  33.7618484  37.7307167
  11.9530544  32.9138947  37.4674797  11.8175373  33.9961624  38.5169182
  69.7758789  59.8292389   5.0451865  69.7075653  60.7646599   4.8539953
  68.8968887  59.5779343   5.3288436  65.1606445  36.9521637  40.2611771
  64.9290161  36.6687622  41.1456337  64.5061646  36.5388260  39.6981201
  47.9974442  59.5209846  24.9681568  48.5862465  60.2273178  25.2339306
  47.3907127  59.9334984  24.3533878  27.1052704  15.9602633  12.1824026
  26.6930771  16.6082649  12.7537365  26.3925552  15.6412125  11.6287994
  36.4203300  62.1664963   0.8326975  37.3187447  62.4948273   0.8684294
  35.9245605  62.7638702   1.3926829  73.3202744  70.7293472  68.1526642
  74.0328064  70.1377182  67.9107819  72.8039398  70.2347946  68.7891083
  35.3340073  30.2153301   0.6967568  34.8924103  29.4935398   0.2492710
  35.9937134  29.7898045   1.2444299  80.2571030   8.6760807  43.8801346
  80.1946335   9.1440287  43.0474548  80.1830597   7.7520118  43.6417084
  82.5540466  52.3459167  65.1252441  81.6054001  52.2686424  65.0236435
  82.9038696  51.5533257  64.7182312  35.8771057   4.1396976  83.6362610
  35.4163055   3.3682954  83.3063583  36.8011856   3.8904088  83.6233749
  42.2025986  26.4146328  66.6462631  43.0945206  26.7578392  66.5922394
  42.0284271  26.0619240  65.7736206  38.4454536   1.3676498  16.1769905
  38.5318413   1.8609341  16.9927349  39.3202438   1.0133017  16.0175800
  28.3063164  63.1147995   6.9932232  27.8111973  63.6427689   6.3668547
  29.1282101  63.5910835   7.1110268  52.8582039   7.3226099  53.7678871
  53.7203941   7.0823469  53.4285698  53.0421219   7.7713194  54.5931511
  11.0545530  57.7181892  12.5105228  10.9082680  57.3050652  11.6595459
  11.2826729  56.9933586  13.0925999  43.6792068  39.8266144  14.1526585
  44.2300148  39.6929359  14.9240036  43.7610474  39.0125046  13.6559076
  32.1925316  35.6782265  18.1797581  31.8277283  35.3119545  18.9853592
  31.7546406  36.5236778  18.0812721  38.9137077  44.8982201  45.3331337
  38.3912086  45.1059341  46.1077843  38.5002518  44.1159019  44.9680748
  54.5242729  53.2273445  47.1981583  55.4253349  53.5474854  47.1554756
  54.4970703  52.5042343  46.5715752  41.7905655  25.3473167  70.8421249
  42.0033798  24.8780270  71.6487885  42.4933319  25.1127453  70.2360458
   1.0835063   4.2526016  83.7096100   1.2957214   5.1858697  83.7240067
   0.5087264   4.1493483  82.9511871  35.9107323  51.0803413  15.8278961
  35.4401436  50.2835617  16.0726814  35.4002037  51.7895927  16.2184792
  78.4973221  65.8041534  82.9478455  77.5865021  66.0116959  83.1565552
  78.8063736  66.5592270  82.4472656  67.8455887  34.1535568  13.0857182
  67.2482529  33.6000366  12.5826912  68.5781250  33.5778198  13.3051367
  68.5338745   6.1152296  72.6451416  68.7636337   7.0373325  72.5303802
  68.3223877   6.0350528  73.5752335  68.8109894   7.6019034  42.4668312
  68.4766464   6.7151003  42.6010933  69.7630234   7.5043130  42.4854736
  82.7388535   2.2909093  20.5791397  82.7435150   3.0706785  20.0240097
  83.5145187   1.7996254  20.3085556  18.6048603  20.5405979  82.2373276
  17.9209957  20.9117241  81.6798096  18.2103195  20.5048466  83.1087036
  49.6059456  36.6355171  31.3146534  50.0659065  36.2361412  30.5762997
  50.3012619  37.0084724  31.8565731  40.5631523  53.1752663  40.8807144
  40.5526237  52.2419090  40.6686554  40.7985764  53.2075768  41.8079453
  75.8355865  53.7721786  52.4510765  76.4780045  54.4466972  52.6714325
  76.2999115  52.9460526  52.5858192  61.2542114  60.0008163   1.0201528
  61.2462196  59.2163582   1.5686001  62.1577835  60.3137970   1.0629680
  84.8147125  58.4888115  76.3728867  85.1359482  59.3192635  76.0216141
  83.9574051  58.3712807  75.9636841  52.1742973  61.3877563  21.7422848
  53.0847282  61.1116142  21.6369801  51.7419510  61.0990372  20.9385757
  72.4851379  71.6165466  63.8171959  72.1165771  71.5231323  64.6956406
  71.7663651  71.3829803  63.2298012  59.8451767   5.2493258  28.4501152
  60.1662827   6.0629630  28.8388538  59.6226387   5.4856119  27.5496292
  77.7254105  62.1845055  28.4781799  77.2658615  61.8701324  27.6995773
  77.6176453  61.4823570  29.1197414  78.6719437   4.2934389  73.4730453
  78.2821198   4.1875100  72.6052628  78.0684204   4.8732624  73.9375839
  17.9543419  53.6978836  52.4342003  17.5755806  52.8367462  52.6108894
  18.8120098  53.6739464  52.8585396  71.9487305  60.0411186  17.8441753
  71.5368042  60.7796173  17.3956566  71.3150635  59.7840118  18.5139503
  15.5877628  68.7002563  32.1840439  16.1938610  69.3710098  31.8694572
  16.1423683  67.9405518  32.3615189   6.7193952  22.9581890  63.5561905
   6.6726756  23.9091568  63.4576492   6.5935211  22.6190910  62.6699638
   2.3715866  27.5485096  76.1122742   1.5035145  27.4747429  76.5088120
   2.2009909  27.6125946  75.1725769  62.0511513  39.1473389  33.1202354
  61.9428368  39.7841835  32.4138870  62.8612747  39.4098740  33.5572777
   1.7629337   2.8798079  81.0181732   1.6274337   3.6668930  80.4905701
   2.4156156   3.1373365  81.6692657  48.0728951  36.3819962  68.5646362
  47.4131584  36.9204559  69.0017090  48.6784134  37.0134201  68.1762009
  70.5435104  35.4422112  65.0613708  70.0910721  35.0376549  64.3211975
  70.5472183  34.7657394  65.7385788  81.6754837  19.5374012  24.2994499
  82.2636719  20.1810932  23.9045677  81.4408264  19.9155426  25.1469021
  27.2140827  67.4206696   4.3918581  26.9219322  67.2728500   3.4923978
  27.6848545  68.2533722   4.3569860  10.7863197   3.7438011  84.7412109
  11.0678406   3.1758273  84.0240021  10.1881409   4.3685956  84.3312759
  16.6681881  53.6278191  75.9267273  16.2579651  53.2884827  76.7222137
  17.5174904  53.9595757  76.2180252  85.8231659  30.1856766  62.0078697
  85.8961258  30.2002239  62.9621735  86.7259903  30.2552433  61.6975479
  38.1477852  18.7330952  14.9936962  38.9388657  18.3394070  15.3617039
  37.4731369  18.0631237  15.1042433  31.2073593  34.4870720   9.7331791
  30.8289547  33.6095619   9.6782360  31.0621071  34.7541428  10.6408167
  69.5304718  45.0488358  88.9681320  68.7423477  44.6550026  89.3422928
  69.7030182  44.5356979  88.1787338  70.6683350  24.3246918  61.4062080
  71.3013611  23.6689548  61.1137695  69.9208450  24.2148247  60.8184853
  35.1730385  68.6069870  16.7605133  35.9937477  68.4234772  16.3033619
  34.7840614  69.3326950  16.2723789  67.2566147  49.7054672  13.0163784
  67.5504150  48.9425163  13.5141907  67.4043274  50.4463615  13.6041613
  47.5458336  41.8568535  44.2153511  47.1407967  41.3851280  44.9431229
  48.0537491  41.1911774  43.7515335  43.5418205  24.9733887  68.9261932
  42.8226128  25.4605865  68.5241776  43.4091415  24.0699806  68.6389923
  39.1021881  28.0226727   7.4362035  38.2406731  28.0610523   7.8515954
  39.6501770  28.6003704   7.9674335  52.8281250  57.7069435  63.4651489
  53.5723190  57.6842232  62.8635750  52.2838554  56.9651833  63.2009621
  46.0384750  59.8851089  14.9839344  45.8767166  59.5965691  15.8821621
  46.0505142  59.0768814  14.4712400  48.0403976  10.5069990   7.0840158
  48.2791595  11.1201849   7.7791624  48.4780121   9.6903076   7.3243051
   6.5237231  38.0852585  59.9344902   6.1662240  38.3530579  60.7810783
   7.0636168  37.3203506  60.1336327  86.7959442  42.3866234  84.3996887
  86.3556290  42.7777367  85.1542664  86.6648178  41.4446106  84.5076141
  11.5745926  50.9444122  34.7397728  11.4562540  50.4306755  35.5387115
  10.7179680  51.3408585  34.5808563  52.9243317  59.0714493  72.6001205
  53.0040054  60.0131874  72.4484177  51.9873009  58.9288063  72.7337646
   8.2203751  31.7109699  73.3347321   7.4990883  31.4846649  73.9218979
   7.8245692  32.2857361  72.6795883  20.9042912  53.5048447  77.8971939
  20.3209515  54.1547928  77.5053940  20.7710876  52.7158585  77.3718414
  36.8881493   0.7423174  50.6177483  36.9652481   0.8477980  49.6695061
  37.7079544   0.3232633  50.8795624  46.9914360  16.7928886  71.4726410
  46.4942131  17.1740036  72.1963501  46.8696480  17.4071465  70.7487030
  47.9545975  58.2999191  61.4460526  48.5176735  57.6578140  61.0137520
  47.3274345  58.5609894  60.7717094  85.3341751  28.7452164  89.1746216
  85.0927277  28.4519806  88.2960205  86.2754440  28.5809345  89.2317200
  79.8115616  60.0272331  26.9480438  80.1228867  60.0571785  27.8527050
  79.0267410  59.4803505  26.9828072  64.2962799  41.2075195  67.9262238
  64.3047943  41.2940636  66.9729767  64.4991302  42.0857925  68.2482758
  21.4076252  41.4619675  16.5095329  20.8288460  41.5592461  15.7533693
  21.7990074  40.5951271  16.4016399  37.5853691  58.5129280  77.0356140
  37.3685951  59.3206902  77.5011826  36.7690010  58.2576714  76.6059418
   0.2582484  52.2013779  22.5078373  -0.0985095  51.4577065  22.9935398
   0.5299646  52.8213387  23.1846352  18.5870667  57.7488670  83.0802994
  19.2011738  57.4688339  82.4015579  18.6654034  57.0831490  83.7636108
   3.0495775  58.6920967  79.7898178   3.0688508  58.1491547  79.0017395
   2.4735198  58.2205467  80.3915100  56.4032936  22.7496681  77.1144333
  56.5804138  23.6843414  77.2204742  55.4697876  22.6595535  77.3059311
  47.0339241  51.3932076  31.1618557  47.1310654  52.0253944  31.8739891
  46.1691895  51.5769005  30.7948074  71.2987595   3.6240971  64.7788315
  71.3778839   3.2782357  63.8898125  71.1413345   4.5605483  64.6583862
  63.6950493  31.8150501  52.1177788  63.5194130  31.2378769  51.3746414
  63.5913277  32.6986237  51.7645531  71.2634125  64.1857376  66.3363419
  71.8292236  64.3405304  67.0927353  71.8103027  64.3995514  65.5804062
   7.0245733  57.3492126  42.3273468   6.9122062  57.7918854  43.1685638
   7.8907256  56.9455719  42.3829193   0.1428149  48.3147812   4.6059027
   0.9416136  48.7842178   4.8462768  -0.2176965  48.0129318   5.4396605
  78.2201157  66.7272110   8.8693600  77.7665405  66.1256332   9.4597874
  79.1033325  66.7978439   9.2315359  59.7054596  44.5259819  57.7287598
  59.4356766  43.6218338  57.5676079  59.1724854  44.8059387  58.4729309
  67.7042389  70.3213959  25.2293987  68.0863495  70.4896317  26.0907516
  67.6336060  71.1863861  24.8256283  67.6320648  19.1545105  59.5895004
  68.4760208  18.8525143  59.2536888  67.8284531  19.9889641  60.0153503
  43.1551857  65.9705276  44.6765556  43.1718102  66.6016464  43.9570808
  42.9338226  65.1378174  44.2596359  83.7302094  20.4140091  46.6788979
  83.9061356  20.3742657  45.7388420  84.5804214  20.6076679  47.0737000
  51.3970566  32.3658562  32.6443176  51.2920074  32.4379501  31.6956348
  51.2837715  31.4332294  32.8276482   5.2536855  70.7619858  69.8742218
   4.3801007  71.1393433  69.7708511   5.0935011  69.8552933  70.1359024
  35.4381065  48.5415154   3.1461205  35.2215805  49.2297516   2.5170920
  36.1906624  48.8851852   3.6275601  66.5452576   4.2091222  14.7033091
  65.8555984   3.5519559  14.6098709  67.0033493   3.9629836  15.5069265
  15.6604118  64.4465790  43.1214142  15.9306040  63.5333595  43.2176132
  15.4607420  64.5404358  42.1899872  30.5456715  54.3964806  66.2750168
  31.0680676  53.7525864  66.7532806  31.0515671  55.2069130  66.3341751
  16.7887745  71.4682465  15.6423426  17.2725048  72.2694016  15.4413500
  17.1404819  71.1811371  16.4850159  49.2956047  50.6048470  62.9851341
  49.5637741  50.7496567  63.8925171  48.6471138  51.2880592  62.8150940
  79.4835587  17.4681740  75.5062943  79.2643127  16.5959358  75.1786346
  79.8670349  17.9175568  74.7531509   3.1614423  24.6909103  26.0962963
   2.6630127  24.4598427  25.3124542   2.9007318  24.0388794  26.7467709
  43.2320938  34.8667603  11.9143763  43.2527084  34.0605316  11.3988180
  42.3058624  34.9976616  12.1173239  49.2328377  45.4130478  83.7453995
  48.2976570  45.4243431  83.9492188  49.2776909  45.0939713  82.8440552
  27.3306389  21.8509121  83.4833221  27.0689049  20.9397297  83.6155167
  28.2803211  21.8470879  83.6029816  82.3502960   0.2103389  10.5189991
  82.4841614   0.3552496  11.4556494  81.4056854   0.0847175  10.4286690
  61.6956062  25.7837620  81.3009338  61.0179596  25.7050686  81.9723740
  61.9350281  24.8801098  81.0952072  32.8329620  69.8063660  38.6097450
  33.1048012  69.8357468  37.6924248  33.2433624  70.5750351  39.0059128
  60.0401192  26.3117390  57.7101135  60.6225739  26.0510235  58.4235611
  60.0381165  27.2684689  57.7400246   6.0822344  33.7067528  55.1962662
   6.6052527  33.2514000  54.5364647   6.2444887  34.6355705  55.0313454
  75.5834427  63.7191925  85.6512527  76.1321716  63.1507530  86.1916275
  74.7465668  63.2583694  85.5920410  59.1537666   3.9306138   9.5083323
  59.8527794   3.4004886   9.8911877  59.3456879   4.8233905   9.7952929
   0.4068835  35.5039749  53.0560913  -0.2264410  35.4147491  52.3439293
  -0.1002178  35.3350143  53.8501511  40.9631233  20.3414249  18.0344067
  41.9077148  20.2918701  18.1811218  40.8766785  20.6602306  17.1360073
  61.9580498  63.1585884   8.7091494  61.7222977  62.2750053   8.9918728
  61.1317787  63.6417122   8.7191505  19.5588455  60.4095001   5.9382510
  19.5587387  60.8189583   5.0730500  19.3788300  59.4853172   5.7658787
  65.5632935  44.1015549  28.3011341  66.1012650  43.3135681  28.2243156
  65.8520279  44.6599884  27.5793209   5.4740682  47.6272011  74.9455872
   5.7736101  46.7248497  74.8348465   4.5685410  47.5439987  75.2444687
  84.9358063  30.7713184  10.1149693  84.8538437  31.7130680   9.9645586
  85.8186951  30.6610947  10.4679527   7.5712872  63.6756210  75.8683548
   8.3424864  64.2414703  75.8323059   7.7400103  63.0873947  76.6043930
  73.4135284  57.6392937  81.0063705  73.9367371  58.2968445  80.5479889
  73.9875793  57.3188438  81.7020721   4.6287427   3.0228601  19.5542526
   4.3702235   3.8213944  19.0940971   4.2856278   3.1355007  20.4407158
  51.2238503  38.1950951  33.5338554  52.0694466  37.7581596  33.4323959
  50.9900284  38.0542412  34.4513092  69.4227524  61.4387779  42.1982613
  70.0109100  60.7769279  42.5619392  68.5565491  61.0326538  42.2296333
  43.2121658  28.2391644  70.4459763  42.2811852  28.0221500  70.4950714
  43.2819061  28.8260822  69.6930542  10.8338757  31.8162994  73.5839767
   9.9693193  31.9936581  73.2134171  10.8054657  30.8906097  73.8258896
  63.9640465  47.9734497  74.1279373  64.5652313  47.7994270  73.4036942
  64.1511765  48.8769417  74.3827286  41.6337547  41.7912216  11.6704063
  41.2216263  41.5010872  10.8566456  42.5432091  41.9667816  11.4289513
  43.1970139  40.0182953  29.1991825  42.5176392  40.6870079  29.2858181
  43.3520088  39.9550247  28.2567368   9.9274187  65.1001511  74.4965897
  10.1217098  65.8397293  73.9208221   9.6587954  64.3987656  73.9031906
  34.3685303  50.0754852  38.7769775  34.7137489  50.9682617  38.7787895
  35.1246071  49.5267525  38.5684814  27.2079544  11.3137589   2.6326017
  27.6799965  11.7112017   1.9008589  26.3600903  11.0655622   2.2641513
  14.1211119  53.6923218  60.1669273  14.5471725  53.0490723  59.6004143
  13.7451096  53.1734428  60.8779945   5.2609587  65.0539398  80.1041183
   6.0772157  64.9645767  80.5960236   5.5402021  65.1734009  79.1963806
  80.7736816  48.2383194  43.4760666  80.1201324  48.0074310  42.8159142
  80.2670135  48.6275482  44.1888199  74.8431625   6.6554408  19.9612808
  74.1877289   6.2356772  19.4041100  75.4007416   7.1394978  19.3521633
  30.2696152  30.6594963  81.7449722  29.6062012  31.3393269  81.8630600
  31.0987625  31.1367664  81.7140121  49.2356529  69.6081696  19.6541500
  48.9719048  69.0252762  18.9421768  48.4123077  69.9575424  19.9951363
  65.2055130  57.8689041   2.8213873  65.6891556  58.6934013   2.8717082
  64.4406967  58.0053482   3.3805563  60.4625130  22.1708374   3.6228433
  60.4182930  22.6898174   2.8197639  60.6873665  21.2890205   3.3260765
  63.3238869  56.1142044  74.7542496  62.5581703  55.5564804  74.8915710
  62.9696503  56.9179306  74.3737564  65.1707306  65.2230606   8.1344366
  65.2736588  64.6518402   7.3732924  66.0398254  65.2475052   8.5348186
   3.7989187  47.0967522  20.2341671   3.0372183  47.6403542  20.4355183
   4.5507360  47.6489754  20.4487724  44.1754265  17.9273624  75.0163345
  43.5985565  17.4225082  75.5895538  44.0106926  18.8397846  75.2542038
   6.7569504  32.9549217  87.6277008   7.0140576  33.8718987  87.7240677
   6.7089624  32.6240959  88.5246277  24.2898426  20.2564468  70.2416611
  24.3513794  20.6543636  69.3732681  23.4895535  20.6235466  70.6171722
  58.3546791  66.3924789  82.2220840  57.4192696  66.5931473  82.1908951
  58.4245911  65.6735229  82.8501358  84.9303131  37.1762390  80.3387451
  85.0784378  37.5629044  79.4757385  85.3709335  37.7704124  80.9462433
  11.0213251  15.3891640  13.7846441  10.5362129  14.8210230  13.1862183
  10.6314697  15.2217960  14.6426840   7.2202311  23.3569469  12.0358696
   7.3704629  23.0039997  11.1588917   6.4197798  22.9249611  12.3340254
  74.2347565   9.5218506  30.1511822  75.1078186   9.8723660  29.9747505
  73.6388779  10.2320547  29.9129047   2.7537699  31.5875568  77.5153198
   2.0956218  31.5548992  76.8210526   2.7702634  32.5053215  77.7867355
  23.1385860  56.9347572  66.2255630  23.5127831  56.4769478  65.4728241
  22.1950321  56.9289360  66.0646210  67.4375610  59.0018768   6.4975820
  67.8461075  58.3632050   7.0819001  67.0576630  59.6552315   7.0849752
  49.9647331  26.4108257  57.7237930  49.3451195  27.0230808  58.1206055
  50.7065392  26.3951569  58.3285332  71.8902283  24.2262897  32.0419617
  71.2990417  24.1463223  32.7905197  72.7198715  23.8633728  32.3521461
  47.6755257  59.7323036   6.9189434  48.0126305  60.6270943   6.9630203
  48.1804161  59.3204155   6.2177520  75.6649399  34.3317413  87.8734665
  76.0359802  33.5716362  87.4253540  75.4520035  34.0124550  88.7503586
  25.7746639  55.4690781  82.4845657  26.6147327  55.0329819  82.3419647
  25.2574902  55.2522011  81.7088547  61.5220261  55.9327240  89.4116287
  61.7796326  55.0181885  89.5278168  61.9020386  56.1834793  88.5696411
  42.0212097  20.4560223  63.9006081  42.8817368  20.6471195  64.2737122
  41.8953629  19.5199165  64.0558472  49.0720062  11.3525333  51.6407585
  49.8092461  11.9443245  51.7907219  48.3929901  11.6586895  52.2419586
  57.6652298  13.6207857  63.8459892  57.7406235  14.5225248  63.5338745
  58.4476051  13.4862423  64.3807983  42.4396820   1.8686090  44.3264961
  42.9536438   1.1792502  44.7470474  41.5354309   1.6802127  44.5776329
   2.5663505  22.2230568  19.8195744   1.8937736  21.5797558  20.0432606
   2.6445391  22.7695827  20.6015129  70.3034973  60.6102524  52.5228348
  70.8344269  61.1319771  51.9210434  70.7793121  60.6438408  53.3527107
  47.1993179  51.5210266  70.0735474  47.7267799  50.7391052  70.2366714
  47.2622643  51.6595345  69.1285095  82.7359238  24.4633408  57.7273521
  82.7979889  24.5153828  58.6811180  82.1761551  25.2004108  57.4831848
  41.3807335   3.4683330  48.1416092  41.4501991   3.9122438  48.9868011
  41.4221573   4.1740742  47.4962845  11.0187206  61.1538467  45.1047363
  11.1903362  60.7916756  45.9739952  10.3906183  60.5474281  44.7123375
  57.0952454  66.0461655  38.3182640  56.6238136  65.8660202  37.5049171
  57.4992447  66.9022522  38.1763649  54.8558350  33.7301483  51.9349213
  55.4975166  34.4244270  51.7850761  55.2201233  33.2192535  52.6577721
   0.7212920  53.1789589  62.8781242   1.3644527  53.8289757  62.5951843
  -0.0704058  53.3951683  62.3854790  84.5939941  70.2045822  24.3565540
  84.8078384  70.6194763  25.1922340  85.4421005  69.9578018  23.9877110
  63.6649170  15.5851297  77.2152939  63.6380157  16.2801418  77.8729095
  63.3385735  14.8100624  77.6724548   1.7972162  63.0473366  81.5973969
   1.7119691  62.5520515  82.4120483   2.1081038  63.9097290  81.8728180
  17.9946289  37.1547661  50.6992264  18.0289822  36.8713188  51.6128502
  17.0646400  37.1262665  50.4744148  64.8619995  67.1076355  85.4259949
  64.8754883  66.2036438  85.7404022  65.7689819  67.2891083  85.1796722
   9.8499041   1.8400801  26.5927582   9.6690636   2.6555266  27.0602779
   8.9853144   1.4943223  26.3710194  14.6502151  42.6869507  60.6124420
  14.0772409  42.5840721  61.3722763  14.1082506  42.4283829  59.8670273
  21.0528545  51.5366478  48.0423470  20.2623959  51.0797043  47.7549324
  20.7516251  52.1228294  48.7365265  35.7821083   4.6437860  22.9511013
  35.4186134   4.3231435  22.1256962  36.6407356   4.9945111  22.7144871
  44.4522247   2.3648069  18.5324059  44.0750046   3.2416759  18.4614391
  44.2909775   1.9648259  17.6778622  32.1356583  67.1969528   6.8371353
  31.9130116  66.4053421   7.3270450  32.3930588  67.8293457   7.5079947
  47.7379150  30.9477940  31.8202858  47.9772301  31.8734264  31.8668289
  47.7778091  30.6441975  32.7271843  47.4831314  40.9653816  24.7567673
  46.7589378  41.5437775  24.5175304  47.0718269  40.2615128  25.2583961
  78.5758820  62.2006683  42.5502357  77.7200775  62.3777962  42.1597786
  78.7008896  62.9071274  43.1838875   7.1222868  71.4889069  68.2558365
   6.2947741  71.3565521  68.7183685   7.6938519  71.9042664  68.9016037
  22.0513363  14.9312420   9.1675940  22.1402149  15.1286392   8.2351961
  22.3852215  14.0385590   9.2563143  84.3872681  48.3715172   8.7170038
  83.8373642  48.4284935   9.4984035  85.2791290  48.4939270   9.0423269
  73.6825943  49.9048309  29.8208313  73.8684082  49.4087753  29.0235634
  73.5940628  49.2385254  30.5023251  31.2987003  45.6705132  65.7963333
  31.9971333  45.1153603  66.1430740  31.6234818  46.5636177  65.9108505
  15.8299294  66.5844421   1.7236907  15.7282848  65.6335907   1.6815841
  16.5507469  66.7750854   1.1234305  80.8537521  19.1657734  64.5025406
  80.5503311  19.7259922  63.7881737  81.3642120  19.7491150  65.0641251
  64.3656845  32.6735497  64.5690994  64.9121704  32.0618095  65.0624084
  63.6430626  32.1383095  64.2411346  70.0622864  33.6828384  75.0401611
  70.4044571  32.7975121  74.9162598  70.8150864  34.2540665  74.8877640
  60.1906967   3.8201349  63.2902336  60.5378647   3.4730349  64.1119537
  59.9383049   4.7198057  63.4978943  41.0205231  46.5052490  45.8728256
  40.3154793  45.8760796  45.7201996  41.7413177  46.1948624  45.3247871
  39.2339706  44.3510056   0.3595079  38.9850082  43.4301491   0.4387250
  38.6859055  44.8033142   1.0008161  59.5540161  31.1900539  17.5545864
  59.6421928  31.5215702  16.6609688  60.4531975  31.0268307  17.8393097
  22.4341545   6.4517279  59.7186966  22.3449860   5.7043400  60.3100433
  21.5342827   6.6868072  59.4924240  35.3637733  40.7261391  16.5643578
  34.7394600  41.4487877  16.6295528  35.8763275  40.9224472  15.7801504
  45.2025375   3.0753994  59.6906052  45.9946899   2.6012266  59.9433556
  44.5514565   2.8194356  60.3439102  72.1343994  57.6798401  53.6463242
  71.3419800  57.2877197  53.2795219  72.8392029  57.3745155  53.0751266
  49.3327408  20.6432705  62.4912148  49.8982620  20.7240009  61.7231636
  49.1435318  21.5465183  62.7453346  79.0917130  20.1200848  57.6458435
  78.1709747  19.8659630  57.5835037  79.5724869  19.3616085  57.3144722
  46.7620811  47.7359390   3.9733241  47.4699745  47.5397148   4.5870161
  46.9780731  47.2312050   3.1892173  48.6300240   7.8513670   7.4478569
  48.8066101   7.0191026   7.8864737  48.7374191   7.6587329   6.5164118
  78.5251007  15.8219070  25.4414101  79.2742538  16.4066563  25.5557079
  78.8916092  14.9424000  25.5329037   9.9163532  30.8733234  15.9800558
  10.0808563  30.1774101  16.6163540   9.7465544  31.6500168  16.5131111
  16.4669304  41.7959328  73.6306458  17.3079758  41.8999977  74.0756683
  16.5089378  42.4052238  72.8936081   8.7609701  56.7281075  59.9705200
   9.3987064  57.2622032  59.4969521   8.0747070  57.3446350  60.2257996
  23.9166069  27.3898735  15.0065403  24.7565861  27.5653000  15.4306774
  23.9253998  27.9380112  14.2218761  31.6410732   4.3092933  72.7362213
  32.2520294   5.0018477  72.4845657  31.5530472   3.7702641  71.9501419
   9.2233887  69.1736832  23.4120426   9.9722509  68.6883774  23.0657463
   8.4781332  68.8628998  22.8979988  39.9225655  61.3970490  83.7403717
  38.9708405  61.4979591  83.7567444  40.1496849  61.4180336  82.8107452
  58.5758858  37.5288086  63.0422401  58.1561584  37.0349617  62.3378410
  59.5123634  37.3747597  62.9176979  84.4749603  36.9629021  71.0450439
  84.2903366  36.8330765  70.1148300  83.8337936  37.6149750  71.3277588
  78.8457336  39.8958931  24.5079536  78.4175034  40.6874428  24.1819248
  79.5669250  39.7447815  23.8969917   4.6448979  56.7034760  44.9468307
   4.0716143  57.3939438  44.6139145   4.7461348  56.1004257  44.2104111
  65.5759583  24.6737881  50.8071709  65.1146393  24.4143753  51.6047440
  64.9049301  24.6530972  50.1248741  44.6208954  36.2076263  33.7067604
  45.5582695  36.3088646  33.5415077  44.5722198  35.8204689  34.5808144
  46.9617157  28.4855804  38.9823189  47.3682671  28.3820343  38.1219559
  46.2722435  27.8219261  39.0028572  44.1453323   3.0175068  40.4303627
  44.3862801   3.3681920  39.5729294  43.7059746   2.1896751  40.2357025
  71.8829041  30.9706802  45.1872749  71.7851715  30.2650928  44.5478783
  71.1049118  30.9018955  45.7406578  34.4826241  51.6940269   7.8013206
  33.9705544  51.9108238   7.0222096  33.9697876  52.0437622   8.5299606
  79.8786316  53.5097923  60.5806503  79.9689255  54.0485153  59.7946091
  80.7583466  53.1671181  60.7385063  66.8227539  70.5165634  11.9965229
  66.3213120  70.8636627  11.2587471  66.3026276  69.7781143  12.3133688
  69.0981293  63.2787819  79.8525848  69.3755646  63.1641617  80.7615051
  69.8948975  63.5381775  79.3898621  85.5570679  63.0834312   1.9632891
  85.8801804  63.9399834   2.2428408  84.7853775  63.2801895   1.4322407
  19.5985069  46.2470169  68.7041855  20.3564167  45.8385468  69.1224670
  19.3198662  46.9234123  69.3215027  85.3173599   7.3138580  13.6874781
  85.8265991   8.0124865  14.0983562  85.1269455   6.7048659  14.4009914
  79.5629883  14.6667461  15.6228380  79.3620682  14.9008579  16.5289593
  78.7075653  14.5862799  15.2009373  42.7174644   3.5467935  68.1478958
  42.8142586   4.2623534  68.7762604  42.2538071   2.8637247  68.6323242
  59.2411308  45.1163940  52.2694969  58.8969345  44.2250023  52.3258743
  59.0714989  45.4936829  53.1326942  60.9464302  71.3360977  15.7742405
  61.1050720  70.5387268  16.2794704  61.0097466  72.0430984  16.4164028
  19.7227516  22.6390972  30.4133110  19.3239670  23.4593124  30.1227093
  18.9970245  22.0154419  30.4378777  78.3462448  45.9485016   9.3466196
  78.2468796  45.0106430   9.5102625  79.0965576  46.2068520   9.8818989
  22.0563984  56.6400299  58.6543274  21.4888229  57.3873215  58.4655190
  21.6076527  56.1699791  59.3571167  79.4926300  61.0984688  83.6110611
  79.3660355  61.9945488  83.2992249  79.5048599  60.5672722  82.8148804
  35.3573685  46.9985695  66.5811005  34.9700813  47.8709450  66.6532516
  36.2994728  47.1585922  66.5257721  57.9276047   2.8129799  26.0862255
  58.0730057   3.7198474  26.3558216  58.4619560   2.7085428  25.2989559
  28.4972324   9.9750977  30.7375412  28.3372498   9.2810745  31.3770466
  29.2923641   9.7010164  30.2805119  61.1146164  46.7308083  78.7487183
  60.4479904  46.6312027  78.0690689  60.6531448  46.5434341  79.5661316
   7.0883188  40.4116173   3.3304951   7.8069820  39.9851379   2.8637295
   6.6308503  40.9152107   2.6571851   6.2740755  69.5696945  18.3388042
   6.7764506  70.2088165  17.8334579   6.6978922  69.5563812  19.1969624
  34.3993645  49.2445374  16.9158268  34.7738647  48.9031143  17.7278671
  33.4581909  49.2863960  17.0851574  28.7146416  39.4854622  81.1603241
  28.8156033  39.8616791  82.0346832  27.8931808  38.9960098  81.2035751
  81.2884293  25.6830559  40.2572937  81.1136475  26.3034077  39.5495911
  80.9068604  24.8594303  39.9535141  59.5775795   0.8098611  39.4071350
  60.0123596   0.3382666  40.1176262  60.1884346   0.7523047  38.6724396
  38.8649979   0.5455222  62.9105568  38.3770027   1.3537037  62.7526436
  38.1916580  -0.1313547  62.9789925  36.0039330  17.1144886  74.3571625
  35.8737068  17.1219940  73.4088898  36.0866737  18.0380020  74.5948792
  79.1193771  48.8662643  75.5964127  78.8323059  48.3281136  76.3341217
  78.3794708  48.8546791  74.9892578   1.2093273  55.9503174  46.6296692
   2.0235565  56.2368126  47.0434151   0.5433646  56.0633621  47.3078651
  23.3438396  49.1887779  58.0150375  23.4555721  48.4753838  58.6433792
  23.0208282  48.7610474  57.2219772  79.1010284  10.7050591  78.6144104
  78.1793060  10.5441780  78.8163605  79.3419876   9.9981117  78.0157471
  26.2320480  10.2138405  27.8209457  25.3126106  10.4592466  27.7177773
  26.5695705  10.8210239  28.4794579  65.8882217   9.1603355  55.1992607
  66.2002716   8.6090269  55.9168396  66.5529099   9.0645924  54.5171623
  39.7508125  66.0065689  74.4883041  39.3309021  65.1622696  74.3238068
  40.0187912  66.3135757  73.6221848  61.0080528  57.7083855   2.4450803
  60.9813423  57.1285133   1.6839851  60.4465523  57.2808571   3.0917408
  68.6606979  25.3136997  43.6158485  68.3687592  26.1699142  43.3029671
  68.1027679  24.6872482  43.1548691  85.7309418  13.6229410  86.8401794
  85.2166748  13.2668219  86.1156540  85.1383286  14.2351656  87.2763214
   6.4470739  17.3070564  12.1340971   5.6058192  17.0705814  12.5247402
   6.6446719  16.5860672  11.5362988  48.3286362  21.4252834  49.8900070
  48.6886902  22.2021866  49.4622116  47.5505142  21.7430248  50.3480492
   0.1435608  18.3634796  69.1580658  -0.5461196  18.9492416  69.4702454
   0.8860914  18.9408970  68.9806671  64.0003891  13.7070894   6.2382154
  64.8998337  13.5604286   5.9454241  63.8945694  13.1226826   6.9888825
  76.6585770  46.5022163  69.5670319  76.2332687  46.2044334  70.3711929
  77.4588242  46.9345322  69.8652649  59.0843430  62.0550652   4.4855185
  59.3366051  62.1041336   3.5634620  59.8857841  61.7947578   4.9395704
  39.2914505  10.7704630  38.4684792  38.4366798  10.6559820  38.0531502
  39.2320976  10.2681017  39.2810936  22.4102821  51.3837662  29.5404301
  21.7349873  51.9270668  29.9466743  23.2354336  51.7952080  29.7974739
  82.7682877  18.6857033  75.5389252  82.1604233  19.4177742  75.4350052
  82.3111801  18.0750675  76.1172028  84.0513840  54.3454971   8.4954462
  84.2633362  53.5396576   8.9665403  83.5595627  54.0522308   7.7284131
  43.4724922  59.0490990  35.3040314  42.8628311  58.4945984  35.7909317
  43.7525558  59.7103577  35.9369049  28.0251694  23.0945187   7.0669475
  28.6543789  23.5970478   6.5494609  28.3670006  22.2004871   7.0574141
  73.2695236   1.7095501  77.3045883  72.6384964   2.4134886  77.1545715
  73.4189377   1.3329867  76.4373474  14.5439100  55.4360619  89.2246246
  15.0436401  55.9996796  88.6339951  15.1703501  54.7696152  89.5068512
  39.6251907  65.0208511  37.7177658  39.3959084  65.2241592  38.6245918
  39.2710419  65.7519455  37.2114983  57.7441864  60.3241043  51.7939339
  57.2485657  60.5191727  50.9986115  58.5180397  59.8533363  51.4844856
  22.3599033  35.0991859   5.6895676  21.4205303  34.9468880   5.5865388
  22.6605301  34.3770523   6.2412682  10.7828035  24.4222584   2.7137041
  10.7711439  24.1044903   3.6165435   9.8869743  24.2923794   2.4024894
   4.6125736  50.5419044   1.3941830   3.6839166  50.7010803   1.2253933
   4.8299990  51.1337662   2.1143613   6.2565470  23.5464306  71.3082275
   6.8056946  24.3088055  71.4911270   6.7339687  23.0636940  70.6334915
   7.2728047  70.7848816  71.8853531   6.7803016  70.8848724  71.0706863
   7.2615042  71.6565933  72.2806015  71.4167480  18.8954144  48.3282623
  70.9695435  18.3160782  48.9451981  71.0905838  19.7697563  48.5412750
  14.0828190  55.6332893   3.4305549  14.0265789  56.4550858   2.9429896
  13.3672018  55.1000290   3.0844972  68.7284851  66.9730988  18.3313866
  68.5050201  66.8008957  19.2460651  69.6827774  67.0476303  18.3279171
  26.6985645  57.1165428  54.9615402  26.9973240  57.3631630  55.8368416
  27.2945518  56.4172287  54.6932335  62.4700317  36.0764694  27.4107876
  62.8099785  35.2753067  27.0122890  61.9791603  36.5035477  26.7087307
  57.7067642  30.9323578  13.0196295  58.1183853  30.5427246  12.2482767
  58.4404297  31.2030659  13.5716143  24.3924294   3.1882367   7.1149917
  23.5035057   2.8423033   7.0351300  24.5462399   3.2379234   8.0584450
  56.0396576   2.6885366  41.9578743  56.5738029   3.4535880  41.7442932
  55.5318947   2.5216970  41.1637878  45.1900978  70.6784439  72.3581009
  44.4645081  70.0888367  72.1528854  45.9067001  70.0969543  72.6122284
  10.9951820  30.7485905  63.6164284  11.9461832  30.8468437  63.6630783
  10.7086315  31.4604397  63.0442467  28.9987259   6.7808704  86.5153961
  29.5198135   7.2308197  87.1804123  28.4742489   7.4732327  86.1131592
  73.3810425  51.7231560  37.0766716  72.5448380  51.9154510  36.6523933
  73.1632614  51.6302032  38.0041199  55.2601166  68.9917297  29.1656704
  54.6028900  69.2989578  28.5412560  55.6240082  68.2037277  28.7621021
   3.2723448  53.3729477  20.1714478   4.1183457  53.8206635  20.1633720
   2.9669087  53.4543266  21.0749512  71.3584061  62.6584435  58.7301445
  71.3508148  63.3761749  58.0968666  70.5501099  62.7717018  59.2302094
  15.3531189  55.0127068  46.6372986  16.0246124  55.1867485  45.9777260
  15.6934776  55.4134865  47.4371529  62.3514671  50.5297203  28.7835960
  61.5363998  50.7703743  28.3431625  62.8638802  50.0813179  28.1108398
  51.6061401  18.4040432  32.4510765  51.1246758  17.6804142  32.8520584
  51.2773857  19.1856747  32.8951530  36.1292305   1.9932616  27.4491520
  35.4178314   1.3837403  27.2526207  35.7434998   2.6233599  28.0577717
  83.6885910  15.9463282  37.9505844  84.0858536  15.5115376  37.1960182
  82.7509613  15.9509840  37.7580910  77.1656647  60.2125130  18.4713535
  77.3842316  59.3286896  18.7668457  77.2190399  60.7494392  19.2619820
  56.4338112  40.5411987  41.5153122  56.1140366  39.7547913  41.9575081
  55.7680168  41.2048531  41.6956291  33.1672020  54.8726730  45.6082535
  32.4114990  54.3662453  45.9060402  33.8420830  54.7050896  46.2660370
  36.5839310  11.8313971  85.7805557  36.8525009  10.9910851  86.1520081
  37.3280067  12.1049051  85.2441101  34.4985886  17.1904278   0.9943649
  34.7067986  18.0457592   1.3702501  34.9529305  16.5641403   1.5578973
  27.3192368  49.3916931  73.7544098  26.4705601  49.7698364  73.5242310
  27.1044140  48.5582008  74.1731873  62.8211746  12.2020502  17.2688141
  62.6950722  12.1659861  18.2169857  62.0473900  12.6607399  16.9415588
  31.6315384  45.1969681  44.4031181  31.1284103  44.5356293  43.9280128
  32.2803612  45.5046959  43.7702217  78.6824417  46.4926453   6.3467216
  78.5377579  46.4624672   7.2924433  78.1506882  45.7761841   6.0000892
  10.0100298  67.9662323  57.4810638   9.9296255  67.1221848  57.0368271
   9.4814224  68.5655365  56.9541435  33.7421227  20.6788025   3.3674202
  34.6384506  20.4710732   3.6313808  33.3554535  21.0937843   4.1384649
  13.8029947  37.6430550  23.5952091  13.8470821  38.5748940  23.3808098
  13.1737432  37.5923462  24.3147259  44.7651825  38.0270195  69.3205109
  45.2871590  38.7711487  69.0204468  44.3567085  37.6848145  68.5253525
   8.2127733  31.4085617  19.9603939   8.7721758  31.5882339  20.7160511
   7.3619099  31.7761154  20.1994915  43.2172699  45.2834702  44.2979393
  44.1606789  45.3809891  44.4271774  43.0837440  45.4587364  43.3664436
  14.8611755  40.3911552   4.2381606  14.9193249  41.2485580   3.8166060
  14.3226595  39.8682518   3.6441865   0.9234295  22.0794582  24.9206333
   1.5528933  21.4349747  24.5971413   0.2287001  21.5560856  25.3202114
  42.1294022  43.1766739  69.6618271  42.8909683  42.6895065  69.9763489
  41.3780098  42.7028656  70.0184097  73.0311127  23.0891457  59.5661430
  73.9644775  23.0641174  59.7769127  72.9738541  23.6596794  58.7996941
  81.8378448  16.4528065  22.8412552  81.4570389  16.8773022  23.6100349
  81.0945511  16.0368271  22.4045506  77.9388580  51.6783867   1.3944191
  77.6588593  51.2435150   2.1998506  77.3314514  52.4113808   1.2943829
  68.8067474  53.6281967  58.9724007  68.4153214  53.5556335  59.8428879
  68.3469620  54.3613663  58.5633926  58.0060120  50.8536797  36.8972816
  58.5192146  50.0629196  37.0632706  57.8411446  51.2190628  37.7665024
  13.5268421  41.2483788  19.5824547  13.9700556  41.9622726  19.1240368
  12.6046066  41.3481712  19.3463326   8.1062231  62.3699875  20.9182587
   8.7821426  63.0259781  21.0886745   7.2984390  62.8758278  20.8297081
  21.7696037  63.3596420  50.7233849  21.2364902  63.1084862  51.4776649
  21.1523705  63.7760735  50.1218491  45.0692711  42.6391220  48.3913231
  44.3501015  43.2656326  48.3106499  45.2926826  42.6494827  49.3220291
  57.8916435  17.1099911  76.9737930  57.3891563  17.4006042  77.7348938
  57.4915237  16.2762604  76.7267532  74.6180038  20.2622337  72.8163528
  74.7720032  21.1216831  73.2085953  75.0057373  19.6435204  73.4352951
  27.5924492  23.2216930   9.7770967  27.6514912  23.0421219   8.8387470
  28.5026379  23.2707729  10.0692968  46.9914627  66.4809723  63.6498451
  46.6476974  67.2486115  63.1929131  47.2633286  65.8873978  62.9498482
   8.6899366  38.7359009   2.0439305   9.1691952  39.0136642   1.2632953
   8.2808046  37.9080658   1.7918779  69.0803680  56.4755745  86.6454926
  69.2180252  56.8627090  85.7809601  68.3665237  55.8509064  86.5172806
  53.0310097  31.8253174  80.6246872  53.7198868  32.2887192  81.1010742
  53.3622208  31.7589283  79.7290726  85.2188644  54.2629051  24.5875835
  85.0166245  55.1813011  24.4090290  85.2479324  54.2053528  25.5426102
  71.6839828  70.8572464   5.7781982  72.1580658  71.4854736   6.3229923
  71.2431488  71.3952560   5.1205916  30.9855919  41.8181953  46.1313477
  30.7953739  42.0667763  45.2267723  31.9385223  41.7328758  46.1609573
  40.3326302  11.4194660  16.3653488  40.6861229  11.2858772  15.4859018
  39.9435272  12.2935486  16.3368626  63.1299934  56.6059914  36.7665596
  62.4304314  55.9541512  36.8107529  62.8883286  57.1671028  36.0296860
  40.6927414  24.4298553   9.8201475  40.8600197  24.4150581  10.7625017
  41.3296776  23.8161831   9.4541626  27.9969597  36.1013794  70.3823242
  27.6699791  36.9536934  70.0944366  28.9454365  36.2161293  70.4411240
  40.4841461  63.8627319  14.3158092  40.2404709  63.7033005  15.2276411
  40.4480057  64.8145523  14.2211447  17.1285686  69.3868866  61.6475449
  16.7284794  68.5626068  61.3705406  16.3917217  69.9261780  61.9346886
  70.9250183  18.6755810  31.9989338  71.2972641  19.4395237  31.5584087
  71.6816330  18.2187328  32.3664398  33.1862526  55.3931541  14.1857491
  32.7922287  54.5628700  13.9181547  33.2335434  55.9067230  13.3793736
  47.5508804  67.0966721  81.7558746  46.8734016  67.6614838  81.3840637
  47.0801811  66.3130112  82.0396957  38.2206764  64.3133774  67.2496567
  37.7875290  63.5457153  66.8764038  39.1114655  64.0178986  67.4378510
   3.6905458  58.8978004  64.0762863   3.8863790  59.0806236  64.9952240
   3.0610299  59.5741844  63.8263893  40.7495842  61.1081276  81.1910248
  41.7009735  61.1826210  81.1165695  40.4222832  61.3428116  80.3226700
  79.7769623  33.3800735  64.4380264  79.9359055  33.9168587  65.2144470
  80.3946915  33.7122421  63.7866402   9.8618879  53.4833527  46.1170006
   9.5505276  52.6205750  46.3906746  10.1528187  53.3575897  45.2137985
  48.9744682  50.1445198  11.5846615  49.5174789  50.5806885  12.2412643
  48.8528023  50.8017845  10.8995094  54.1636734   6.1091938  46.3108368
  54.7467537   6.7787428  45.9531288  54.0198708   6.3769374  47.2185059
  71.1533585  28.2594795   0.5222936  70.8625717  27.3490696   0.5754877
  70.6288223  28.6375999  -0.1834806  53.1728630  20.7521553  34.8804588
  52.2934761  20.7537975  34.5024338  53.1033325  20.1820335  35.6461983
  69.1296997  61.9707069  72.1873245  69.2754211  62.8914604  72.4046097
  70.0066833  61.6190987  72.0340195  12.6203365  27.2592373  78.3729248
  11.7546844  27.2218533  77.9661331  12.4797201  27.7339973  79.1921082
  29.3862991  34.9207268  55.5467339  28.8798237  35.5246925  55.0036469
  28.8396626  34.7774429  56.3193169  26.0895100  39.1385956  56.8004494
  25.3000202  39.6474228  56.9849205  26.5399151  39.6346855  56.1168861
  66.8272858   0.8044159  36.1560135  66.0527191   1.2154719  36.5398331
  67.5174332   0.9411077  36.8050461  61.6678200  17.5220490  76.4662552
  62.0140572  18.3072662  76.0422516  62.4368668  16.9725113  76.6172714
  66.5578918  56.7632446  41.8141899  67.0539474  56.7022552  40.9978333
  65.6683960  56.5038452  41.5739021  23.3024387  40.9272385  76.2942657
  22.5487747  40.5592957  76.7556152  23.5809841  41.6631622  76.8392944
  40.7321930  52.3814011  82.0943832  40.7187767  53.3168182  82.2969894
  39.8120880  52.1509628  81.9658051  86.0147858   7.3290181  67.0735550
  85.1192780   6.9939713  67.1187744  86.4148941   7.0552626  67.8989029
  56.4776878  26.6081142  64.4721069  56.9226532  27.4142895  64.2107315
  56.9805756  25.9101028  64.0524521  44.4792328  61.0247650   7.6719294
  44.3060913  61.4211998   8.5257988  45.3792725  61.2788506   7.4679694
  27.2605534  65.5774765  87.6092834  27.1892071  65.7360611  86.6680069
  26.4358921  65.1517410  87.8436279  60.3796501  24.7824516  40.4710312
  60.0381966  24.5657368  39.6034622  61.1669998  24.2453537  40.5595703
  26.4865475  44.6192627  79.3957596  26.9970341  44.1615715  78.7278061
  26.5192070  44.0426254  80.1590729  45.0723267  14.8149796  23.8813686
  45.2885437  14.0664015  23.3253899  44.7399940  15.4761763  23.2742386
  65.8792953  65.6453323  44.7614822  65.4725189  65.5960693  43.8964157
  65.8623962  64.7448807  45.0857277  55.4697075  32.0436516  87.8752289
  56.3882866  32.2724533  87.7334747  55.1067200  31.9530907  86.9941635
  81.1398010  23.8409595  20.2053566  81.3438339  24.0460644  21.1177902
  80.7037277  22.9896927  20.2429619  46.5269966  21.7074738   1.7444273
  46.0784874  21.1713791   2.3983960  47.3689461  21.9212132   2.1465051
  84.0770874  66.7595978  76.5459976  83.9812088  65.8162613  76.4150467
  83.4806290  67.1517792  75.9082947  78.2071838   1.7132581   3.3464844
  77.3204346   1.3582767   3.4089177  78.1472015   2.3904135   2.6726189
  80.4210739  21.0006695  62.5119514  80.0437393  21.6525707  63.1026077
  79.7288895  20.8261185  61.8742638  71.9090042  67.2833405  26.7287712
  71.1297760  67.7941971  26.5095444  72.6005173  67.9361496  26.8378067
  58.5375366  66.7487793  77.1476059  58.5073624  65.7948608  77.0743561
  58.0416679  67.0628586  76.3915024  54.8938751  61.5777855  25.7536507
  54.0194588  61.4801407  26.1306038  54.9849701  62.5182304  25.6003838
  56.9320030  65.2249298  85.5493317  57.5716476  65.5718079  86.1712341
  56.4597740  65.9963760  85.2361069  38.9353065  56.2442398  77.3119812
  38.5276680  57.0776176  77.0763092  38.3491249  55.5799370  76.9496002
   1.9668645  58.3091965   6.6335506   2.5983689  57.9025040   6.0402246
   1.6333948  57.5841141   7.1620255  77.2519684  30.1159973  54.2323341
  76.5323105  30.5175667  53.7454338  77.8786316  30.8275070  54.3637772
  21.9552460  32.5400772  71.6710892  22.5572987  33.0090294  72.2488861
  21.2631950  33.1735344  71.4812851   9.3969917  65.1120834  19.8087006
   9.3954201  64.8506546  18.8878937  10.3135805  65.0429230  20.0757484
  55.8256111   3.2382400  62.7775688  55.4159050   2.4075928  63.0192261
  55.1425743   3.8931222  62.9218674  67.1160507  33.9631157   9.5972166
  66.5022202  34.5563087   9.1641159  67.9612503  34.1544228   9.1906900
  85.8803635  48.6644020  21.5838509  86.3842545  48.7989540  22.3864803
  85.0279160  49.0593224  21.7671814  10.8322449  10.5252905  80.8786545
  11.7817030  10.4481525  80.9725189  10.6865759  10.5537195  79.9330292
  28.7728691  55.5379181  50.5063438  27.8959694  55.2034760  50.6945610
  28.6222324  56.3176727  49.9720001  60.1022491  56.3259964  18.9893379
  60.2101936  55.4551659  18.6069260  59.9029350  56.1599464  19.9107151
  82.5973740  23.3020668   7.2381506  83.5301743  23.5086708   7.2967167
  82.5282135  22.7189331   6.4822383  56.4706879  53.6815224  80.9417267
  56.0611649  53.0670624  81.5507889  57.4103546  53.5323486  81.0466309
   3.6912379  57.1246109  77.3893967   4.3623929  56.4701920  77.5830994
   3.7221012  57.2249718  76.4379730  57.8575020  18.2966785  22.2387428
  57.7127571  18.6652565  23.1101971  58.7325478  17.9113503  22.2839775
   4.9519763  65.9782639  28.4123154   4.0992751  65.7248154  28.7657223
   4.8843141  66.9236145  28.2783089  84.2070770  37.0733910  73.9694290
  85.0599518  36.8298759  74.3293381  84.3310928  37.0469704  73.0206680
  64.2990036  55.4587097  41.2098770  63.5589561  55.5005569  40.6042328
  63.9808121  54.9285660  41.9405861  13.4667130  49.0920372  62.8834915
  13.9920187  48.3452263  63.1708221  12.5717278  48.7547493  62.8451691
  87.0199509  22.8156223  54.4899673  86.5265198  22.0104809  54.3334007
  86.5872421  23.2192383  55.2423592  18.9290905  48.7224960   2.8525169
  19.5906429  48.6800499   2.1620247  19.3986015  49.0644264   3.6133556
   4.3728199  28.4234085   7.5770988   4.8042178  29.1838799   7.1874704
   3.6180015  28.2603474   7.0115089  39.4763298  60.3068848  76.0725555
  40.3135300  59.9496040  75.7764587  38.9196014  59.5386848  76.1996536
  57.7115593  55.4615364  37.6376762  57.2065086  54.6847420  37.3973770
  57.9967422  55.2934189  38.5358086   6.8305125   3.3740323  58.3715782
   6.6994944   3.0624633  57.4760399   6.8348308   2.5784175  58.9037552
  75.4196777   2.9026573  48.0706863  76.1612396   3.1156387  48.6372223
  74.7221298   2.6481624  48.6747398  10.5699568  44.2341728  43.7024574
  10.6355972  44.3916283  44.6443329  10.0562801  43.4297981  43.6293144
  21.9694252  63.0744209  86.4812012  21.2709007  63.6697083  86.7530975
  21.9149837  63.0618668  85.5256348  26.6057072  34.8549309  82.9094238
  26.0156860  34.7596893  82.1617355  27.3801918  35.2874413  82.5497894
  23.4796925  16.7244053  20.0898170  23.9844723  17.1086864  20.8065872
  22.5781994  16.7122269  20.4113636  66.5306931  43.0965271  20.8902378
  66.7591476  43.7706146  21.5302715  65.7344360  42.6954918  21.2386246
  31.8162651  14.8740072  11.3440981  31.1757393  15.1152334  12.0132542
  31.3839493  14.1884832  10.8347940  82.5081329  22.5838432  62.5627136
  82.1916428  23.2558155  61.9589615  81.8825302  21.8652592  62.4706116
  67.2133636   1.1996446  39.6887550  67.1219482   2.1365051  39.8624420
  68.0321045   1.1257291  39.1984062  15.4897966  42.8044739  27.5175343
  16.0602779  42.0518036  27.3617554  16.0030861  43.3809586  28.0836029
   9.5539846  28.2512684  63.1788864  10.0175047  27.4291878  63.3387833
  10.2339325  28.9231663  63.2284393  -0.1279335  27.5123997  27.9931641
  -0.6186569  26.9149723  27.4288025   0.7863021  27.3840504  27.7403164
  43.7016602  45.5098419  62.5855026  44.0788345  44.7697411  63.0611382
  44.1041603  45.4672775  61.7180862  11.2596703  44.9637070   9.2272940
  12.1671906  44.9390907   9.5306625  11.1035357  44.0904312   8.8677864
  65.3947906  71.0821381  29.0606880  65.5462341  71.9520950  28.6912823
  66.2585678  70.7932434  29.3550816  64.2543335  44.8453712  25.5491714
  64.0505981  45.6271477  25.0357990  63.7339554  44.9403648  26.3469276
  76.5760269   1.1107296  72.9670334  76.9469910   1.5941651  72.2288513
  75.8753738   1.6745602  73.2947540  37.6145859  61.0435867  16.6232986
  38.3796959  60.5973244  16.2604141  37.7081947  60.9471626  17.5710182
  72.9988098  43.0444145  72.1284103  72.5635834  43.6043816  72.7712555
  72.7221603  42.1571274  72.3573761  21.7664146  49.0290222  36.9732857
  21.1907234  48.4964828  37.5221138  22.6324635  48.6364059  37.0830307
  86.5354385  50.6594849  18.5583305  86.4792862  51.2607498  19.3010006
  86.7037964  51.2249374  17.8045731   3.4667146  58.9810905  43.8847160
   3.0690067  59.3455315  44.6754379   2.8368134  59.1723251  43.1898193
  29.9844818  15.6962948  88.8854370  29.2408848  16.2874756  89.0029221
  30.6561756  16.0358295  89.4768600  79.0554733  35.0397491  13.4562073
  78.7391129  34.4981003  14.1792355  79.9136200  34.6744194  13.2409163
  68.1293716  40.3749886  87.7409363  67.2421875  40.0497360  87.5881653
  68.4098358  39.9373169  88.5446930  26.9688320  24.2082481  81.5355148
  27.5354080  23.9743500  80.8003159  27.2088699  23.5927315  82.2281570
  33.6538849  20.6718159  73.4990692  33.5477295  20.9214745  74.4170227
  33.1920471  21.3532219  73.0105820  10.2371035  21.2383137  78.5176926
  10.5003843  21.9333076  77.9144592  10.8531675  21.3080482  79.2469635
  34.8546562  46.5833664  87.3353653  35.7970047  46.4236565  87.2833481
  34.6340981  46.4188538  88.2521667  70.4894485  51.9542046  13.1039181
  70.3515091  51.1605568  13.6209555  69.6506958  52.1048698  12.6680021
  52.9001465  22.2713776   2.4891198  53.3152847  23.0457363   2.8689358
  52.3456955  21.9287224   3.1901217  12.3316870   5.8339067  85.9168243
  11.8402319   6.0869493  86.6982803  12.0368967   4.9433570  85.7264252
  28.7245922  38.6958122  19.1050758  28.5178471  38.5082130  20.0206604
  29.5775814  39.1290359  19.1360550  66.3876114  24.5954208  76.5422821
  65.8831711  23.8949375  76.1286392  66.3784103  25.3072128  75.9023590
  23.4271431  45.8065224  79.5811615  23.1120815  44.9604912  79.8992767
  24.2706966  45.6101341  79.1736298  10.3377924  63.0142593  11.7945662
  11.0107040  62.4306946  12.1451015  10.5449286  63.0862961  10.8628283
  30.6520748  62.5084915  65.2093964  31.3539066  61.9871979  64.8196335
  30.1795883  61.8930435  65.7699432  13.8361673  48.3110847  76.6441956
  14.2731514  48.8490105  77.3044357  12.9025412  48.4615707  76.7922821
  39.1375122   2.1647174   0.7930092  38.5621910   2.1872067   0.0283290
  38.8901863   1.3639016   1.2553473  15.2804356  47.0413628   8.9704313
  14.4380894  47.2691574   9.3638697  15.4061270  47.6922722   8.2799587
  79.2716293  40.1778717  75.8153152  79.1978760  39.8042870  74.9371262
  78.7753906  39.5786781  76.3729477  61.3055153  31.0395317  21.8511124
  60.8830833  31.0911045  22.7085056  60.9080086  30.2752628  21.4338436
  86.5140991  33.5245209  58.0535393  85.6036224  33.7160683  57.8286629
  86.6460495  32.6203003  57.7685699  59.3003044  17.0875912  35.1761971
  58.5873108  16.5733948  35.5549774  59.1777687  17.9669170  35.5339737
  59.0255928  11.4874353  43.8459663  59.9628143  11.3047810  43.9129486
  58.7964973  11.2386932  42.9504929  86.0228348  10.6552095  10.8320236
  85.5595856  11.3487129  10.3622551  85.4896088   9.8728991  10.6909847
  85.8988724  38.3930817  67.1366501  86.1646347  37.4955406  67.3367081
  86.5183029  38.9396935  67.6201324   9.6422796   3.6009433  22.5295296
   9.7078743   4.0369015  23.3791599   8.7520819   3.7887747  22.2320423
  82.9104919  12.5471506   4.7796545  83.3028641  11.9837418   5.4466190
  83.6011734  12.6625557   4.1270704  59.0304108  44.6081619  70.9970093
  59.1928902  44.9409523  70.1143494  58.1066513  44.7996902  71.1589127
   7.0530224  12.1938343  20.9224339   7.1230540  11.5575666  21.6341152
   7.9523721  12.4850874  20.7721863  54.6295586  43.7000961  47.9704742
  54.9107056  42.8526344  47.6255150  55.4443474  44.1498642  48.1942101
   6.7559562   0.2071429   8.2455559   6.1538186   0.0184935   8.9653292
   6.9155784   1.1489110   8.3074055  34.3624344  50.0355949  22.1653709
  34.7439995  50.8999710  22.3186493  34.8859825  49.6652603  21.4547539
  30.3381290  53.5120354  85.4319229  30.4919376  52.9887924  84.6452866
  30.7650852  53.0206566  86.1336975  64.5847778   4.6047406  62.3269768
  64.4046326   4.0986199  61.5347519  63.8530045   4.4045730  62.9106483
  44.3064270  34.9765701  36.2159157  44.2348328  34.0740242  35.9052467
  43.4761047  35.1428375  36.6621819  59.6902046  45.6411934  54.8799515
  60.4683952  45.3253136  54.4207497  59.9573822  45.6909447  55.7977600
  78.4261398  56.8632660  68.0833588  78.5164413  55.9608345  67.7772598
  79.3257141  57.1625557  68.2153473  76.2865143  17.3651905  46.7505074
  75.4232788  17.4176617  47.1607552  76.1022186  17.2707748  45.8159714
   7.1202612  46.2453957  51.6793327   7.8208499  46.8774109  51.8404732
   6.3136148  46.7395592  51.8254662   6.5943542  10.1366215  28.2347507
   6.3637519  11.0541592  28.3802853   7.4619217  10.0424175  28.6280499
   0.1295406  71.2271423  32.8719978   0.7604675  71.4278183  33.5632973
   0.4687333  71.6793213  32.0995255  38.2259102   8.4745464  13.8027773
  38.4530678   9.2386770  13.2729321  38.8945885   8.4503555  14.4872599
  29.1208458  41.2091217  16.1929150  28.2327251  40.8714027  16.0770760
  29.2474480  41.8075714  15.4566669  75.4570847  36.6499634  38.4347000
  75.4816055  35.8203163  38.9114761  75.9501343  36.4796524  37.6321259
  42.7337761  69.6708298  50.9027824  43.5234566  69.8493805  50.3921394
  42.2265434  69.0697784  50.3571777  26.4288425  69.2023621   0.1205493
  27.1710567  69.6268311  -0.3097688  26.0775852  69.8717270   0.7077429
  64.9936752  69.8897858  57.4759064  65.6871719  69.4618073  56.9737816
  64.3262863  69.2128067  57.5877647  29.3611755  52.3270988  56.3362389
  29.2521324  52.1013718  57.2600288  30.2519436  52.6725349  56.2776146
  68.2889481  41.4715919  56.8804779  67.4482574  41.8765335  57.0937653
  68.9417191  42.0649185  57.2520790  82.0362473  46.7779388  12.6820459
  81.4010925  47.4489708  12.9320908  81.7884140  46.5340118  11.7902451
  74.6081314  37.9741974   5.6659846  75.3985748  38.3985405   5.3322902
  74.8261642  37.7364616   6.5671921  53.9606781  11.1759872  77.9237595
  54.1349144  11.3136368  78.8548508  54.4492569  10.3829317  77.7033463
  72.6505585  52.9446983  60.7983131  72.7912216  53.7817688  60.3558731
  72.0982208  53.1607399  61.5496292  50.1355705   9.3453293  31.7854614
  50.1838455   9.9404612  32.5336075  49.1981430   9.2413292  31.6222382
   6.1110020  45.4740067  15.1600037   6.8592000  44.9111862  14.9608526
   6.4965997  46.3330116  15.3322124  52.7927933  15.1765509  63.1169052
  52.7325859  16.1249199  63.2318192  51.9741631  14.9353657  62.6834183
  64.9271545  67.8495865  72.6165009  65.0262222  67.5703659  71.7063065
  64.5354156  68.7210159  72.5584183  83.7954636  15.2120628  35.0685387
  82.9735184  15.4331570  34.6306305  84.4754562  15.4724636  34.4472198
  65.1441650  50.2342148  70.5353928  65.0160294  50.8674583  71.2416611
  64.5456772  50.5205841  69.8454361  25.4948006  55.1068573  35.4720306
  24.8231392  54.4529724  35.2782822  26.3228493  54.6392708  35.3628044
  77.6288223  61.1805878  52.8607903  77.8724976  61.8395119  52.2106590
  78.4418335  60.9960251  53.3310890  74.2099228   3.5005684  12.9146662
  73.4319305   2.9785597  13.1107931  74.4658966   3.8749678  13.7575989
   7.0942411   1.4845052  54.8023491   6.5677495   0.6959546  54.9335976
   7.7984853   1.4122695  55.4465942  79.1575165  39.6838379  51.6788750
  78.8351059  38.7829666  51.7056503  78.7568588  40.0584030  50.8943977
  48.6691856  47.5868454  63.3488655  48.2323837  47.4911041  62.5025406
  49.5042725  48.0061150  63.1413231  49.4225769  24.9303608  43.3803215
  48.9041786  25.1571121  44.1523857  50.1258583  25.5795040  43.3649406
   6.2689705  62.9503555  39.1444550   5.3590546  62.6591759  39.2036133
   6.5230718  63.1276588  40.0501175  45.5129204  62.4806519  15.4291344
  45.6358604  61.6123390  15.0455303  45.8008537  63.0869446  14.7466860
   3.3758984  32.9054108  22.2097435   3.4746885  33.8571091  22.1825066
   2.4358716  32.7653542  22.3236065  22.5233765   1.5438725  57.3187256
  22.0093307   0.8763979  56.8643379  23.0185699   1.0573491  57.9777451
   4.2568517  29.1623135  80.9815979   4.7509270  29.6626987  80.3321915
   4.3596883  28.2502117  80.7100677   6.4912882  38.5887451  70.3530807
   5.6324539  38.1663246  70.3391037   6.8057494  38.4625244  71.2482986
  55.9629784  41.0102005  27.9068508  56.0157471  40.0568504  27.8392830
  56.7107887  41.2533913  28.4526253  28.1911850   1.2029543  80.7814484
  28.8767910   0.5403719  80.8660583  28.5694408   1.8667259  80.2047653
  67.4385376  65.6058044  12.6575584  66.9396057  65.8673782  11.8836851
  68.0473404  66.3294067  12.8058825  81.1980057   2.3664994  29.6276627
  80.4865723   1.8724935  30.0351448  81.5749588   2.8781426  30.3434544
   5.9675918  53.9767380  63.3848877   5.8080072  53.7773781  64.3073959
   6.0968962  54.9249268  63.3636475  21.4531384  66.5098648  83.5030899
  22.2940731  66.4800415  83.0468292  21.6448307  66.1788025  84.3805237
   4.1665764   6.5044627  32.0213127   4.9441562   7.0252242  32.2223320
   4.1170521   5.8641787  32.7311134  57.4300079   1.9066130  80.3058472
  56.7341118   2.1985345  79.7169952  57.8257294   1.1594375  79.8571091
  49.9617119  34.7965279  26.1538029  49.0299034  35.0106735  26.1996784
  49.9859314  33.9067574  25.8017330  61.1512871  36.5592346  65.5299530
  62.0063019  36.1335449  65.5930099  60.9277954  36.5112267  64.6004486
  30.8305702  46.8705292  81.2050629  30.0169811  47.2561340  80.8800812
  31.4789677  47.0765762  80.5317459  84.9756927  10.5039568  13.5716705
  85.3474579  10.3398066  12.7050238  85.4887390   9.9510574  14.1610107
  72.0250397  62.7849426  52.6881828  72.6579742  63.1778641  52.0871544
  72.5080643  62.6765518  53.5074348   3.6950889  49.4634323  54.6100769
   4.6395378  49.3203850  54.6716003   3.6079924  50.2784729  54.1157494
  63.9739838  16.3008099  49.2387314  64.5496445  15.5946980  49.5324249
  63.4306297  15.9002533  48.5600891  41.2256546  61.2035027  60.8373833
  41.8312683  60.5973854  60.4106636  41.1576080  61.9408188  60.2307816
  28.8962116  34.3824348  18.3887596  29.5545540  34.8463249  18.9060802
  28.4446678  33.8236542  19.0212955  16.1064625  42.1492538  47.1063118
  15.6227198  42.7030678  47.7191010  16.8921337  42.6540337  46.8961983
  86.7997589  17.3373375  63.9955864  87.0615692  16.4760132  63.6703033
  86.4512177  17.7880440  63.2264252  52.1204796  44.5053787  63.5112305
  52.7663460  45.0783577  63.9244881  51.4579697  45.1025772  63.1638603
  68.0068588  57.4971542  34.7224846  67.1421661  57.8999710  34.8017426
  68.1292343  57.0282860  35.5479622  80.4004059  37.0545654  32.7442513
  80.7201767  36.1528091  32.7727547  80.6668625  37.4298210  33.5835457
  82.5087433  45.3840256  22.4132347  83.0121536  44.7232170  22.8887806
  83.0778503  45.6429367  21.6884537  33.2882805  42.9755669  59.9066277
  32.7259598  42.4311829  59.3555641  33.5582466  42.3964081  60.6193199
  36.2531815   5.7631483  80.2688751  37.1239395   5.4959970  80.5632248
  35.9789162   5.0681453  79.6705627  11.8838587  42.7756729  34.4203568
  11.9477339  42.0536575  33.7951775  10.9922495  42.7170906  34.7636261
  36.5772209   0.2752939   9.7783947  35.9004860   0.8146760  10.1874580
  36.1050377  -0.2559015   9.1372166  13.7946510  68.2185669  80.9061432
  14.5406065  68.5152054  81.4274826  14.1498899  68.1007004  80.0251541
  31.7305584  65.7142410  12.4269581  32.3960457  65.9748535  13.0637007
  30.9604588  65.5073395  12.9564543   8.7715073  43.6203766  14.7561827
   9.5366449  43.1254654  14.4631681   8.1642122  42.9541702  15.0780449
  52.4744835  68.4199219  82.4261475  51.6715126  67.9143982  82.5523224
  52.2081947  69.3296432  82.5592957   2.8036430   3.5947952  27.0225639
   3.0450897   4.5179133  26.9464855   2.1487513   3.4612589  26.3373508
  85.8572388  30.2479992  27.5116653  85.0244751  30.0450382  27.9377346
  86.3775406  29.4506855  27.6107178  22.6702404  39.2107391  21.6563816
  22.5143299  39.7645912  20.8914165  22.8231907  38.3383789  21.2933006
   4.0683098   5.5441213  23.9908180   4.2941756   5.7976570  24.8857670
   4.2790513   6.3144841  23.4632187  46.1700706  68.7156525  53.2495537
  45.8929253  67.9754333  52.7096558  47.1159554  68.6027985  53.3433685
   9.2963610  56.7215042  16.0328102   9.5466709  57.6378136  15.9146776
  10.0723810  56.3080864  16.4111137  70.7413177  42.6203575  37.0502090
  70.0735474  41.9406929  36.9587173  70.2491150  43.4119987  37.2676277
  28.8322067   2.4423788  31.1162167  28.0809860   2.9510322  30.8109760
  29.1186905   2.8918703  31.9112759  48.4546776  17.0162525   2.8578935
  48.6057625  16.1341991   3.1975827  48.2687836  17.5435390   3.6348381
  44.9749184  38.9697533  75.2272415  45.0720253  38.3326073  74.5195389
  45.8244934  38.9692535  75.6682129  65.4308472  28.6618614  59.7047234
  64.6470490  28.1204758  59.6109276  65.7401276  28.7928619  58.8083839
  58.3220596  14.2101068  43.6112518  58.7601318  14.3100920  44.4564323
  58.2642212  13.2634439  43.4819679  80.6978226  12.5870810  21.1303272
  81.6336746  12.4010334  21.0541763  80.5689697  13.3825922  20.6138096
  66.0678253  63.4803276  70.0770264  66.8301163  64.0002060  69.8223343
  65.4928970  64.1014099  70.5241852  75.7363815  34.8898239  43.0138893
  76.1137238  34.0129166  43.0837326  75.1864395  34.9766388  43.7925186
  62.2978935   5.6371846  76.1757584  62.2590866   5.0111952  75.4526672
  63.0417404   6.2013545  75.9644852  54.0179901  20.9319267  23.3482437
  53.5093002  21.6534386  23.7182293  54.0384941  20.2728386  24.0420837
  51.7414856  29.3648777  50.4235649  50.9451141  29.3115387  49.8951950
  51.6116066  30.1361618  50.9753647  40.0555077  26.9487686  58.9721260
  40.7494659  26.4176655  58.5815048  40.1007004  27.7830372  58.5050201
  86.3279495   7.7659993  30.2910271  86.6727524   7.0022888  29.8283291
  85.4506378   7.8896213  29.9286995  61.8166924  52.3289490  13.3168783
  61.6816406  52.0462418  12.4124060  61.8765831  51.5143852  13.8160114
  76.6093903   9.9914551  84.5715408  77.4522247   9.6883478  84.9091721
  75.9808884   9.3350954  84.8722153  59.1120872   2.1394804  69.9517746
  59.2785606   1.6179811  69.1665649  59.0858879   3.0433679  69.6378784
  12.6030560  19.8730888  14.4092703  13.4042740  20.0879383  13.9316502
  12.1309729  20.7034931  14.4708929  72.2008438  34.2949409  26.2591286
  71.5575867  34.8733482  26.6688862  71.8153610  33.4214592  26.3274822
  37.8188362  34.2529411  70.3162155  36.9153175  34.4210091  70.0485687
  37.9695625  34.8569984  71.0432816  10.6426096  44.5026855  78.6664352
  11.2335138  43.7503014  78.6350555  10.7664528  44.9398041  77.8239288
  24.2093658  37.2764587  83.8531723  23.6806850  36.9389496  83.1301117
  24.7876740  36.5502319  84.0863876  43.7421761  45.1424332   6.4152102
  43.9364281  45.6235313   5.6108217  44.2279625  45.6080170   7.0959988
  18.3640728  41.4400063  85.4314651  17.8745251  40.7802162  85.9226379
  18.5133686  42.1453934  86.0610504  24.4227562  48.1811371  37.1589012
  24.8667431  47.8285675  37.9301376  24.6369724  47.5663033  36.4572449
  62.9588394  44.1031113  37.8278122  63.7168388  43.6370544  37.4750252
  62.2682076  43.9619522  37.1802521  21.7106819  48.4096565  68.9636917
  21.1890678  49.1983566  68.8150253  21.8336391  48.0358200  68.0911331
  72.0240555  27.4731674  85.1591492  72.2805328  28.2790127  85.6075516
  71.5428391  26.9744377  85.8193970  62.7683372  64.3787613  60.9591446
  61.8164291  64.3747940  60.8587074  63.0538788  65.1710587  60.5042038
  68.4060135   3.0001998  75.5345612  68.8048477   3.0083818  76.4046783
  67.6568527   2.4105499  75.6200104  78.7236862  61.0464134  39.1181602
  79.2801132  60.5407944  39.7105942  79.3375702  61.4863548  38.5300827
  56.0886650  21.0964718  36.7501640  56.1349030  20.9525757  35.8049698
  56.3136940  20.2484379  37.1328316  50.4538307  67.9907837  31.1066132
  49.5751114  67.7672729  31.4134159  50.4567337  68.9470520  31.0643253
  11.7144022  31.5926495  19.7088776  10.8810692  32.0387535  19.5579472
  11.7690201  30.9434853  19.0075684  80.9530640  28.6776199   1.2841214
  80.8090820  29.6106892   1.4418699  80.4528122  28.2384377   1.9719456
  73.5025864  27.9251537  31.9718914  73.8395386  28.7376766  32.3493843
  73.3888779  27.3416157  32.7220802  57.1898003  44.7090721  48.8133621
  57.5682106  44.1954460  48.0997620  57.9046936  45.2736053  49.1073990
  57.8531647  46.3564110  17.3993549  57.1461716  46.6809006  17.9571190
  58.0435486  45.4817772  17.7384758   9.7552652   7.8871245  85.1601334
  10.6496973   7.7853775  85.4855118   9.7563467   7.4412379  84.3131332
  74.1843262  32.4325256  73.5887756  74.3221054  33.1532784  72.9741516
  74.7613297  31.7363396  73.2747345  19.8496399  30.8732338  23.0301056
  19.4309406  30.9232426  22.1707897  19.8592358  31.7771626  23.3448296
  77.0988388  17.7782440   6.4015718  77.8903275  18.2389565   6.1231313
  76.7727509  18.2887459   7.1427093  10.8359165  24.4121284  79.1290512
  11.3137455  23.9366093  79.8086014  10.8212271  23.8129463  78.3827286
  42.6231918   0.3849826  55.9985809  42.2847710  -0.5095771  55.9602966
  43.2474747   0.4360672  55.2747726  60.6050339  21.8803501  38.8627663
  60.7733612  21.1405735  38.2791328  59.8311119  22.3055859  38.4933739
  36.5446396  29.3527222   9.9056091  36.3263702  28.4235878   9.8327923
  35.7920876  29.7413025  10.3515921  42.5939026  54.8045959  58.3190422
  42.9292297  55.3990555  57.6479225  41.7583351  54.4953041  57.9691925
  16.1768208  50.1779823  42.2958946  16.5114555  50.9955482  42.6644554
  16.4920216  50.1759911  41.3920822  67.7158813  56.6357765  71.7603989
  67.1872101  57.0305519  71.0669403  68.1800308  57.3730698  72.1568832
  82.8583755  10.9720554  55.1852226  82.8911591  11.9192762  55.0513191
  83.3152237  10.6070766  54.4273911  52.4032326   4.2950659  76.7865677
  52.1471977   5.1399665  77.1564636  53.0747757   4.5105476  76.1393967
  54.4858932  23.0207005  25.5020123  54.4627800  23.5398197  26.3058872
  53.5654755  22.8595734  25.2944050  50.9327888  69.4788742  16.3172493
  50.2467003  69.2483139  16.9436340  50.9624443  70.4354324  16.3358078
  20.3749561  42.0047836  47.1588860  21.2092113  42.0092278  46.6895981
  20.2485428  42.9136543  47.4312935  72.8254013   6.0447736   1.9183534
  72.6024704   5.4240699   1.2246239  73.0907898   6.8383317   1.4535232
  53.8344650  29.3619690  11.7618399  53.5992508  28.5200195  11.3719358
  52.9954529  29.7917576  11.9278994  74.8375397   9.8648605  50.9205284
  75.7865143   9.7412529  50.9406128  74.5932083   9.9927216  51.8371429
  56.6704559  42.6493759  62.7700272  55.7901878  43.0189819  62.8389664
  57.1606712  43.0642128  63.4798355  81.0612564  69.4529800  53.5073700
  80.1364441  69.3105164  53.3057518  81.3635559  68.6125717  53.8516922
  51.8643608   2.2895088  47.3039169  51.5946503   2.0661771  46.4130707
  52.6948891   2.7524595  47.1937599  49.4696465  38.6149254  70.5359726
  48.5213089  38.7441788  70.5227432  49.6837883  38.3216896  69.6503143
  44.7556458  65.6673126  25.5959797  44.6330757  66.3658295  26.2388496
  44.7645988  66.1178741  24.7515011  47.9969673  55.9852448  20.7719555
  48.3442764  55.1864014  21.1687679  47.0571556  55.9523659  20.9505787
  55.8540039   5.8385181  42.9891739  56.6787376   5.5030637  43.3406219
  56.0543594   6.7359509  42.7232704  15.3581829   9.7428780  21.0255661
  14.4851046   9.4492149  21.2858124  15.4143677   9.5308275  20.0938416
  52.6074791  54.6549072  38.3994026  52.4493370  54.5735779  37.4588661
  53.0822983  55.4808731  38.4919014  73.3624039  71.0882416  50.9363098
  74.3136368  71.0267563  51.0235252  73.1092072  70.2764816  50.4967995
  53.0704422  23.5712490  39.8612862  53.4858208  23.3602905  39.0251083
  53.7314949  24.0742245  40.3369522   3.8683188  29.2624416  42.3210373
   3.2776403  29.5865917  41.6411400   3.3391743  28.6417580  42.8220253
  12.0557241  44.7747879   2.5436401  12.3133354  45.6803818   2.7161653
  11.9120235  44.3971901   3.4113965  21.0193119  36.4153519  14.2486105
  20.9764080  35.8484306  13.4785509  21.2041569  35.8195801  14.9746399
  81.5266571  53.5053902  27.7316208  81.1434937  53.3417168  26.8698597
  80.7765884  53.6957016  28.2950134  29.6377697  55.2007027  31.0648022
  29.6595917  56.1267700  31.3059464  29.8981075  54.7393951  31.8620815
  81.7055588  51.8001823  10.9084282  81.4624634  51.9575615   9.9960861
  80.9639587  52.1319847  11.4145546  56.7096596   3.3003700   8.4977503
  57.4817924   3.6561940   8.9375610  56.6421165   2.4021966   8.8217173
  29.7270870  17.5397282  74.5924759  30.2984295  17.1767502  73.9156876
  29.8996487  17.0019684  75.3653107  10.2847052  39.2513008  46.0543671
   9.8140259  38.9076347  45.2950325   9.9652185  40.1487198  46.1481667
  84.7306137  50.1277084  15.7070370  84.9970551  49.2330589  15.9188013
  85.4014664  50.4400368  15.0998793  84.2991714  13.4641380  11.7722158
  84.0384979  13.9050426  10.9635849  85.2403488  13.6248579  11.8399639
  56.9654388  31.4524536  31.5858555  56.7994308  30.5670547  31.9094944
  57.9107361  31.4800797  31.4379330   2.9785285  27.6337204  72.0026703
   3.1972983  28.4148540  71.4945374   3.8139400  27.3454666  72.3704071
  80.6892853  48.4479904  63.0712204  80.4082108  48.6832542  63.9554596
  80.4548569  47.5241203  62.9832382  55.3184242  28.2471657  88.3333817
  56.0581589  28.7222214  87.9547653  55.6962433  27.7596130  89.0653458
  15.0772924  65.6201019  19.2236977  15.5374594  65.0086441  18.6487141
  15.0096083  66.4258347  18.7114124  54.8370705  41.8945351  25.5836010
  54.1426239  41.3237267  25.9124680  55.5413284  41.8096504  26.2262897
  22.9207058  52.2071953  62.3619118  23.8257599  51.9610901  62.1707535
  22.4344540  51.9619827  61.5747223  82.8099060  53.7771225  34.5934982
  82.1059799  54.2104950  35.0761108  82.7101517  52.8492050  34.8062057
  30.8645802  50.5714760  76.2631531  30.4846191  49.7209167  76.0431442
  31.0201855  50.5274696  77.2065964  67.6585922  69.9343338  61.7575226
  66.8382187  70.3745651  61.9798431  67.5821533  69.7432098  60.8227196
  33.7987442  54.2502708  59.9724197  33.5256996  55.0212898  60.4696198
  33.0254402  54.0074158  59.4632454  78.3752975  55.6449051  88.0676422
  79.0319901  54.9523735  87.9942398  78.0677338  55.7793236  87.1712265
   7.0536408  55.6601677  53.0592880   7.7485857  55.8442993  52.4273262
   7.4011950  55.9716339  53.8950081  44.4945374  42.9868011  53.1406136
  44.6223831  43.1961136  54.0658569  43.8712082  43.6436424  52.8303680
  34.4954071   8.2890253  43.9575958  34.6128883   9.1273899  44.4043350
  34.1066132   8.5196466  43.1138611  18.2914677  45.2993813   4.2404552
  19.2111816  45.1529999   4.0192575  18.3168030  45.7459984   5.0866971
  65.4025345   6.9034719  59.6419754  66.0266495   7.0850301  60.3446503
  64.6422424   6.5297780  60.0875511  19.5785007  22.0794487   7.1271825
  19.1520042  22.0751190   6.2702618  18.8639412  21.9511147   7.7510147
  29.2538586  28.0665779  74.2117386  29.6033936  28.2540226  73.3405762
  29.9141026  28.4100018  74.8137054  25.9274387  11.3292675  13.3705435
  25.7001362  10.5084505  13.8073788  26.6912575  11.6516638  13.8489504
  55.4873886  24.5308342  63.1810799  55.4622345  25.2077236  63.8574066
  56.3624077  24.1500473  63.2557487  36.0991478   1.6994840  31.0439682
  35.4309044   1.1665760  30.6130486  36.5727844   2.1173530  30.3247433
  75.8888550  42.3653564  61.8907814  75.3490295  41.6618233  62.2511482
  75.8540268  43.0566254  62.5519676  74.6067657   8.9173517  11.8915987
  75.1637497   9.6632757  11.6688995  74.5762329   8.3937416  11.0908918
  58.2696915  22.7380962  37.7801170  58.1773987  23.6504498  38.0545692
  57.3859024  22.4744873  37.5238800  76.2928543  52.2970810  10.5879717
  75.8267746  52.3968697   9.7578840  77.0136871  52.9246178  10.5348625
  79.7066269  53.3745499  72.2235489  79.8330917  54.2966919  72.0001907
  80.5889511  53.0473557  72.3987045  30.5281582  36.5699921  86.5056992
  30.8075600  36.1228447  87.3045883  29.7578850  36.0818024  86.2148743
  28.4791164  50.4757462  10.4444256  27.8804321  50.0999565   9.7989864
  28.7790012  49.7257881  10.9581060  45.2033501  37.7570267  81.1428909
  45.2458763  37.1368561  80.4150085  44.7370720  38.5131493  80.7863846
  58.2848473  59.4924774  40.0322571  57.4220352  59.4551125  39.6194649
  58.3053894  60.3447151  40.4675674   9.8664103  60.0996666   8.3136091
   9.5108967  60.9770203   8.4553518   9.6637058  59.6258965   9.1202602
  24.7026634  51.1244621  64.7975616  24.2457409  51.8948364  64.4599533
  25.2488937  51.4619522  65.5074692   3.4050784  63.1769218  11.3672485
   4.2240653  63.6475334  11.2122736   2.7959847  63.8498497  11.6712275
  53.4749413  42.1409035  88.7232590  53.0540085  42.8992767  89.1281281
  53.4048729  42.3020401  87.7823257   6.5560122  13.2007685  87.6338120
   6.8774681  13.0571737  88.5239105   5.6641464  12.8532972  87.6422806
  50.3242035  25.4580822  82.3985062  50.6075821  24.9780293  83.1766281
  50.0682945  24.7767868  81.7767487  62.8583069  69.3885269  32.7168846
  62.0547523  69.5335922  33.2163734  62.8353043  70.0527115  32.0279961
  12.8315935  56.1721497  34.1997681  12.1113558  56.6385765  33.7755775
  13.6158514  56.6558037  33.9404411  47.5039215   9.4713011  60.8737030
  46.6134834   9.3180437  61.1897202  47.4608994   9.2837229  59.9360504
  16.9786205  52.5379791  22.9839954  17.7570820  52.8659668  22.5338249
  16.5173168  53.3264160  23.2700024  11.4224157  48.0931664  70.7368927
  12.0567322  48.7821045  70.5388107  10.7988338  48.5062599  71.3341675
  53.0056992  31.0382004  21.2559719  53.7834778  30.5111790  21.0728416
  52.9592056  31.6576519  20.5277214  45.4640617  35.2497749  14.2353096
  44.8427582  34.6823273  14.6916132  45.2239151  35.1741257  13.3118172
  61.3418541  50.1209946  71.3168640  61.4152489  50.1981659  70.3656006
  61.2660027  49.1801186  71.4756927  58.0941734  59.1935234  56.0271835
  57.6624565  58.9023438  56.8303452  57.4051895  59.6366577  55.5320473
  28.4296627  42.9667435  48.8818817  28.3988991  42.3431129  49.6073990
  27.8329830  43.6680374  49.1433945   4.2525859  48.1083603  33.5624084
   3.5802057  48.4373741  32.9658470   4.8271527  47.5804405  33.0079651
  29.1670780   2.5855119  75.0747375  29.3342037   3.4478350  74.6943436
  29.6230812   1.9755006  74.4949265  44.4497147  10.5958967  88.2261276
  43.7705956  10.3013611  88.8329849  44.0095634  10.6401978  87.3772812
  47.7444305  30.1671696  22.9144897  48.6486244  29.9537392  22.6840248
  47.4625549  30.7802582  22.2355938  38.6379776  41.9714928  68.3636093
  39.1404343  41.3904800  67.7924728  38.9448891  41.7639122  69.2461853
  63.5758438  57.2695198  19.7902946  63.3819008  57.6501274  20.6468906
  63.7316895  58.0242691  19.2225819  62.0862846  50.2035522  14.8147697
  61.3542976  50.2999115  15.4239807  62.1992455  49.2574043  14.7238216
   6.2676640  60.0858002   3.7465565   7.1871004  60.3192978   3.8744192
   5.8039675  60.9230995   3.7588701  53.3882866  40.5456429  66.2175217
  52.9700813  39.8760376  65.6762619  54.1373329  40.8393593  65.6989746
   9.3190165  69.1154556  79.1003799   8.9166145  68.4070129  78.5979767
   8.6096411  69.4550858  79.6459732  60.5453796  17.4995098  22.9939442
  60.6817398  16.5533485  23.0430946  60.0876122  17.7180119  23.8056946
  66.0029449  21.6551781  70.4281693  65.5867920  22.5058117  70.5677032
  65.4030991  21.1875191  69.8470459  13.7321520  47.7053223  81.0952301
  13.5413437  46.9915962  81.7038498  13.9318180  47.2675438  80.2677536
  59.0429192  68.6087341  10.4946260  58.5248222  68.7483139   9.7019567
  59.5871773  69.3928909  10.5661964  15.4870043  57.8442001  58.5347061
  15.3797894  58.7947807  58.5011139  16.1497974  57.7016563  59.2104416
  82.2208099  25.2145061  25.2889061  82.6147308  26.0516052  25.5345154
  81.3637772  25.2188549  25.7151909  16.5937119  49.3608398  55.9349174
  16.7335548  49.5207977  56.8682404  16.0203094  48.5949211  55.9064598
  35.1126099  59.7635078  84.0995483  34.8967552  59.0570602  84.7082901
  34.2800369  59.9813271  83.6804962  43.2938004  63.3291435  30.0005016
  43.9780273  63.0511246  30.6094131  43.7558784  63.4884377  29.1774940
   2.8147399  33.0658646  67.3444977   2.1049664  33.2022209  66.7169113
   3.4934759  33.6854515  67.0767899   3.3335068  41.3943825  11.6722240
   2.4167807  41.6619949  11.7372389   3.7212441  41.6636086  12.5049353
  10.3606806  40.5390053  12.0987597   9.6754284  41.1899681  11.9474068
  11.0557919  40.7757874  11.4847660  80.5985947   8.8908443  62.3591309
  80.5711365   8.0718107  62.8537636  80.7110214   8.6172161  61.4487877
  83.4838028  23.5290661  75.9200058  83.7133942  23.3993816  74.9998398
  84.0067062  22.8802929  76.3910599  80.2508621   7.5703578  60.0705872
  79.8005142   6.8101158  59.7025528  81.1193085   7.5521436  59.6684608
   7.3721223   2.9733098   8.8640690   7.9429822   3.7341747   8.7571335
   7.2485461   2.8976898   9.8102407  61.6879768   0.1918306   1.8172598
  61.8771744   0.7266555   1.0462868  61.3535271  -0.6314388   1.4614482
  75.5583649  21.8490124  51.1473198  75.9258804  21.0330906  50.8075562
  76.0793991  22.0399036  51.9272614  76.8442993  58.6920776  56.7733192
  76.9306412  58.5785065  55.8268089  76.9519043  57.8107986  57.1310959
   8.4816685  66.7496872  66.5008850   9.1987247  67.1482162  66.0076904
   7.8656492  67.4670334  66.6497574  16.8668652  40.0289383  70.4469147
  16.6015301  39.1418419  70.6895752  17.7292023  39.9197960  70.0460434
  22.3498688  13.8300533  82.4803848  22.6316376  14.5291843  83.0703506
  21.4373035  13.6680689  82.7195892  63.7020493  54.9271049   3.9322388
  63.4392433  55.7903900   3.6130116  63.9040756  54.4299431   3.1396189
  15.9157057  58.1270790  28.4022465  15.2379713  58.6039581  27.9231930
  16.6138668  58.7689171  28.5320301  79.8836136  55.5146942  33.6046181
  80.7226715  55.9724960  33.6558228  79.7671585  55.3316193  32.6723366
   2.7933078   9.7216177  53.0652122   2.7740734  10.4499903  53.6859665
   3.1571088  10.0990334  52.2643127   2.1886351  60.7539291  63.5073318
   2.0418708  61.4612656  64.1353149   2.4792888  61.1975594  62.7104988
  61.9699821  58.1348305  64.2602005  61.8344879  58.9567909  64.7316360
  61.2497597  57.5730400  64.5463867  76.0178757  51.7492752  63.5228043
  76.6604156  51.7100754  62.8143959  75.1716156  51.6648979  63.0835304
  29.3879871  36.3461113   8.6558781  28.5130424  36.2006683   9.0158072
  29.7836723  35.4749489   8.6287527  17.4764500  56.5653534  45.6668205
  17.7208195  56.7247849  44.7551765  18.1146870  55.9229736  45.9770393
  25.0864735  64.0050278  37.8202324  24.3069077  63.4696350  37.6723709
  24.8684101  64.5399704  38.5834618  60.3283157  44.0465393  31.1909866
  59.8671379  44.8844376  31.1526089  60.8545609  44.0259628  30.3916912
  74.6964722  40.7624893  48.8683128  75.2034454  41.3803596  48.3415794
  75.2966156  40.4911346  49.5628815  37.7875748   6.6641040  19.7520237
  38.1520195   7.1471329  19.0103397  37.0934792   7.2305946  20.0890026
  66.0069199  43.5983963  84.6775360  66.0564194  42.7226295  84.2943802
  65.3970413  43.5055084  85.4094162  21.6077347  35.3911400  16.8016891
  22.1777935  35.9546852  17.3248386  20.9064350  35.1369095  17.4015026
  64.4839478  13.2983665  87.3596191  64.4746628  12.3412132  87.3610916
  64.9577560  13.5320654  86.5614166  44.8877792  23.7857094  19.5139179
  44.8823013  23.2508030  20.3076916  45.4216461  24.5468502  19.7416935
  35.2067490  58.0575638  86.0778122  35.5327415  57.1583366  86.0411301
  35.7708931  58.4909058  86.7182693  55.7351990   0.3881908  75.3635483
  56.4888306   0.9783283  75.3613968  54.9752579   0.9701890  75.3648376
   4.4078193  51.9078560  77.3022079   4.0477672  52.4503517  78.0038376
   5.1707039  51.4836082  77.6949615  35.5745392  27.7356377  22.2575283
  35.2237358  28.3436127  22.9083233  34.8485222  27.5885353  21.6513195
  49.8749542   4.0589452  84.2544937  50.0243912   3.5512884  83.4568787
  49.6299210   4.9297957  83.9417496  73.3460999  11.0642557  42.0661316
  73.6588287  10.2441998  41.6841125  72.6841660  10.7947645  42.7028847
  55.2552948  31.7171497  74.9420242  54.6262016  30.9984512  75.0048370
  54.7163086  32.4956932  74.8020477  61.2753448  53.0113029  74.5562515
  61.2219696  53.0155640  75.5119553  60.7872887  53.7889900  74.2856369
  85.9607315  45.1304512  17.9406357  85.3099670  45.6534042  18.4088802
  86.7303696  45.6971054  17.8878002  42.4930420  59.6080856  58.0328445
  41.7070160  59.8668251  57.5517502  43.2160683  59.8222885  57.4432831
  22.0966854  33.4375725  66.8419189  21.5402737  32.7619553  66.4543915
  22.8810997  33.4455185  66.2934113  58.8979836  46.5426140  49.8471527
  59.0092278  46.4810791  50.7958755  59.4140015  47.3082504  49.5946503
   4.9539032  52.1366653  14.1267290   5.3873739  52.9898567  14.1067362
   5.6373472  51.5148659  13.8767195  67.5345917  39.8889465  16.0942440
  68.4876099  39.8897133  16.1836166  67.3402100  39.0872650  15.6087036
  60.4991455   4.8034039   2.2029281  61.1510124   4.7504168   2.9018507
  60.4268188   5.7388372   2.0132811  37.0348282  45.6617699  60.8353844
  37.6478043  44.9293671  60.7715416  36.2113762  45.3156052  60.4913902
  43.5468330  26.9730911  59.9332619  43.1525688  27.4019699  59.1737556
  44.3152504  27.5061550  60.1372375  43.5822258  44.6381836  76.8900681
  42.8098640  44.6557312  76.3249359  44.2823982  45.0050049  76.3502197
  53.0293846  12.9711399  59.6411552  53.8238602  13.1229897  60.1529961
  53.2572174  12.2509232  59.0532684  78.7520752   6.3505745  86.3460846
  79.3928452   6.4843416  87.0444794  79.2098618   6.6131463  85.5475159
   0.1990856  39.2560654  20.4649982   0.8339731  39.9574051  20.6108360
   0.0549687  39.2564087  19.5187092  86.6115265  26.3524456  67.2892532
  85.7403488  26.1398048  67.6240005  87.2101517  25.8545113  67.8459778
  70.1503601  60.6306038  37.2561874  70.8690338  60.1067009  36.9022598
  69.4162064  60.0194969  37.3177948  81.2509384  32.8718719  86.2493820
  81.3500214  33.7670555  86.5735168  80.4188156  32.5746193  86.6174011
  85.3453140  53.5784874  50.7502213  85.1764526  52.7572517  50.2883911
  86.2917480  53.7028809  50.6793861  40.1042519  28.6234760  45.3464012
  40.6093788  29.4230099  45.4941368  39.1918755  28.8942242  45.4488258
  69.7554855  22.8380890  70.2605209  69.3062210  23.0244064  71.0849457
  70.6470108  22.6062603  70.5206604   3.1606696  56.6362724  74.6081619
   2.3011689  56.2905273  74.3674393   3.2679725  57.4139366  74.0604782
  69.7425232  32.0493622  77.8721008  69.8768616  31.1706562  77.5170441
  68.8222580  32.2420883  77.6926498  66.0932388   8.0573425  83.0621872
  65.1793442   7.8732948  82.8450394  66.5945282   7.4336758  82.5368500
  36.5912819  61.6654053  37.2230606  37.3432655  61.2505417  37.6457214
  36.5695763  61.2843628  36.3452415  50.0850754  42.5549240  73.5508652
  50.3477173  42.0870132  72.7582016  50.8981209  42.9322319  73.8867645
  11.6498795  51.9102478  72.6302032  12.2943735  51.8580055  73.3359909
  11.8121061  52.7598038  72.2201233  27.5672150  12.5447216  31.7800255
  27.7992897  11.6435242  31.5559368  28.0268078  12.7129192  32.6026535
   8.4430552   8.1172800  43.6984978   8.4513569   8.6590633  42.9094276
   7.7942200   7.4377193  43.5156250  60.7910461  70.7732849  41.1221619
  60.6735611  69.8235092  41.1033401  61.5931702  70.9054337  41.6274986
  70.9579620  44.1843948   3.5446525  71.2737656  43.7753067   2.7389548
  70.6043854  45.0279045   3.2623291  19.1696529  37.2871132  87.7242661
  19.1400166  37.1400795  88.6696396  20.0771255  37.1031609  87.4815979
  53.7812576  54.6683197  59.6089516  53.3315735  55.1295166  58.9009171
  53.5716209  55.1731377  60.3947258  21.7540112  15.4953098   6.3639545
  20.9137497  15.9524965   6.3981981  22.1049213  15.7036381   5.4981070
  71.6140976  13.4803152  30.3398857  70.9541626  13.5648842  29.6517181
  72.0568008  14.3288879  30.3527718  15.9294395  53.0337868  78.5058746
  15.5286884  53.4698524  79.2578583  16.8671112  53.0381317  78.6981888
  63.7886391  18.9348049  47.2546883  64.1056900  19.7258015  47.6906166
  63.8511543  18.2518806  47.9224739  57.6470566  69.0422974  80.6205673
  56.8676949  68.5101700  80.7807999  58.2717896  68.4375839  80.2202301
  30.1503601  66.5958633  41.1259270  29.9817829  66.1234741  41.9411926
  30.9834156  67.0427933  41.2759361  61.0054169  25.8985958  42.7352867
  60.7165108  25.4191780  41.9588051  61.1228905  26.7985649  42.4311752
  50.2674904   3.3863704  38.4512482  50.0681725   4.1279011  39.0227699
  49.6444511   3.4663937  37.7289963  51.7797966  30.0677700  14.8502083
  51.2969284  29.6186466  15.5440092  52.5622559  30.4076366  15.2843475
  14.9959288  18.9383106  80.9385452  14.4645033  18.5201759  81.6160278
  15.8934269  18.8753471  81.2652893  84.8323822  49.5966377  33.7991791
  85.3185577  48.9014168  33.3558540  85.1883621  50.4073067  33.4354095
  80.6974487  60.1552124  68.2270508  81.1217346  59.2976646  68.2557602
  80.3231659  60.2666283  69.1009674  68.9285049  22.6926136  27.5793247
  68.6982651  21.8810978  28.0317211  69.8856506  22.7017002  27.5759850
  76.1623535  70.1666946  50.6756248  76.9150238  69.6665497  50.9911804
  75.9865265  69.8109131  49.8045731   3.1146770  19.0968819  12.6941319
   3.7954845  19.4259739  12.1072483   2.3348708  19.0306072  12.1430035
  63.0065994  17.4083614  64.5464630  62.8487244  18.3069611  64.2569351
  62.4623413  16.8718987  63.9700699  76.8355637  51.2392578  52.9895706
  77.0170135  51.4470177  53.9061661  75.9162140  50.9728699  52.9818230
  55.0549088  36.9897041  84.9069519  55.7604103  37.0111160  85.5535202
  54.3066139  37.3831253  85.3558502  84.9215927  16.0707378   1.0197012
  85.5946274  15.4233274   1.2297666  84.5823822  15.7958326   0.1678823
  43.1814995  41.3433685   4.3813858  42.9928284  40.8162498   3.6049941
  44.1207619  41.5200500   4.3284726  17.1430283  48.4015427  14.4129496
  17.8849125  48.0767326  13.9027157  16.9045258  47.6694031  14.9815626
  31.7931957  62.0766029  43.9575081  31.8351173  63.0327072  43.9758339
  31.6257000  61.8617439  43.0398979  35.3119164  17.5326462   5.0554538
  35.3395462  18.4471264   5.3368683  35.5483170  17.5601158   4.1283112
  11.3274193  59.2207298  79.4673386  11.2023859  59.0694275  78.5304794
  12.2678175  59.1069145  79.6049271  37.6108246  36.4119911  81.5888062
  38.0315819  36.8733101  80.8632889  37.2845764  37.1085739  82.1585159
  61.8220558  61.6373329  81.2293320  60.9521370  61.6127510  80.8307495
  62.4192162  61.4155922  80.5148697  61.2510872  10.3718071  40.6169357
  60.5700302   9.8795881  41.0753136  61.8098450  10.7141962  41.3146400
  23.7786999   9.4797888  17.8518429  23.2173157  10.0890493  17.3723850
  24.6141891   9.9393101  17.9356823  81.0150909  52.6625862  31.6010799
  81.3420486  52.4372215  32.4720230  80.6180344  51.8539047  31.2776527
  11.8446579  12.4988623  25.9127331  11.0229912  12.1085577  26.2106552
  11.9636993  13.2645664  26.4746571  73.7172623  23.3024979  68.8043594
  73.2894669  24.1239586  68.5626450  74.4011383  23.5613155  69.4220581
  20.2201595  62.7839928  80.7080231  19.8379364  63.6564941  80.6137924
  19.6943169  62.2286987  80.1323700  84.6156693  33.6821251  69.7949371
  84.1949463  32.9533386  70.2511063  84.0722427  33.8254280  69.0200882
   8.3603754  66.5429230  38.5306396   8.1830492  67.3988876  38.1406364
   8.2115393  65.9200897  37.8191872  24.4093342  11.8566895  45.3093376
  23.7827377  11.3863544  45.8592377  24.3362923  11.4384327  44.4514542
   1.2900121  38.2314415  34.1499214   0.5484277  38.8305664  34.0642929
   1.2990791  37.9924736  35.0767670  24.8900204  62.3415604  65.8129120
  24.1281033  61.8760300  65.4679565  25.3430672  61.6931419  66.3519287
  74.2950668  23.6529312  82.8326569  74.6531754  22.7888298  83.0359344
  75.0416260  24.2465725  82.9131317  36.3649330  18.8402939  61.9824753
  35.4478035  18.5935574  62.1017685  36.6497383  19.1298981  62.8492203
  70.8599548  57.3011322   5.2019725  70.8064117  57.0411720   6.1216388
  70.3488388  58.1088562   5.1512494  19.3005848  57.2900734   3.0276065
  18.6260357  56.7952538   2.5624511  20.1107216  56.8098221   2.8565269
  66.2035599  54.8110466  24.8345070  66.0079193  55.5880432  25.3581772
  66.5790176  54.1899223  25.4585762  56.8800850  24.9708996  28.3077145
  56.7937393  25.3515186  27.4336987  56.1401062  24.3681202  28.3806286
  79.0498962  32.0341568  87.3896790  78.8851700  32.6175346  88.1304703
  78.9094391  31.1550236  87.7412872  54.5589409  14.7537928  28.1559238
  53.6791191  15.0929365  28.3206310  54.9650879  14.7110062  29.0216293
   1.8535883  64.9085846  68.8504333   2.3061764  65.2261810  68.0690689
   2.1281548  63.9952087  68.9316254  19.0476933   0.4907761  29.9013634
  19.3650570   1.3936958  29.8855934  18.7922306   0.3108546  28.9965992
   0.6982402  19.7513828   8.7441320   0.2696922  20.1561527   7.9899836
   1.5657789  19.5053329   8.4230881  16.2697296  69.0392456  81.4498062
  17.1709747  68.8367844  81.7008057  16.2149029  69.9934006  81.5029221
  69.5241241   5.2427015  17.8056793  69.0861053   4.4330964  17.5431709
  69.2594376   5.8831701  17.1453953   0.0258396   5.7164779   0.4886048
   0.9179574   5.4039159   0.3380636   0.0346887   6.6230750   0.1816265
  44.2369537   7.2621365  87.7728882  44.8020897   7.3068976  88.5441513
  43.7091827   6.4750991  87.9080276   0.7499251  18.6599865  85.4658508
   0.9948162  19.1228485  84.6645889   1.2222446  17.8289127  85.4162445
  69.1681213  58.9741898  66.9899445  69.5909653  59.6877670  66.5121994
  68.4158859  58.7358971  66.4481049  57.7485924  62.8261147  28.4684353
  58.1014366  63.5733986  27.9854259  58.0670891  62.9471092  29.3629475
  11.1230307  38.0557556  56.0931091  10.7800407  38.4472580  56.8964233
  11.5074968  37.2261276  56.3761978  40.8323898  39.8249702  24.8407574
  40.7465668  38.9583015  25.2379417  40.2102661  40.3712578  25.3211327
  16.5023460  55.6070900  48.8776474  16.4024658  56.5191879  49.1502991
  16.2798424  55.0983086  49.6573067  66.7912292  52.9234161  33.0334969
  66.5108109  53.5400810  33.7097511  66.5439453  53.3429070  32.2094154
  85.8525772  15.0242376  45.5476532  86.2026062  15.2082787  44.6759644
  86.2516098  15.6873770  46.1109047  68.2461014  58.5906296   2.9541261
  69.0074997  58.9737892   3.3896623  68.6045609  57.8719254   2.4333546
  70.2340088   2.0348990  73.5173264  70.1042404   1.0890474  73.5862961
  69.4547043   2.4138510  73.9239120  38.5692711  51.2681656  86.0069275
  38.2078362  51.6132622  86.8233261  39.2819672  51.8684349  85.7878952
  35.3370171  30.9807205  71.0304871  35.7198486  31.5804138  71.6708374
  34.6076546  31.4701862  70.6501160  36.4008446  40.6218414  74.2041016
  35.6789131  40.3177605  74.7541733  36.9209023  41.1825142  74.7797928
  59.4288826  48.7422104  37.8324089  60.1924133  48.6946182  37.2570915
  59.4917336  47.9590111  38.3791046  45.4758301  52.4507332  10.9465637
  44.5472145  52.4706535  11.1778746  45.5290222  52.9418259  10.1266670
  63.3856316  51.0564423  77.5760040  62.5482063  51.4597397  77.3472977
  63.1948166  50.1197548  77.6253662  63.8353386  47.1453247  23.6115055
  62.8906784  47.2992516  23.6239567  64.0112686  46.8066063  22.7336941
  65.9832764  70.4925308  53.7558975  66.3596344  69.9760971  54.4685593
  66.6840363  71.0914841  53.4981728  12.2643290  62.3031082  27.1508904
  11.9239693  61.4766769  26.8082600  12.8467426  62.0445328  27.8651485
   8.8685513  22.2729511  74.8198013   9.6424179  22.5891743  74.3535767
   8.7317057  21.3872299  74.4836349  80.1244431  38.8280334  19.8102703
  80.9949341  38.4352112  19.8748703  79.5408249  38.1844368  20.2120228
  77.9757385   7.6459618  37.2983818  78.3405228   8.3623085  37.8180084
  78.5003586   7.6395116  36.4977798  22.6621990  20.1913643  81.9049759
  23.5131187  20.5662060  81.6776886  22.0296288  20.7222557  81.4209900
  20.2760105  17.5511799  13.0843601  21.1551247  17.6116848  12.7105589
  19.8349285  18.3478031  12.7892847  86.4187088  21.3681488   5.7171907
  85.9055023  20.6026459   5.9757586  86.2787323  21.4426308   4.7732143
  51.8916283  55.5857315  53.1669121  51.3872948  54.8330460  53.4756927
  51.7416267  56.2618790  53.8276367  58.0854683  18.7351894  86.2056580
  58.6356697  17.9699974  86.0383682  58.6532516  19.4833965  86.0211639
   9.8063450   4.4458652  64.4078903   9.0686445   4.6223412  63.8240395
   9.4024820   4.1212645  65.2127304  49.5227127  41.0739250  78.0685196
  49.9258499  41.7312393  77.5013733  50.2569962  40.5473671  78.3844223
  81.6329803   8.6479654  65.5640030  81.8852844   8.1698751  66.3539429
  81.2432251   7.9833450  64.9960175  44.0715637  62.8776207  48.7237091
  43.3614426  62.8089790  49.3618660  44.6332474  63.5738220  49.0643616
  27.7976933  47.2429237  36.9301300  27.6475182  48.1147423  36.5646019
  28.2427273  46.7635956  36.2312584  70.8714600  16.1390133  86.2689972
  70.9350967  15.8552551  85.3570404  70.5322876  15.3745394  86.7345886
   7.0954313  12.7935562   4.8077989   7.7797027  12.2225485   4.4585795
   7.4687977  13.6734781   4.7571206  50.5054970  62.7232666  77.5944595
  49.9097900  63.4625702  77.4728241  50.7180214  62.4381828  76.7057571
  44.3271027  65.5665665  37.0681229  44.4395943  66.4858856  36.8263931
  43.4210663  65.3662720  36.8331680  84.9896774   0.4536771  26.4516602
  84.4981079  -0.3055051  26.7650757  84.6353912   1.1905442  26.9493942
   6.1694736  48.9555092  19.6882954   6.4411254  48.3462105  19.0018597
   6.0313191  49.7851105  19.2312317  77.8258743  52.5761566  44.0089569
  78.2441559  52.4676056  44.8630600  76.9902344  52.1166573  44.0913734
  73.0070877  36.2664146  53.8870506  72.0734177  36.0588341  53.9245796
  73.4016113  35.5160103  53.4426651  65.5196838  66.0363541  47.5396881
  65.3307419  66.0341034  46.6013260  65.1262360  65.2267227  47.8651695
  32.8508034  36.9145584  72.3441162  33.6958084  36.4832001  72.4711075
  32.6029892  37.2177200  73.2175674  27.1878910  55.2258186  58.0446091
  26.8490887  56.1187515  57.9804764  27.5717335  55.0529671  57.1849480
  76.7268219  11.8505383  80.3333359  76.9518204  12.7033405  79.9614029
  75.7698135  11.8416481  80.3504028  65.7036667   6.3496275  43.4649696
  65.9804077   6.4487157  42.5540199  65.9843140   5.4667706  43.7058678
  40.6159058  50.4030075   4.2258086  40.3326454  50.3327522   5.1374335
  41.5174141  50.7203369   4.2788939  79.9839783  56.0454788   1.1263939
  79.3213959  56.1987648   0.4528020  79.5801392  56.3594742   1.9354386
   2.9612529  62.2481232  22.8750191   3.5033727  62.5800133  23.5906906
   3.5536146  61.7002983  22.3600159  54.2012100  42.2092857  72.4845505
  54.5876389  42.8170090  73.1150818  54.2582359  42.6663589  71.6454620
  73.3095169  30.6645584   3.0247610  73.5410843  30.4568748   2.1195118
  74.0802536  31.1134300   3.3721960  43.6739655  46.5435448  69.4901505
  44.2164574  46.3953209  68.7155762  42.8105927  46.2106857  69.2451401
  58.5968552  18.8251572   0.7371423  58.5574188  19.7084007   0.3703212
  57.7812805  18.4116497   0.4541590  73.4687271   5.6607213  44.3777351
  73.3567123   6.3487530  45.0337067  73.7727661   4.9020386  44.8759193
  34.3692245  28.4112949  74.4074097  34.1816635  27.8177528  75.1345673
  35.1683655  28.8676491  74.6707535  33.9161720  56.5662689  82.1610870
  34.1085281  55.9508781  82.8685684  33.6002731  57.3523331  82.6066666
  51.8194008  16.1507378  49.5957718  51.9139786  16.6030846  50.4340286
  52.7106285  16.0969868  49.2507286  33.3784561  62.5515480  28.0329304
  32.4859047  62.3453827  27.7553024  33.6216965  61.8297882  28.6126957
  41.6829453   2.9767365   0.1091263  42.5511513   2.6898859   0.3922625
  41.0770416   2.3943551   0.5673232  60.2332268  51.6013489  22.5913830
  60.3897209  51.8305054  23.5074787  59.3923073  51.1441536  22.5991402
  40.3834267  21.6310806  79.7069702  41.0781937  21.8860321  80.3140411
  39.6521912  22.2096748  79.9231949  44.5834846  58.6458664   3.3792531
  44.8140640  57.7255096   3.2527347  44.3110008  58.7007866   4.2952056
   6.5273151  45.4717026  55.7984200   6.5106230  44.6991501  56.3633194
   6.4145503  46.2092972  56.3979759  82.9610748  30.0926743  47.4677658
  82.8338165  30.6830368  48.2104034  83.5764160  29.4333916  47.7885971
   9.1770868  59.4418945  43.8080177   9.3757038  59.5866585  42.8829117
   8.3778334  59.9452820  43.9630165  84.8221130  19.8492241  18.5532970
  84.6217041  19.6765003  19.4732075  84.9908371  20.7907600  18.5176182
  80.1237259  20.0388432  12.1306152  79.4055328  20.0700550  11.4985895
  79.6945953  20.1002312  12.9840250  60.2453880  41.9661903   4.0418324
  59.3195267  41.8125229   4.2299738  60.2512627  42.7499313   3.4923313
  61.8845673  30.9807091  74.6459656  61.2739296  30.3239403  74.3112869
  61.5005188  31.8185406  74.3875504   5.0307841  70.6492920  64.2041626
   4.6313920  69.7922668  64.0551147   5.9666924  70.5049133  64.0646591
  59.3557434  49.0047607  13.7697582  59.8920021  48.3127632  14.1567974
  58.5197792  48.9470100  14.2324257  46.5368919   2.2130644  73.6847534
  47.3726768   2.6789100  73.7108307  46.0015373   2.6441202  74.3509521
  69.8891754  34.4102707  72.1802902  69.1961365  34.5911446  71.5453033
  69.5210876  34.6829834  73.0207520  61.9019394  27.3106060  38.2109108
  62.7897873  27.6639175  38.1549606  61.7703476  26.8602772  37.3765717
  42.3516426   0.1580032  36.8849564  43.2662582   0.2533464  37.1506996
  42.1722374   0.9379582  36.3598709  66.5477448  10.2567854  85.1045990
  66.3425827  10.2966757  84.1704941  67.2472916   9.6065817  85.1686249
  45.8551865  68.4169922  59.9463043  45.1677742  69.0226746  59.6690903
  46.6673203  68.9130249  59.8432274   3.2982938   2.3309789  32.5194664
   3.2961500   1.4600972  32.1222343   4.0167723   2.3042331  33.1513710
  83.1530533  45.1951103  54.3472595  83.1810989  44.4070969  54.8899231
  82.2265015  45.3064537  54.1343422  53.5731049  69.5475235  27.0081501
  53.7826958  69.5318985  26.0743103  52.7869682  70.0903091  27.0681324
  42.0104408   9.3411093  48.0420113  42.8370819   9.7306271  48.3269157
  41.7626266   9.8453007  47.2670212  60.8614693  29.2185688   5.6368032
  60.7163429  28.5047455   5.0158148  60.5678101  28.8679371   6.4776683
  47.9901161  55.4953613  54.0678864  48.1001434  56.3849030  53.7319679
  47.4848480  55.0446243  53.3913002  29.1384468  38.7193031  64.3930206
  29.9241943  38.8205757  64.9302063  28.4400539  38.5379257  65.0219727
  61.7968178  46.4480591  43.8143806  61.1628914  46.3161278  44.5193367
  62.4699097  45.7856255  43.9704704  77.0937881  49.3818626   9.0647402
  76.2450790  49.6698036   9.4009275  77.2489700  49.9360809   8.2998905
  52.1645355   4.0976291  79.5200272  52.2306976   3.8791668  78.5904465
  52.0713463   3.2520113  79.9587555  65.3492203  11.8058815  22.7305946
  64.9693832  11.9935417  23.5889320  65.0796432  12.5432367  22.1829929
  21.8643780  65.5526199   9.7104225  21.5296593  64.7795563  10.1649227
  21.4879360  65.4958420   8.8321857  21.6853352  42.8358002  79.9974289
  20.7690773  42.5772247  79.8982162  21.7584877  43.1128044  80.9107437
  13.3901186  50.8785629   6.2407541  12.8728638  51.2307816   5.5164466
  13.7556763  51.6510544   6.6718674  34.3001671  47.8638458  35.6832962
  34.4458084  47.0228691  35.2499580  35.1617851  48.2806854  35.6929779
  16.5924129  65.3938904  27.4090214  16.0875950  65.3244400  28.2193108
  16.3007412  66.2159500  27.0148315  47.8964043  22.5848160  85.1354752
  48.0029373  22.7809277  86.0662918  48.6800690  22.0860310  84.9045715
  16.9856796  50.6778069  65.8493958  16.8889503  49.7761192  65.5430679
  17.0953846  51.1920319  65.0495453  75.0795822  41.3054199   8.4629869
  75.3068161  41.9876823   9.0947447  75.4394455  41.6181259   7.6329584
   1.6740485  -0.3738697  38.0421143   2.4629500   0.1403829  37.8706207
   0.9525268   0.2364594  37.8900070   7.2674952  42.0155525  16.4197102
   6.8708420  41.2099113  16.0882893   6.7116108  42.2709541  17.1559143
   7.4641767  56.3275833  66.1806259   6.6218147  55.9375381  66.4141312
   7.9268241  55.6343651  65.7098465  19.4648323  66.9992447  34.1736488
  19.4383259  67.9413300  34.0062675  19.0576859  66.6071854  33.4011536
  15.8388882  26.6572132  53.7834930  16.4530144  26.4708977  53.0733032
  15.1255016  26.0324192  53.6533318   3.4831798   1.5030349  69.0453720
   3.1005323   2.3798862  69.0146332   3.5841217   1.2534255  68.1268234
  60.8113480   7.5781355  88.6070251  60.5126648   7.6968722  89.5086441
  60.3299675   8.2369251  88.1065216  11.3906145  55.5205536  13.9298706
  11.9598980  54.9286766  13.4381094  10.8126917  54.9403152  14.4254131
  50.5305634  34.2979965  12.9531345  51.2121315  34.1132851  13.5993366
  50.2202301  35.1755142  13.1765022  79.0979462  65.0588379  64.7996140
  78.1780319  65.2389526  64.6058350  79.0723419  64.4444504  65.5331726
   9.0467958  46.3002167  54.9907150   8.1761723  45.9558792  55.1899033
   9.5071220  45.5664749  54.5833359  20.9631824  28.0909595  10.2942419
  21.4789143  28.5345917   9.6208601  20.1090374  27.9481812   9.8864632
  46.5919838  11.9674969  14.9848213  45.7214622  12.0432444  15.3755703
  47.1636887  11.7356882  15.7167025  38.2757835  27.4518890  14.7139444
  38.3793793  28.3896618  14.5524445  39.0840530  27.0609779  14.3820944
  38.4964714  35.5587692   5.0376587  38.9103584  34.9404984   4.4354367
  39.1985931  36.1618195   5.2817717  19.2698402  17.0005760   5.7926054
  19.3159657  17.9303474   6.0153828  18.5875778  16.6505699   6.3655343
   1.9791509  39.6978302  66.3367233   1.3416791  40.0180435  66.9749451
   2.4111409  40.4880829  66.0124969  71.7580032  68.7862015  69.2685165
  70.8631973  68.4566193  69.3517075  72.1814880  68.5396271  70.0907669
  35.0981674  58.0668564  25.5678463  34.4673080  57.8372459  24.8855534
  35.8731766  57.5436172  25.3633575  75.7753601   3.9920924  23.8359623
  76.6694717   4.0590310  24.1710911  75.2354736   3.8693302  24.6167831
  83.7941971  55.8815842  78.4715195  83.1151123  56.3060379  78.9958420
  83.3661880  55.6864662  77.6378708  80.0602951  21.4192829  20.3050728
  80.2095184  20.5217991  20.0076046  79.4981232  21.3263378  21.0741997
  45.0799370   0.2930500  65.2377853  44.7385101  -0.3232797  65.8857040
  46.0013618   0.4019155  65.4730606  25.0019550  22.8593311  46.6840248
  24.4615211  22.1022873  46.9099617  24.9569016  23.4244995  47.4552536
  20.8300304  27.7887878  69.6999588  21.6993771  27.4148636  69.5562668
  20.9996777  28.6472492  70.0878983  13.8548288  38.5705719  19.9797592
  14.4018393  38.0850792  19.3622589  13.7809715  39.4452133  19.5979424
  36.3725433  45.6034966  52.7093964  36.1032639  46.3236961  52.1392746
  37.3241425  45.5649910  52.6134186  45.9614067  32.9999580  30.0860424
  46.6513290  32.9723053  30.7489738  46.3463707  32.5712318  29.3216934
  75.6456680   4.3730168  62.4512901  75.0009460   4.7334428  61.8424721
  75.2441177   3.5670512  62.7759552  19.3550282  14.5273762   1.3637538
  18.9244766  15.3800755   1.3024291  18.9090538  14.0852814   2.0861731
  26.2397327  11.1407509  17.0922184  26.4840527  11.9363432  16.6193829
  26.9677753  10.5383329  16.9396458   1.6762264  60.7261696  41.4184914
   1.6122838  61.3804054  40.7227058   2.5264521  60.8919678  41.8257523
  82.7414474   9.3467627  14.8274355  83.1296844   9.8165388  14.0893211
  82.1637192   8.6998796  14.4224520  83.0237885  60.0618744  66.1180573
  83.0653763  61.0003052  65.9340744  83.5417633  59.9509201  66.9153137
  29.4087811  12.1043854   0.2900071  29.5388203  11.5517445  -0.4806485
  29.8011589  11.6090050   1.0089436  50.3462372  67.0856094  -0.0140784
  49.7438202  67.6231079  -0.5283006  50.3002930  67.4523239   0.8688948
  33.7208862  41.1607018  61.9317780  34.2021370  41.4831734  62.6937752
  34.1595116  40.3419876  61.7003632  61.7863388  33.3443451  67.8366089
  62.3126259  33.9399490  67.3032074  61.7884598  33.7386589  68.7088165
  36.0936737  64.8809967  44.4054985  36.4101982  64.1149521  44.8842735
  36.3001976  65.6218033  44.9753952   1.9858663  10.8843908  62.0758591
   2.8120325  10.4016371  62.1009636   1.6321669  10.7086420  61.2039413
   1.2162131  69.1626816   1.1295735   0.6683791  68.4085999   0.9116924
   1.5428996  69.4733505   0.2851836  33.2952118  47.6578140  29.1217632
  33.5023117  47.7823448  28.1955700  33.4641724  46.7294121  29.2822456
  26.9549294  46.3808937  71.4150543  26.0525589  46.1505470  71.6361923
  26.8819828  47.2127190  70.9471054   0.4048538  24.6323204  85.6560211
   0.3159763  23.6832809  85.5685196   0.7678857  24.7590714  86.5325928
  59.1710968  64.3071899  47.4729004  58.7477379  64.4708481  46.6301575
  59.9772224  63.8418541  47.2496109  54.6005592   9.1502886  48.6201706
  54.0197067   9.8942719  48.7793274  54.0291901   8.4738235  48.2566223
  65.7258377  58.8908577  73.2243576  65.5782242  59.8221092  73.3893127
  65.5606232  58.4691162  74.0676041  39.0345421  48.7031631  10.5088253
  38.1379395  48.9140129  10.7693577  39.0165901  48.7218094   9.5519753
  66.9057083   3.7234564  40.2896957  66.1071014   3.9763710  40.7528381
  67.6048584   4.1945591  40.7429886  32.2488060  39.1389160   8.8170586
  32.2504082  39.2832489   9.7633123  32.9887199  38.5514984   8.6631203
   1.3197652  69.0071182  27.9051037   0.4160015  68.8119202  28.1527729
   1.2505598  69.7643814  27.3237286  63.4565315  61.9888077   5.2324648
  63.1941872  62.8133621   4.8231792  63.5482864  62.2010155   6.1613245
  17.6365891  46.1565170  10.2660398  16.8496475  46.3805504   9.7692909
  17.3104534  45.6791916  11.0289469  59.5778542  53.9503822  10.7814960
  59.9122200  53.0561905  10.8511248  59.4407806  54.0824699   9.8434153
  47.2637138  67.1120682  11.6681633  46.8285522  67.6176147  10.9816551
  46.5775223  66.5443878  12.0190296  69.7814636  24.1094894  45.8054924
  69.1987762  23.4277363  45.4709625  69.5080414  24.9042416  45.3474121
  67.0480499  45.6613274  37.5007591  67.5462189  45.5857239  38.3146095
  66.7671661  46.5760498  37.4759674  86.2765732  66.9169693  10.3377218
  86.7318878  66.7620087  11.1653147  85.6553345  67.6182861  10.5337982
  45.9764252   3.7696309  80.2259750  46.4399796   4.4862247  80.6593857
  46.6182137   3.4020426  79.6183472   5.1422691  67.9321899  40.8237419
   4.9848862  67.7116470  39.9056892   4.4042225  68.4916840  41.0655823
  63.3848648   9.3442163  81.5188065  64.1169434   9.6243954  82.0681686
  62.6298637   9.3449993  82.1072006  70.0741730  43.4639854  15.7245445
  70.1285172  43.5510979  14.7728672  69.4948730  44.1754227  15.9974871
  74.4121170  29.5853176  45.7120171  74.3735123  28.7721615  46.2155228
  73.4966049  29.8411579  45.5996780  19.8664112  47.8884430  27.9209518
  20.4185581  48.4067192  28.5064087  19.0240555  48.3430519  27.9213505
  83.6843414  53.9168015  12.1704187  82.8520660  53.6099091  11.8107405
  83.8702621  54.7232666  11.6895046  55.8462830  53.7833900  17.2506828
  56.4924927  53.1030693  17.4399033  55.0029793  53.3333397  17.3009472
  61.1841240  25.3294201  60.1937256  61.5105629  24.4323406  60.1236000
  60.9161453  25.4159546  61.1085663  23.8262157  27.6726551  66.2385941
  24.6545181  27.2539730  66.0043945  24.0144863  28.6106110  66.2065735
  61.2159576   5.1572180  50.0129013  60.5265236   5.6637902  49.5835991
  60.7459106   4.5022254  50.5289154  46.4514236  33.9932594  60.8961678
  46.2940941  34.6611519  61.5635529  47.0170631  34.4237900  60.2551346
  72.9701233  10.0724382  86.2214279  73.6283493   9.3775759  86.2326965
  73.3594360  10.7795172  86.7359161   1.9161232  51.7044487  33.0793953
   1.9350655  50.8996010  32.5616226   1.0113076  51.7718163  33.3843575
  21.8868198  10.3374691  74.7853775  21.2197399  10.2205248  74.1089478
  22.1040306   9.4478197  75.0639038  11.1532192  52.4843979  14.8640604
  10.3491983  51.9653282  14.8453321  11.1606655  52.8831444  15.7342205
  33.3126373  22.3375530  75.8871460  34.0122261  22.9006958  75.5559616
  32.7029305  22.9391556  76.3144226  19.6219940   2.4277735  79.7599564
  19.1931152   3.2589362  79.5563354  19.5630283   1.9228230  78.9489212
   3.1957953  68.4550629  53.3487625   3.4478297  68.2594833  52.4462852
   2.2626901  68.2452240  53.3876839  19.3357811  66.7759476  56.5703850
  18.6711292  67.1921768  57.1192169  20.0114059  66.4920654  57.1861572
  51.7774010  64.7750320  71.7840347  50.9260292  65.0077591  71.4135742
  52.2259941  64.3084488  71.0788422  59.2326775  63.9068832  76.8543472
  59.8128662  64.1249008  77.5837860  59.1389313  62.9553337  76.8990173
  41.8147240  26.2681198   8.0537634  41.5369415  25.6236439   8.7046995
  41.5932236  27.1135788   8.4441071   2.4028239  15.6917953  66.5482559
   2.4583595  14.8093824  66.1815186   3.0666091  16.1910973  66.0725250
  10.5352888  36.8087959  31.9715271   9.8928919  36.3508720  32.5136223
  10.5915051  36.2847137  31.1725216  75.5360489   0.4165680  38.0174561
  76.4789200   0.2917480  38.1253510  75.4506989   1.3011457  37.6618347
  28.5955849  55.6726456  26.0190201  28.6040745  55.6745872  26.9761791
  28.2499714  56.5329018  25.7808189  45.5544701  21.2370605  83.9719849
  44.8553810  21.7136135  84.4196472  46.3584175  21.5366268  84.3964462
  46.1778107  44.5783806  35.3324165  46.7550926  45.1981583  34.8864822
  45.4724503  45.1200981  35.6863098  23.1152496   8.4053736  70.9373322
  23.3136539   8.6947441  70.0467529  22.1947575   8.1448269  70.9050369
  41.6253395  46.3440399  79.4172668  40.9328499  46.7286072  79.9546738
  42.0032234  45.6585121  79.9681625  71.3572998  36.7490616  80.8767166
  70.6797943  36.4624176  81.4891357  71.7783279  37.4889069  81.3144302
  55.6873970   2.3722706  78.0447159  55.5863380   3.3147185  78.1781769
  56.3497353   2.2973120  77.3577499  53.3955383  46.4194336  10.6534967
  52.8679047  45.6561432  10.4185047  52.7666512  47.1393776  10.7026672
  16.1547947   5.4280477  73.6330948  15.8595829   5.1071234  74.4851990
  16.3578091   4.6356692  73.1359482  14.8327312  21.4618797  13.1300297
  14.6835604  22.1550980  13.7730141  14.4131470  21.7816868  12.3313398
  80.1796494  45.6686478  67.8821182  80.7896042  45.4075508  68.5720596
  80.2758636  44.9943466  67.2095947  23.6094322  15.5744572  84.2935715
  23.5563164  16.5270653  84.3707047  23.6188049  15.2610865  85.1979752
   2.8889267  24.3905869   3.2721858   2.9130471  23.4379978   3.3628831
   1.9809651  24.6263905   3.4625373  33.8115883  27.7431545  17.6676750
  33.7880440  28.6901512  17.8050613  33.7274208  27.3715782  18.5457859
   0.9125538  57.0185242  67.1387177   0.4484597  56.6787453  66.3735962
   1.8106542  57.1504631  66.8350067  54.3965874  41.0362740  76.6677017
  54.8093605  41.2232399  77.5108414  53.8723450  41.8147964  76.4798050
  16.6711807  17.0642567  87.3524704  16.5449829  17.9809055  87.1073990
  15.8824444  16.6217365  87.0389328  38.1238518  40.8442497  25.2603855
  38.1969109  40.7742767  26.2122250  37.5031204  41.5591888  25.1197262
  43.1447105  11.3359928  11.3005104  42.9052162  12.2410975  11.4996557
  44.0505180  11.2565756  11.5995741   4.2507911  24.1759071  34.5563545
   4.6787333  23.4489918  34.1039276   4.4940915  24.9502850  34.0490265
  70.0579987  71.0444412  62.1394196  69.3850479  70.3644333  62.1083641
  69.6173859  71.8321762  61.8207207  81.2605209  38.6362343  82.5764465
  81.4909668  37.7074203  82.5971680  81.1717072  38.8402557  81.6454620
   8.4718208  39.2661362  30.3287392   7.8724771  38.6142578  30.6921558
   8.7305927  38.9068146  29.4801197  80.4567032  44.4558678  12.0945845
  80.5128098  44.7511139  13.0033827  80.6637039  45.2338600  11.5767889
  64.7732773   4.7977228  68.0102005  64.6854095   5.6419716  68.4526443
  64.2681961   4.1903191  68.5507431  48.8878632   2.6461828   6.8386135
  48.6414795   1.9476863   7.4449368  49.8122711   2.8102405   7.0251384
  81.9773483   1.1482228   5.8342133  82.8784180   0.8801394   6.0142965
  82.0619278   2.0003200   5.4064183  28.3936844  43.3773041  35.0534363
  27.4744205  43.5311623  34.8354645  28.8184662  43.2283974  34.2086754
  30.2714958  52.8005981  10.0483751  29.7394238  53.5621681  10.2789125
  29.7091789  52.0494347  10.2375345  63.4868088  66.1462250  74.4603043
  62.8698082  66.8655319  74.5950089  64.2490845  66.5576401  74.0529861
  52.0655441  25.2609291  14.8708439  52.5715752  24.8404922  14.1755762
  52.1361732  24.6620045  15.6141701  16.5469799  55.4238701   5.7061162
  17.1833668  56.0067978   5.2920651  16.2854958  55.8829803   6.5042872
  53.5491066  44.4890213  26.4843597  54.0127411  45.3242989  26.5442295
  54.1597137  43.9081497  26.0305157   6.3495798  51.6391716  57.1195068
   6.9231787  50.8835983  56.9917450   6.1776309  51.9616585  56.2348213
   1.2429686   4.2769918  66.8211670   1.7795671   5.0496917  66.6444473
   1.5356603   3.9735668  67.6805267  50.5462570  64.1811142  85.7207565
  50.0729752  63.4991646  85.2441177  51.4666023  64.0281296  85.5067673
  54.0496750  69.4685822  52.8032761  53.4500694  68.9675522  53.3561554
  54.9221001  69.2039337  53.0949440  43.6280022   2.1614585  61.5973473
  43.5456047   2.2583992  62.5460548  42.7855492   1.8020589  61.3192482
  78.2420807  51.0304108  61.8117447  78.3429947  50.1367378  61.4840317
  78.9826050  51.5077705  61.4375916  25.0513363  45.2371674  83.5054245
  25.8634033  45.5073662  83.9341049  24.5991478  46.0578651  83.3099365
  49.4754524  50.4831696  55.4904900  48.8045044  50.4009094  54.8127747
  49.3951073  51.3858032  55.7987595  27.3692417  41.5542259  62.4792976
  27.5208740  40.6104240  62.5290108  27.0942554  41.7053261  61.5749817
  58.1025124  40.1172295  66.9571075  59.0133324  39.8387375  66.8618393
  57.6574478  39.7453575  66.1956177  80.4385147  41.0447197  34.9779778
  80.9775696  40.2550240  35.0230789  79.7801514  40.9247131  35.6623650
  85.1964722  43.4108391  86.3002167  84.5431519  42.9751472  85.7528763
  84.6853409  43.8472443  86.9817810  50.4323196  42.9366608  20.5537968
  50.0139923  42.9342880  21.4147415  51.3624802  42.8074608  20.7391109
  81.2017365  68.0559311  21.1986160  81.7024155  67.9917679  22.0119038
  81.0935440  67.1491470  20.9117966  14.1060200  62.0440292  15.3236609
  15.0604916  62.0078125  15.2611742  13.9193630  62.9327087  15.6263838
  26.5962734  26.9441662  83.4943695  26.9532948  27.3199425  82.6896591
  26.7015152  25.9991169  83.3846512  14.9008856  57.7567444  42.1290779
  14.4176073  58.1124496  42.8748322  15.2995052  58.5221252  41.7149162
  19.2200699  55.7823105  84.8032837  18.6966896  54.9953384  84.9548798
  19.7808743  55.5576401  84.0608139  82.7322311   4.9612122  48.7640381
  83.6573944   4.9795451  48.5191498  82.7113800   4.4687505  49.5845757
  69.3818130  22.8006630   1.0371380  70.2953262  22.5337505   0.9347861
  68.8971100  22.2290401   0.4416993  13.8841763   2.0542004   6.4743648
  13.9804010   1.5188665   5.6867161  13.3405390   1.5254357   7.0584006
  60.0699883   1.1530825  45.0342102  59.8985443   0.3530941  44.5373650
  59.6443291   1.0062754  45.8788986  67.5687637   4.7424746  60.8480835
  66.6903839   4.5937576  60.4979897  67.6830063   5.6921821  60.8128929
   7.6212406  53.9035225  88.5289688   7.6694288  53.4012489  89.3423767
   6.7173939  53.7944756  88.2333298   4.3816924  67.8671646  35.4555702
   4.9117284  67.5749130  34.7140274   3.4837506  67.6430283  35.2112465
  57.2667160  70.8833542  16.5342064  56.6421394  70.1633377  16.6220112
  56.9729767  71.3620377  15.7590866  45.5583000  51.5565796  42.0754204
  46.0935402  50.9714508  41.5393448  45.6623573  51.2260971  42.9677086
  54.8793526  63.5934334  14.8152504  54.3598900  62.7897339  14.7937899
  55.5884552  63.4370193  14.1916018  59.5202866  36.4206772  36.8841095
  58.7309608  36.3276062  36.3506889  60.0690460  37.0336952  36.3949242
  12.9183311  18.1760139   2.9453523  12.9601555  17.2402306   2.7483950
  13.6687527  18.5514832   2.4847858  78.6545410  65.9989624  18.8441067
  79.3789062  65.7870941  19.4328766  77.8676300  65.7946854  19.3493443
  24.2922707  44.0987282  62.3966293  24.3945713  43.3997574  63.0425453
  25.1701698  44.4684792  62.3027725  69.6116028  39.9020729  50.1630325
  70.5496216  40.0172234  50.3149872  69.2523117  39.6983643  51.0265388
  39.7065392  68.9933624  11.7273417  39.1298866  68.4630508  12.2773161
  39.8638153  69.7862778  12.2399607  62.9158249  27.3639946  59.5733070
  62.2674561  26.6738930  59.7133369  62.8247871  27.5941162  58.6486511
  10.2092257  51.1929169  31.1850719  10.6028347  50.4175034  30.7850246
  10.9552650  51.7153473  31.4795589  61.7160187   9.5905905  18.0843830
  61.8915215  10.4849615  18.3768425  62.5705376   9.1597776  18.1051636
  21.4311028  39.1917801  77.2529297  21.2646523  38.7897491  78.1055069
  20.7451916  38.8411331  76.6847687  15.0164051  16.3423176  66.7029190
  14.9014587  16.1706867  67.6375656  15.2816486  17.2609806  66.6589432
   1.6128968  70.4332809  10.7372141   1.8397955  69.7877045  10.0678949
   2.1078248  71.2154007  10.4931526  30.8548565  23.3382797  80.7164078
  30.5593605  24.1492500  80.3025970  30.5858688  22.6481781  80.1100769
  77.2492065   8.7561111  45.5783768  77.9771805   9.0622406  46.1192703
  77.0763702   9.4805727  44.9771118  31.2225647  68.3905106  26.4234524
  30.6479607  68.4622726  27.1856289  30.6531811  68.0710373  25.7234745
  13.0150785  27.6293983  62.0633850  13.6854544  28.1958447  62.4454422
  13.3565741  27.4041996  61.1979942  33.5744934  67.8461761  27.8686848
  33.3229027  66.9439621  28.0660229  33.1147652  68.0503693  27.0543194
  52.4599266  36.0187263   5.0384526  53.1288223  36.2720604   4.4023447
  52.9416924  35.5460548   5.7172155  59.4959183   1.2886629  62.1179810
  59.8934250   2.1276481  62.3510551  60.1283226   0.6336889  62.4134521
   8.5093098  18.0550270  85.5783081   8.9624510  17.9047165  86.4079437
   8.9999676  18.7639084  85.1624069   9.7029161  14.4952469  74.0307922
   9.1515322  13.9911013  74.6291656  10.0136118  15.2330294  74.5555573
  79.2211151  58.7725563  24.2384529  78.6541367  59.5437698  24.2394753
  79.4599762  58.6496696  25.1571884  71.9946213  58.5436401  35.9871063
  71.3591385  58.3666153  35.2935219  72.6264191  57.8275681  35.9215431
  60.2988396  36.4604492  53.5203819  60.7950706  37.2045097  53.8615036
  60.4759140  35.7510262  54.1381149  82.3427277   3.4471247   1.8686602
  81.7426300   3.3978853   1.1245553  83.1370468   3.0075407   1.5652580
  43.5728226  42.9801598  26.8647327  42.6591454  42.9395103  26.5822868
  43.9133148  43.7780342  26.4601440  80.8343430  30.4931011  46.0056381
  81.6193619  30.2334671  46.4878922  81.1119080  30.5142479  45.0898094
  64.5273514   4.6864100  40.8271370  63.8361740   4.3385229  40.2636833
  64.0674057   5.2464924  41.4524269   3.4649026  24.5915871  80.5439529
   2.9666283  23.9330273  80.0599518   2.8571734  24.9084396  81.2121582
  80.6349716   0.5205025  24.8889198  80.8125229   0.3098329  25.8056145
  81.4996490   0.6645952  24.5044670  37.7998085   6.9865170   9.6801882
  38.3209076   7.0430255   8.8792553  36.9412994   7.3294916   9.4320688
  50.0507240  15.6236649  26.1506023  49.4833336  16.1313667  25.5704803
  50.1918983  16.1936359  26.9065342  80.5580292  63.9678307  70.5936279
  79.8290024  64.5585098  70.4042892  80.5648880  63.8940697  71.5479584
  24.2033958  27.2524376  87.2082291  24.8851585  26.5823727  87.1587906
  24.4754925  27.8181133  87.9308624  53.7977066  29.3033504  59.2572899
  52.9274330  29.6658344  59.0915794  53.9349709  28.6759567  58.5475235
  39.5769844  49.9118958  71.2267151  39.0327072  49.1578293  71.0000610
  40.2485161  49.9361267  70.5450363   2.8980706  36.9265709  74.4615936
   2.4993141  37.3382835  75.2282181   3.6135991  36.3997955  74.8176193
  83.4346542  43.7327843  45.7723541  83.5099945  44.2350540  44.9610138
  82.7181702  44.1526871  46.2483444  40.3053894  67.0351639  82.3346100
  39.7225647  67.7247696  82.6524200  41.0074883  66.9967880  82.9840851
  63.7519493   8.5159960  37.3833504  64.5403976   8.7321033  37.8812294
  63.1468849   9.2339869  37.5694122  73.2578583  16.0919666  41.8829575
  73.1683121  15.2058449  41.5322418  74.2018356  16.2499123  41.8965683
  37.9907227  63.3735199  23.1108303  38.1980515  63.2498016  22.1845779
  37.6774101  64.2762070  23.1676445   2.8521740  55.5508499  28.4086056
   3.3483863  55.2066536  29.1512585   2.1397417  54.9235992  28.2852077
  65.8606873  31.2751160  66.9307632  66.7466965  30.9143734  66.9638138
  65.9515762  32.1650658  67.2712936  29.4476852   1.6709348  67.7311630
  30.1458416   2.1119533  68.2152252  28.6415806   1.9520545  68.1640625
  85.7834778  50.1383553  71.1386414  86.7245560  49.9712029  71.0870590
  85.3998871  49.2862816  71.3461456  36.8367996  29.5757580  73.1476974
  36.9487801  28.6830311  73.4743881  36.1597023  29.5015297  72.4751892
  47.7725754  22.3109531  68.2689896  47.3757896  21.5111713  68.6141510
  47.0484123  22.9348145  68.2178650  80.8844376  49.9114647  21.5844707
  81.6241531  49.3523712  21.8220978  80.1577911  49.5859146  22.1157246
  72.7766037  38.9901161  78.5231018  73.7193527  39.1557655  78.5193405
  72.4066238  39.6997910  77.9980164  73.0460434  38.2337532  10.0418320
  72.8654251  39.1293335   9.7562675  73.5432510  37.8480492   9.3205481
  77.0988083  18.8391075  37.1367607  76.2319641  19.1701450  37.3717880
  77.0611191  18.7218018  36.1875229  56.9093857  34.3163910  28.4881077
  56.3865967  34.4116058  29.2842598  57.8165131  34.3498116  28.7918110
  63.7798004  68.5747452  47.2422829  64.1491318  69.3150482  46.7608490
  64.5259476  67.9969559  47.4024315  59.4404068  20.7043705  59.3172112
  59.5348320  19.8090305  59.6422997  59.5258179  20.6244926  58.3671837
  11.4278545   2.3952279  75.9327698  12.1015711   1.9656966  75.4056625
  10.8692064   1.6798258  76.2366486  50.6211243   8.1968517  52.4280319
  50.8779449   8.6164160  51.6069069  51.4370537   8.1183777  52.9223328
  53.7807236  55.2385178  69.9580841  53.9594574  56.0186691  70.4831085
  54.5794258  55.1051712  69.4476624   0.2538758  20.4499207  75.3363647
   0.9411563  19.8412609  75.0654144   0.7180099  21.2642345  75.5305405
  63.8843193  42.4046516  16.9369125  64.3487625  41.6800957  17.3558941
  63.0992355  42.5265465  17.4707851  70.6898499  52.9308472  62.7565155
  70.9159393  52.2152481  63.3506813  69.8112411  52.7144394  62.4443512
  77.2020645   1.3233926  10.1570721  76.5696335   2.0403252  10.1093626
  77.4354019   1.1487749   9.2453194  17.9016018  33.9772301  12.6179180
  18.7121620  33.8742638  13.1165390  17.6175938  33.0816498  12.4348726
  65.5307388  15.4191656  56.2753372  65.0989380  15.8352337  55.5292358
  65.0323639  14.6153603  56.4228020   8.2505741  53.2787476  65.8778687
   8.6401091  53.2903328  66.7521515   7.5936074  52.5837288  65.9175644
  80.9312820  65.1204758  20.1691570  80.9611359  64.2580185  19.7550182
  81.6569672  65.1117172  20.7932854  86.6283188  46.3746071  86.1117172
  86.5663452  45.4464226  86.3372498  87.2504654  46.7337723  86.7443008
  82.0613251  31.4079781  37.1516380  82.9831085  31.5223598  37.3828659
  81.6704025  32.2703667  37.2919655   3.0523214  40.7306061  30.6368580
   3.4046271  40.4213982  31.4714260   2.3655665  40.1005478  30.4186230
  39.7485542  47.2300148  58.0149918  39.5416756  47.7381134  57.2306023
  40.6352959  46.9036522  57.8619957  33.0277710  46.6290550  47.2869339
  32.1248131  46.3615608  47.4582291  33.3177109  47.0316086  48.1055412
   0.5329270   1.9246291  46.5714455   0.1442519   1.1129502  46.2453461
   0.7702781   2.4106965  45.7817383  40.8156929  13.0382433  67.4215622
  41.0437813  13.8817940  67.8122406  41.6512260  12.6784487  67.1238022
  19.2047024  36.4793701  46.2143211  19.6398029  36.9634476  45.5124741
  19.6216679  36.7939568  47.0164452  31.5520229   8.0183773  71.8420639
  32.4625130   8.1741581  71.5911179  31.1031284   7.8393755  71.0158157
  22.3520164  37.6772614  62.3617859  23.2395878  38.0307770  62.3028412
  21.9217167  38.2193489  63.0230103  25.6172085  11.6956158   8.6229134
  25.9671669  11.1929998   7.8872924  26.3884411  11.9400206   9.1344786
  61.8526382  27.3923626  47.2875252  62.2600212  27.3217278  48.1508217
  61.7057228  26.4859772  47.0171280  40.1968689  50.3003616   7.1278362
  40.9703941  50.3079796   7.6916027  39.5784912  50.8882484   7.5616908
  13.5593147  59.7518921  23.5548973  12.6334953  59.7122879  23.3150597
  13.9316273  60.4076385  22.9653091  45.8037262  68.0629654  23.9708672
  46.2342262  68.7331696  24.5016556  45.1780281  68.5485306  23.4333172
  75.5903931  63.1711655  81.6191177  76.1738205  63.6865349  82.1761169
  74.7183533  63.3172684  81.9857635  39.1370201  18.9127865  87.8561478
  38.8942032  19.0622749  86.9424057  38.7837105  19.6690273  88.3246613
  68.5880508  11.7982264   8.9017792  68.4275513  11.0108337   8.3816996
  67.9863663  11.7228470   9.6424046   8.2746925  50.3049469  33.0160332
   8.2320843  49.3489189  33.0365868   9.0667925  50.4986763  32.5147591
  40.5161057  56.6957359  72.3078308  41.4457664  56.5002823  72.1905441
  40.2342567  56.1076508  73.0085068  23.9360294  37.2752113  12.6410799
  24.1187897  37.2391014  13.5799761  23.2992496  36.5758591  12.4939499
  15.2346764   3.2404504   8.7370157  14.3579464   3.6242688   8.7209015
  15.2898073   2.7350168   7.9260111  18.6074219  14.6162920  48.4881706
  19.3255501  14.1507196  48.9168472  18.9820690  14.9280787  47.6643639
   6.4570498  22.8361111  66.2061157   5.7305012  23.4542999  66.2848587
   6.4643559  22.5917206  65.2806702  44.2867699  46.6538010   4.1668844
  45.0935669  47.0792046   3.8764586  44.2877922  45.8075523   3.7195678
  48.8580093   7.4154921  67.6600342  48.6493378   7.5901098  68.5777435
  49.5934219   6.8037257  67.6938400  72.6733475  56.2403679   9.4892187
  72.7704315  57.1650467   9.2616816  72.7370453  56.2207108  10.4440947
  17.6814995  12.2398729   6.3618546  18.6318645  12.2865009   6.4660826
  17.4709854  11.3156796   6.4952025  77.8382950  29.3692341  87.7002563
  77.0670471  29.4730968  87.1429214  77.4823837  29.2034969  88.5732346
   6.3901582  39.5093384  15.3043880   7.1827288  39.0851173  15.6331730
   5.8241334  38.7851601  15.0371628   4.8255095  40.4325142  46.6999931
   4.0830650  40.5156097  46.1015778   5.5894527  40.6487198  46.1653214
   6.1230068  36.4089279   3.6282430   6.6160388  36.8398972   4.3263950
   6.6850457  36.4833565   2.8570073  64.0114975   1.0764735  36.1715279
  64.0163345   0.9892201  35.2183228  63.7456818   1.9826579  36.3277435
  84.1281128  56.3437080  13.4003716  83.9423065  57.2045059  13.0252304
  83.2675018  55.9884148  13.6225023  -0.0020300  30.0120068  70.7287064
  -0.5223352  30.6026421  70.1840363   0.8994710  30.3129044  70.6147385
  52.2456093   8.2695646  46.7750854  52.6241150   8.1330023  45.9065704
  51.3423042   8.5357285  46.6035347  48.6489868  49.1774788  71.2910156
  47.7817764  49.2451706  71.6905136  48.5049248  48.6740723  70.4897232
  84.7163620  34.3420525  49.5587845  85.0889969  34.6253700  48.7238503
  84.7049179  35.1336174  50.0968628  77.6276398  22.4439049  84.8705673
  76.7852783  22.8784981  85.0039597  78.1884689  22.7903996  85.5645752
  57.4562111  11.7046099  66.8320160  58.3767433  11.9023132  66.6594925
  57.1549416  12.4277306  67.3820724  84.6703415   9.6919060  71.0276413
  84.4224396  10.6087503  70.9085846  85.6230469   9.6874304  70.9350891
   2.3132989  22.4804192  27.4082909   1.7654865  22.0787907  28.0826988
   2.0089438  22.0903931  26.5888519  52.5459557  54.5582542  35.6442719
  53.4047089  54.4204597  35.2445335  51.9303627  54.5067215  34.9130936
  53.9044685  55.6995811  17.1069107  53.1859818  55.0866737  17.2629642
  54.6824913  55.1455536  17.0439262   1.1138822  56.5586929  50.1259537
   1.7079774  57.3062744  50.1923141   0.3328632  56.9106026  49.6988678
  84.8098679  39.1322784  57.7230301  85.7361526  38.8924484  57.7496643
  84.5520172  38.9911575  56.8120804  10.2272215  17.7647591  87.9083633
   9.6527538  17.6363220  88.6631622  10.9882059  18.2251663  88.2621460
  74.8815994  66.7823410  40.6789474  74.7764664  67.5920105  41.1785660
  73.9897308  66.5324326  40.4373970  13.3708134  33.5372086   9.8996382
  13.6935997  32.8258286   9.3464823  13.1478758  33.1137314  10.7286119
  40.6177177   4.2662072  71.1797638  39.6644096   4.2385716  71.2614441
  40.9171867   4.6572952  72.0004959  86.1942062  56.1697922  29.0000572
  86.7769318  55.6724091  28.4262390  86.6345825  56.1661873  29.8499336
  39.6053810  38.4012413  21.1866760  38.8811073  38.6006927  21.7798691
  39.5716820  37.4507561  21.0786324  58.0839157  67.5317993  47.2096901
  58.3611565  67.2544937  46.3364944  57.1521072  67.3156662  47.2450333
  63.9225578  58.2525749  84.8303146  63.3835754  58.9340286  84.4286270
  64.7023239  58.7144508  85.1383362  77.5746918  13.2606573  63.0505753
  77.3289032  12.9310627  62.1861763  78.2132797  12.6262636  63.3761139
  75.7356186  42.5522957  70.5740204  76.4756699  43.0697632  70.8914719
  75.0692444  42.6445274  71.2549591  69.7810135  24.8713646   3.9303837
  69.4354858  25.6901703   4.2859130  69.0264587  24.2828407   3.9076290
  85.5943222  28.3479824   8.4786043  86.3947296  28.8108292   8.2308979
  85.2803268  28.8112431   9.2551517  76.2713470  10.8066654  11.1297274
  77.1575089  10.4449797  11.1413260  76.3917160  11.7409010  11.2998667
  40.6868439  70.5754013  24.0330563  40.3601913  70.7794724  23.1567650
  40.2373772  69.7652359  24.2735577  77.3399429  17.9719505  23.9264927
  77.5769196  17.2743950  24.5376301  76.6243668  17.6035595  23.4083519
  39.6059532  60.0668488  87.7165527  40.1749191  59.2988358  87.7682114
  40.1513977  60.7423286  87.3134918  79.9634094   1.1212071  57.0021210
  79.7213058   1.1062535  57.9280777  79.2109222   0.7377766  56.5515938
  69.0033951  10.7438908  22.6380424  68.3998260  10.0577526  22.9229126
  69.8736877  10.3786716  22.7975235  85.6892471  33.0810623  63.8159790
  85.7208328  32.1640167  64.0884781  86.3703613  33.1559067  63.1476021
  26.5691261   8.4452791  85.4408875  26.6257439   8.8794212  84.5896835
  26.2240658   7.5745993  85.2431946  57.7524986  44.0871086  75.4429932
  58.6653137  43.8028259  75.3962021  57.3648605  43.7840118  74.6219559
   3.3812284  21.4865704   4.1443892   4.1457562  21.0614471   3.7558017
   2.7246459  20.7924404   4.2019687  23.0795288   4.9138927  82.4902954
  22.6471539   5.0859375  81.6538239  23.3697720   4.0039430  82.4271851
  45.9112129  25.3391666  82.5749207  45.5739365  24.5498924  82.9986191
  45.2581215  25.5506210  81.9078445  22.8799706   1.2771878  84.4993973
  21.9636459   1.1945122  84.7634888  23.2503395   1.9101883  85.1145096
  54.2785683  49.0405159  73.2269058  54.9948120  48.9988480  73.8605347
  53.8919144  48.1650658  73.2445755  47.7690201  11.0194855  72.3958817
  47.0541840  10.6697884  71.8639450  47.3597717  11.2381134  73.2331085
  71.0041885  32.1242447   2.7668490  71.1309509  32.9626770   3.2109172
  71.8148804  31.6420422   2.9295859  32.1026878  58.8118553  12.4821968
  32.2273331  59.1576424  13.3660088  31.8227444  59.5680504  11.9664173
  22.0424538  25.1044769  13.5264425  22.2683830  25.9244423  13.0873003
  21.8546772  24.4945450  12.8130341  50.9115181  64.3910828  81.9634933
  50.4499245  63.6093102  81.6601868  51.5969582  64.5329361  81.3105927
   4.8989682  59.9523544  81.3322067   4.8688908  60.8895378  81.1398010
   4.2105002  59.5734367  80.7856979  83.6134109  61.5873184  19.4411449
  83.5014267  60.8414230  20.0304947  84.3789215  61.3620415  18.9124870
  61.8609886  42.8824005  54.3408966  61.3663940  42.2501068  53.8195381
  61.9756699  42.4553032  55.1898193  57.2647171  22.1261959  21.6786213
  58.1815109  22.1503410  21.4045124  57.1915016  22.8223877  22.3314533
  86.4391708  16.4706535  67.2115631  87.2495346  16.4945717  66.7026596
  86.4807053  17.2506313  67.7648621  86.5849838  26.1052265  80.2943726
  87.2102203  25.7500687  80.9261780  85.7517242  26.1213665  80.7651749
  61.1610413  16.5362129  73.3429337  60.5020332  16.3361187  72.6781769
  60.8581085  17.3514576  73.7427292  10.5221901  27.2547359  20.3115463
   9.9665184  28.0099907  20.1190586  10.9624949  27.4837360  21.1300335
  69.0598602  67.5971832  73.0063629  68.2959518  67.9209137  73.4837265
  69.8087311  67.8922119  73.5244141  80.5429230  22.1353855  41.4411011
  79.6518097  21.7869759  41.4135780  80.6121902  22.5482445  42.3019028
  22.1021233  71.9818268  66.4576187  22.9550667  71.6798096  66.7698746
  21.5982265  71.1791306  66.3234558  86.1222763  36.2566719   4.8678517
  87.0430145  36.3992233   4.6484261  86.0988159  36.2726517   5.8246312
  40.8205643   9.7009487  66.9674759  39.8846245   9.7797670  66.7829971
  41.2440071  10.2198696  66.2836227  59.5210152  14.5449486  89.1138611
  59.9481354  14.4592743  89.9661865  60.2433891  14.5918760  88.4875946
  79.2714844   8.9651413  47.4448662  79.4454727   8.0310545  47.3289185
  79.9267120   9.4003305  46.8994179  62.2920952  51.1041222  33.2757416
  62.0791206  52.0104790  33.0534897  61.7065010  50.5796547  32.7296257
  53.7345428  61.8333549  48.9763336  54.1714134  61.4831352  48.1999817
  53.4687691  61.0585594  49.4715996  70.8516312  59.5842781  72.5706558
  71.6969452  59.5130043  73.0140533  70.2209625  59.2336159  73.1995697
  51.3262177  48.3811646  62.4855003  51.7444038  48.0595818  63.2842140
  51.4946442  49.3234177  62.4896545  34.7639923  64.3469620  20.8002567
  35.5445633  63.8522186  20.5509205  34.0774460  63.6851883  20.8835659
  44.9644127  71.2293701  59.0821152  44.3614235  70.9034882  59.7502708
  45.5099373  71.8671722  59.5423813  24.0354061  43.6464806  28.0521126
  23.6678200  43.4630775  27.1875439  24.2988052  44.5657730  28.0102882
  13.4819221  55.6822624   7.8395557  12.9075375  54.9241943   7.7316537
  13.4206772  55.8986626   8.7699604  81.7419891   8.9019890  88.9853592
  81.5902863   9.7660913  88.6025467  80.8896713   8.4683867  88.9432526
  60.6229477  46.8234558  65.9580154  60.4433403  47.6648636  65.5384827
  61.0791702  47.0521431  66.7678223  35.4750633  47.5549240  58.8179131
  35.4923096  47.3185616  59.7453117  35.2962303  48.4952583  58.8136902
  19.9663677  33.7007027  80.2848663  20.4138603  33.0767479  80.8564072
  19.5823975  33.1602859  79.5943909  71.0483627  63.2218895   8.6129551
  71.3289261  64.0248337   8.1738625  71.8320999  62.6726685   8.6315260
  74.2264709  20.9835377  67.5770416  73.9886856  21.7811565  68.0497971
  74.5148926  20.3775558  68.2595596   6.7417684  15.5631227   9.9723253
   5.9380426  15.3492336   9.4985027   7.1981754  14.7262955  10.0597496
  22.0229206  68.0489273   2.2975757  21.2293835  67.8463135   2.7930310
  22.5544395  68.5701294   2.8992927  29.4872208  39.6994362   9.9216957
  28.5421047  39.8244362  10.0074930  29.8668957  40.2886391  10.5735559
  53.3916512  36.2020302  66.5659866  53.0940399  37.0043564  66.9948578
  54.2650986  36.0478745  66.9259262  57.7917747  47.2959404  55.8948708
  58.6171799  46.9743195  55.5322418  57.1159859  46.8540916  55.3807640
  48.0630074  12.1368914  80.6626892  48.1866684  13.0339222  80.9729691
  48.9396667  11.8482170  80.4089813  21.7201252  48.3752937  55.9205246
  21.5270576  49.3027763  55.7836609  20.8912411  47.9297295  55.7454338
  20.0606403  10.8260698   3.8457582  20.9504681  10.9996996   4.1528306
  19.8051052  10.0204773   4.2951522   3.6345239  46.8186340  30.0521374
   3.0033169  46.0990448  30.0529671   3.3402255  47.3945732  29.3465061
  63.8068008  15.1492052  44.7094002  63.3744469  15.5074759  45.4846077
  64.4134445  14.4942350  45.0546989  79.6499557   6.8032460   7.0909777
  79.7553558   7.7456312   7.2214880  80.3432465   6.4091182   7.6203589
  61.9320984  70.2008591  10.5715227  61.8987961  70.0550003   9.6260862
  61.1381721  70.6993027  10.7650833  56.7335854  27.2626095  49.4731979
  56.5456085  27.9524422  48.8367805  57.6493721  27.0335960  49.3147049
  39.8640137   1.1709062  44.7607536  39.8154144   0.2593390  44.4728012
  38.9506683   1.4466336  44.8382149  85.1633606   0.6655440  20.5561810
  85.5907059   0.2559863  19.8039360  84.6754074  -0.0458080  20.9710388
  86.0304413  45.9052467  41.1196404  86.2044296  45.7236404  40.1960716
  85.2892914  45.3407211  41.3392601  14.0429497  15.7680349  54.0880966
  13.7488146  15.3493099  53.2791557  14.4740067  15.0673571  54.5774574
  58.4616356  20.2272987  29.8977222  57.8491325  20.6784344  29.3167343
  58.3015404  20.6117020  30.7595997  76.5099487  14.1261158  24.2062874
  77.2756195  13.8681479  23.6930294  76.6680374  15.0438843  24.4275150
  30.6861286  53.4718933  45.9346581  29.7698669  53.5469398  45.6680756
  30.7991276  52.5450287  46.1453438  75.5806580  48.0855370  12.8124857
  75.7596664  48.0085220  11.8753319  75.7293854  49.0103531  13.0095282
  35.8793259   0.4049728  40.0619469  36.4116821   1.1240627  39.7217445
  34.9960747   0.7688351  40.1228104  44.1001320  42.1917801  71.7643051
  44.5813828  41.3676186  71.6908875  44.7045479  42.7828979  72.2131805
  23.8379383  51.0922127  76.5182648  24.5587883  51.3722801  75.9542084
  23.8512745  50.1364708  76.4672165  47.9196777  35.7917442  23.4171448
  47.9979935  35.5118599  22.5051346  48.6772194  36.3593102  23.5593967
   4.5435295  24.8831501  10.6475611   5.0391688  25.0409718   9.8440275
   3.9762919  24.1413536  10.4372950  69.9918442  10.1196270  30.4587193
  70.0876999   9.3910599  31.0720959  70.6128159  10.7781572  30.7701015
  35.6067276  68.9977112  83.9601517  35.1642036  68.1649857  84.1244049
  34.9194603  69.5714340  83.6214218  12.7155285  35.1467133  34.5523911
  13.6387281  35.3110619  34.7445450  12.6859417  34.2272758  34.2878265
  25.5438061  56.2144279  24.2314949  25.0345039  56.6604233  23.5547886
  26.0688896  56.9074249  24.6318321  83.1973114  61.6450920  74.7460403
  82.9322205  60.7319984  74.8565826  83.5207520  61.9066353  75.6081390
   7.9787173  46.3347626  86.2726822   7.1251097  45.9033699  86.2341232
   8.3596516  46.1898537  85.4065857  66.1275635  41.8210411   3.6467226
  65.5099716  41.5743179   4.3351521  66.6415405  41.0287247   3.4908364
  65.4739075  39.3246880   7.2029781  65.5645905  38.8913498   8.0516376
  64.5650330  39.1652184   6.9485226  12.0145426  45.1939278  63.0153656
  12.9362803  45.3856354  63.1882210  11.9172859  45.3170357  62.0711136
  51.0246887  11.2747860  41.6066284  51.4867973  10.4392500  41.6742096
  51.0501442  11.4877977  40.6737785  73.7903061   3.3452291  45.6746902
  72.8415451   3.3278251  45.8003235  74.1502075   3.1598914  46.5420761
  76.9577255  60.8457069  80.7754517  77.4736099  61.4514732  80.2433472
  76.2615814  61.3870621  81.1476746  60.6569939  42.7451515  71.8115311
  59.9700165  43.3734741  71.5890350  61.2591934  42.7754440  71.0681076
  59.4136505  22.3965721  63.5612946  59.1979637  21.5554123  63.9639893
  60.0480995  22.1794415  62.8782463  23.7859516  65.0222092  27.5269203
  23.9359455  65.9106903  27.8499260  23.2053356  64.6259918  28.1766357
  59.2809486  46.4013786  62.7773743  58.8615456  47.2436829  62.9530449
  60.0579338  46.6231079  62.2641830  84.9300690  20.3562908  84.7882462
  85.0783081  20.3018227  83.8441620  85.6713028  20.8641834  85.1181641
  64.5892258  23.7656822  33.9351578  63.9336929  23.1278000  34.2173309
  65.0368042  24.0218487  34.7415581  75.7792587  45.5279617  19.2495174
  75.5632858  46.4458809  19.4138641  75.8594360  45.1409760  20.1213245
  53.4574203  27.3781300  51.3609200  52.9609299  28.1743412  51.1717720
  53.1296997  27.0880661  52.2122116  50.6435013  22.8594990  67.5592575
  49.8031349  22.5450859  67.8926697  50.5782547  23.8132973  67.6066360
  38.5481148  65.2389374  56.4467735  38.5443192  64.4416122  55.9171562
  38.1437302  65.9009094  55.8859711  63.2302856  60.9747849  64.0785904
  62.8310699  60.7453537  63.2394142  62.8574486  61.8292770  64.2955399
   7.4187169  33.5563850  28.4132576   8.0842896  32.9515839  28.7410679
   7.6606774  33.7063866  27.4993725  78.1544800  23.8139725  44.0181770
  77.4950104  23.1537151  44.2312279  77.8795013  24.1621666  43.1700134
  57.5473938  68.5480957  51.5551949  56.9721832  69.2049866  51.1629486
  56.9839058  68.0680313  52.1620369   3.8873122  61.5927773   2.8696561
   3.4834273  60.7693672   3.1437030   3.1799421  62.2355347   2.9218285
  41.8086166  69.3077087  30.4309330  41.0857430  69.7369461  29.9732895
  42.3258667  68.9025497  29.7348518  11.2386551  63.9976311  52.3036728
  10.4305115  64.4607391  52.0830688  10.9971542  63.4296951  53.0353546
  34.9460411  45.8959846  38.0271492  35.5471077  46.6288414  38.1608543
  34.7342720  45.9270515  37.0941887  40.1252136  65.4029694  29.6212349
  39.4417114  66.0634842  29.5082436  39.9696045  65.0443115  30.4949512
   1.7361182  19.4464149  78.5323334   2.5098310  19.6192207  77.9959183
   1.1187395  20.1372166  78.2917709  27.5900135  42.3796501  70.8317337
  27.2749233  41.8150177  71.5375214  26.8134537  42.5545464  70.3001328
  82.5486526  48.1844673  69.5488281  82.9712753  48.4353561  70.3702164
  81.7745743  47.6904106  69.8189087   8.4062529  14.4397688  18.0156002
   7.7447476  15.0882778  18.2565956   8.3778467  13.7946882  18.7222080
  74.9504852  53.3544617  35.7679520  75.8125458  53.0940628  36.0924225
  74.3322754  52.9252892  36.3594360  29.0396843  65.9813232  57.3123932
  28.3082829  66.1666489  57.9014053  29.7304382  66.5821457  57.5918579
  22.8101234  58.4057846  29.7381744  23.0655804  57.6791153  30.3064384
  22.5972309  59.1180115  30.3412018  76.5052261   5.0259557  87.0968933
  76.9859924   4.2460837  87.3742065  77.1858978   5.6494908  86.8436661
  42.3823242  70.9193344   2.3115935  42.8128281  71.1482391   1.4878814
  41.7263985  70.2669601   2.0658174  31.7458305  35.6146545  88.6993103
  31.8584385  34.6673050  88.6213226  31.4304771  35.7455597  89.5935364
  44.7873039  46.7041473  41.1704063  45.5191727  46.4040413  40.6313896
  45.1281700  46.6929779  42.0647850  59.9534950   7.3422108  38.7378769
  59.5665474   8.0324783  38.1993294  59.9801331   6.5769191  38.1635513
  54.9960899  44.6572990  66.7682037  55.7471237  44.1114883  66.5352325
  55.3344460  45.5524254  66.7459259   7.4492164  26.8513832  47.3844032
   6.5308237  26.5876503  47.3275490   7.7106938  27.0058270  46.4766541
  14.8311539  71.1667175  72.0335083  14.0286674  70.7121124  71.7774200
  15.4302835  71.0264587  71.3002930  66.4488220  64.8193054  66.3081970
  66.6584473  64.6423798  65.3911438  67.2749634  65.1161423  66.6897812
  35.8374786  62.1594200  87.2421951  36.1059074  61.9932671  88.1458359
  35.3547707  62.9849510  87.2836609  83.3815079  18.9146576  88.4697952
  84.1859436  18.5385323  88.8270645  83.0203781  19.4341221  89.1881104
  22.2542648  63.6665039  29.2166767  23.0813160  63.3190880  29.5506191
  21.8615742  62.9344711  28.7411213  22.8150826  39.9848061  80.9306183
  21.9531384  40.2172890  80.5853119  22.7613373  39.0433311  81.0948410
  83.6147919  29.3167686  55.8079948  82.8564224  29.2722912  56.3903389
  83.4487991  28.6448116  55.1468201  21.3810139  62.5542336  14.6478281
  21.4852638  63.1488609  13.9050055  22.2080021  62.6201591  15.1252966
  51.1698761  70.6104584  53.8565521  51.0829582  71.5307846  54.1049004
  51.6159363  70.6319427  53.0099106  44.3951263  49.9428368  24.9663029
  44.7993507  50.2147446  24.1423492  44.3297958  48.9903030  24.8981533
  56.4307671  43.7951164  30.2808342  55.4967308  43.9403038  30.1300640
  56.8522606  44.5910568  29.9567146  20.8898430  35.6158485   9.4620676
  21.0186958  36.2422752   8.7498760  20.0085735  35.8004494   9.7869043
  86.5100632  70.6889191  12.5846691  87.2040405  70.5726318  11.9357433
  86.3293076  71.6288605  12.5762224  57.7734108  53.3103943  62.5565681
  58.0395851  53.4402466  61.6463356  57.4836235  54.1751862  62.8470688
  20.7288151  19.0730400  77.1853256  20.1192837  18.3531017  77.0228653
  21.5035095  18.6516228  77.5574570  51.5311165  66.0051804  33.9881248
  51.8130226  66.3501740  33.1409264  51.3500633  65.0800934  33.8217812
  76.1298752  25.7603207  83.1763382  76.8593903  25.9471951  83.7672043
  75.7617950  26.6197243  82.9709778  55.8758545  23.8502960  11.0340099
  54.9325676  23.7253342  10.9299669  55.9606972  24.3902245  11.8198290
  63.1362686  25.0010509  44.0652924  62.9670219  25.5869160  44.8030891
  62.3558884  25.0759315  43.5160789  12.0506210  59.2931366  58.8928413
  12.8715096  59.7852631  58.8793678  12.0341940  58.8782921  59.7553177
  64.9786987   9.8806667  77.7283630  65.0784988  10.7578230  78.0983200
  64.3971786   9.4278631  78.3391342  27.7626457  40.4225731  88.4187546
  28.5233669  40.0236130  87.9964218  27.1744537  39.6884270  88.5956421
  19.8346786  34.3817940   5.9733758  19.2934723  33.9007721   5.3473210
  19.2870712  34.4574890   6.7548037  56.9720383  60.2885399   0.1633293
  56.8738747  59.4177437   0.5484449  57.9184532  60.4214287   0.1097325
  26.6951752  11.4356842  68.1542892  27.3238640  11.0085306  67.5724640
  26.6921062  10.8934555  68.9430923   2.7767212  35.1670380   6.6939096
   3.0506306  35.7863350   7.3704305   2.6459732  35.7065277   5.9141102
  32.8100433   2.0037611  18.6038342  33.1257706   1.7210680  17.7455616
  32.6978836   2.9504726  18.5178719  11.5109701  69.9994736  86.5419235
  11.6453981  69.7235794  87.4485931  11.9093161  69.3041382  86.0184174
  81.8025742  56.5986977  55.5673676  82.2189178  55.7649078  55.7857399
  81.6994171  56.5730057  54.6160889  33.3693542  59.0446281  44.4617119
  32.8257675  59.8317490  44.4272881  32.8059769  58.3817558  44.8610077
  57.9921951  39.5708580  60.5222931  58.0026360  39.0056725  61.2947502
  58.1717186  38.9801102  59.7908401  43.5571709  37.6179733  12.6097574
  43.7155724  38.1542130  11.8328466  43.5928764  36.7164993  12.2899170
  39.3791695  40.0320435  66.6324463  39.6629639  39.4309540  65.9436874
  38.6884155  39.5574417  67.0948792  55.7942543  16.6193123  31.9593906
  56.2544022  17.3501225  31.5465813  55.1327858  16.3598042  31.3180256
  43.9334183  35.1709824  85.3737946  44.7285919  34.9098358  85.8382645
  44.2498741  35.6479797  84.6066132  30.9605255  10.7602530  76.8860779
  30.2892570  11.2624855  76.4241333  31.2750225  10.1289215  76.2389755
  77.1389236  45.8430977  16.0202293  77.5584641  45.1880493  16.5780182
  77.5362778  46.6727905  16.2847118   2.3766234  24.0537262  87.2243500
   3.0801022  24.6827869  87.3844528   2.8250260  23.2663689  86.9157486
  32.3339119  61.4961433   6.0824385  33.1636543  61.5427780   5.6074848
  31.8704910  60.7598495   5.6832542  22.3330708  45.2983627  58.7386131
  22.9122906  46.0026207  59.0297394  21.4560432  45.5923615  58.9848289
  80.8729172  55.9084473  11.2758589  80.2083588  56.3478546  10.7452726
  81.6780014  55.9862099  10.7639799  73.4230042  68.9124908  49.3418350
  73.3400726  68.7872849  48.3964882  72.8695602  68.2309418  49.7231674
  44.7856293   4.7748423  38.2311935  45.2895470   5.4503694  37.7773666
  43.8876534   4.8987856  37.9237633  27.0702648  21.3397923  70.0341949
  26.4840717  21.8656979  70.5782852  27.6198864  21.9816532  69.5845718
  22.4014320  54.3319931  26.6001263  22.4206734  55.2659798  26.8087559
  22.8312244  53.9113274  27.3448105  56.4922981  23.2231960   0.1583548
  57.1490822  23.0559635  -0.5175897  56.7782631  22.6975307   0.9054374
  82.5603256  67.3050003  36.5415421  83.1455154  66.8505020  35.9355583
  82.8026276  66.9702377  37.4049377  17.0009308  45.5277824  69.3415146
  17.1199589  44.5899544  69.4916382  17.8870220  45.8888817  69.3676071
  54.0125008  32.1324005  56.9278145  54.3139000  31.7997818  57.7732468
  54.3784904  31.5232868  56.2865181  44.6221733  22.2874947  88.5293961
  44.1372414  21.5513153  88.1564178  45.0803070  21.9153481  89.2829590
   2.2417972  27.5101891  36.5616341   2.2515903  26.7625217  37.1592407
   2.1170084  27.1227322  35.6953011  55.5940895  36.4102440   5.5166998
  55.0689583  35.6961327   5.8779712  56.2011299  36.6406937   6.2199969
  13.8165493  64.5729065   9.2688484  13.8548632  64.8056564   8.3411665
  14.4455290  63.8574715   9.3624630  11.2963371   2.5361121   7.9925313
  11.0134134   1.8430793   7.3959646  11.4909458   2.0818293   8.8122787
  15.2679033  27.5429020  67.5778351  15.4328718  27.8640461  66.6913300
  16.0936584  27.6835480  68.0410614  36.2419434  59.7643967  46.6314125
  35.9620972  58.9339981  46.2462425  35.8504028  59.7672882  47.5048676
  57.0567131  59.4668961  73.8208466  56.1827469  59.0891571  73.9194717
  57.2799721  59.3174095  72.9021301  22.6102161  42.1161041   3.2408080
  22.0645790  42.8844223   3.0728796  23.4363155  42.3073196   2.7967033
  31.2817135  64.8235397  74.9065552  30.6478100  65.4822464  74.6228256
  32.0303230  64.9442902  74.3224030   6.9846249   9.7118616  25.5836468
   6.9481664   9.9804935  26.5016556   7.8184786   9.2488976  25.5025024
  85.7675934  29.9852448  84.7745209  85.2368546  29.5096436  85.4135513
  85.2289734  30.7371559  84.5280304   1.3217496  64.8870544  50.9728088
   1.1598064  65.2491913  51.8439369   0.7091242  65.3516083  50.4026222
   2.6000772  34.2773781  78.0630112   2.2922392  35.0230865  77.5478592
   2.2328792  34.4209175  78.9352493  11.2548590  15.9686337  86.0378876
  10.7498217  15.1831293  86.2480087  10.9915771  16.6070747  86.7006912
  52.3022690  37.7077217  27.4303074  52.8676682  38.2113991  26.8447590
  51.5675468  37.4371567  26.8796635  78.2967834  66.2596893  59.4849510
  78.1559677  65.5275879  60.0853081  77.6485291  66.1298904  58.7927475
  74.5461578  47.3091164  78.2994919  74.4861603  47.8549538  77.5154648
  74.9690628  47.8698006  78.9498901  80.7545547  43.9813957  25.6935425
  81.5976410  44.4108124  25.5485077  80.4402847  43.7677917  24.8149986
  46.6345482  29.2291603   1.8802606  46.1297493  28.5528812   2.3319855
  47.3183365  28.7471085   1.4151882  82.8657837   8.5675392  68.8250046
  83.5518570   8.9817152  69.3484421  83.2741852   7.7735815  68.4799423
   5.3204012  63.5043297  50.9589577   4.9369898  64.2332458  50.4711990
   5.3238273  63.8006554  51.8691292  44.6113472  58.9289665  69.3789291
  44.4083176  59.5562935  68.6850510  44.3734169  59.3815422  70.1881256
  56.1590118   6.6601634  23.8661594  55.4176788   6.3476458  23.3475151
  56.7328568   5.8983259  23.9470253  84.5299835  50.8333054  56.0312119
  85.4824448  50.9234886  56.0614548  84.3323288  50.6890182  55.1058197
   1.4940870   7.0208430  58.5483398   1.3441137   6.8660507  59.4809570
   2.3475986   6.6241918  58.3739319   5.5823665  42.3847046  67.9359360
   5.8578486  41.9886169  67.1092224   6.1597509  41.9949379  68.5923996
  80.0993271  23.2501812  83.2592239  80.0991821  23.7281342  84.0885544
  79.9712982  22.3353310  83.5099945  31.2007542  47.9164581   0.8371840
  31.4292927  48.7097282   1.3216727  30.5815449  47.4586258   1.4056917
  85.7481537  35.6448364  10.4984474  85.9095459  35.4791985  11.4272900
  86.5029602  36.1591797  10.2121906  74.6954346  32.9693947  31.8098202
  74.7867355  33.8750229  31.5136147  74.4247589  32.4878540  31.0281029
  73.4807587  27.3373280  42.3134613  73.1554184  28.2046452  42.0723190
  74.3956757  27.3379650  42.0321312  43.2050362  34.9236488  88.3729324
  43.1173439  34.6687584  87.4544678  44.1418114  35.0823936  88.4890518
  63.7409630  56.6703682  53.0984383  62.9203682  56.2490845  53.3541374
  63.4833069  57.5510445  52.8259392  46.2489166   9.1167021  64.2789917
  46.5414658   8.2387209  64.5235291  45.9781075   9.0329494  63.3647270
  70.0310516  64.7673798  40.0790825  70.8014603  64.9583435  40.6140862
  70.1561050  63.8623657  39.7935181  76.1287384  27.0584755  41.6611214
  76.7645187  27.5720863  42.1593323  76.2398071  27.3518429  40.7567825
  53.9317169  47.5153923  85.5248947  54.8745384  47.5579605  85.6846085
  53.5418930  47.9761505  86.2678452  32.3518524  66.8463287   0.8654392
  32.8856812  67.4029617   1.4323801  32.2438164  66.0340958   1.3602484
  59.0029411  36.0895576  32.1737022  58.6106186  36.8591576  31.7613544
  58.4231873  35.3670197  31.9327488  28.8140297  49.8292122  46.4924393
  29.7615681  49.9584656  46.5336266  28.6898613  49.1890106  45.7917557
  41.9756851  28.7640247   9.3623781  41.9550247  29.2946453  10.1587753
  42.2422943  29.3742847   8.6748209  62.3547554  20.0969124   6.1303535
  63.2444801  20.3865051   5.9284706  61.8419838  20.9044590   6.1645145
  59.9415512  66.1122513  21.0658569  59.7400818  65.6644592  21.8875160
  59.3807373  66.8879318  21.0720577  56.9244728  13.6324453   3.1862669
  57.5904617  14.3077307   3.3154078  56.1067505  14.0467072   3.4618583
  64.1703949  30.5104809  27.1844940  64.2792511  30.2546043  26.2685757
  64.4929123  29.7596111  27.6829014  22.0678101  51.3629112  59.8162193
  21.6492023  51.8073692  59.0790215  22.8759422  51.0025902  59.4510841
  78.4227753  59.0140572  49.6731682  77.8068695  59.7286606  49.5112190
  77.9243088  58.3806038  50.1893997  32.4542656  53.6138420  39.6047325
  32.3270416  53.9151306  40.5043259  33.0605888  52.8772392  39.6823273
  69.5388031   4.3299031  53.0180092  69.5603790   4.4239130  53.9703369
  68.6973495   3.9107482  52.8377190  38.6184082  64.8311768  88.0430298
  38.5669289  63.9555092  88.4261475  39.0880470  65.3508224  88.6954422
  48.5649757  48.3599014  27.2662697  47.6237030  48.2816124  27.4215355
  48.9631081  47.7687721  27.9052448  77.4412766  33.5612335  15.1377516
  77.4837494  33.1225815  14.2880392  76.5302200  33.8442345  15.2159338
  54.2259521  13.5760155  20.3288059  54.7742767  13.6714592  19.5500488
  54.7922592  13.1453495  20.9691582  86.4660187  33.8703613  85.6830368
  86.7521286  34.7791176  85.7754135  86.5192490  33.5112877  86.5687332
  15.0349627  42.9388924  21.9428883  14.3501453  43.3213997  21.3943005
  15.7371044  42.7186623  21.3307400  45.3222885  10.6351271  70.2468796
  44.4654732  10.2998219  69.9829254  45.2139091  11.5860920  70.2592087
  27.0566711  18.9701977   8.6485653  26.3564625  18.7130051   9.2483902
  26.9169579  18.4292736   7.8713183  66.5557098  23.7319813  62.6185570
  66.2575378  24.4215622  62.0254288  67.2251434  24.1529045  63.1579247
  56.4999313  56.9354553  71.4841614  55.9941788  57.4573669  70.8612213
  56.2053986  57.2366600  72.3436737  51.1008759  27.9090195  88.3269424
  51.5466461  28.6647224  88.7096100  51.4318695  27.1596775  88.8220749
  72.9477158  36.2545776  78.3270111  73.0933838  37.1141281  77.9318161
  72.4301987  36.4362373  79.1114883   3.9509947   8.1500092  15.5410271
   3.8482897   7.8398628  14.6413088   3.1467161   7.8763103  15.9819994
  66.0680618  28.4862614  85.4593201  66.4597244  27.6636124  85.1659164
  66.4856033  28.6630783  86.3023071  49.2352180  37.7674942  89.0128479
  48.9570274  37.2443886  88.2610474  48.4289589  37.9315376  89.5019989
   9.3878584  32.0587425  22.6985855   9.2355566  32.9974327  22.8076706
   9.9322968  31.8158169  23.4474545  67.1354523  59.5815926  42.5825272
  67.0708771  59.5591660  41.6277695  66.9364777  58.6864738  42.8571320
  76.0245209  52.1484871  83.2421570  76.2145844  53.0616951  83.0273056
  76.7690430  51.8676491  83.7741776  52.8615723  67.6887207  41.6881065
  52.2930031  67.3406754  41.0012093  53.6183090  68.0389175  41.2180519
  32.0179100   5.3950162  22.8818645  32.8345833   5.6885295  22.4779758
  31.4448128   6.1609101  22.8472652  53.9267502  27.7104721  40.5371437
  53.3502998  28.2956905  41.0285301  53.4677849  27.5606308  39.7106285
  57.1904488  29.0511341  24.2810402  56.4536247  29.3251762  24.8271389
  57.0769424  29.5370865  23.4642162  43.5268631   7.9528646  15.3604660
  43.7296448   7.5318494  14.5250864  44.3386917   8.3947563  15.6092615
  39.5527916  25.4810047   6.0947795  40.2925110  25.9115829   5.6662312
  39.1839409  26.1528912   6.6681437  54.6577911  48.8300629  31.6672363
  54.8112831  48.5688820  32.5752335  54.3447456  48.0335350  31.2385445
  38.1088142  69.9076843  36.2935715  37.9774933  70.6173935  35.6648445
  37.2313919  69.5562668  36.4447937  72.1780701  42.8634949  55.4182358
  72.7065964  42.6766548  54.6423645  72.7144928  43.4653778  55.9341965
  51.7912025  13.7995319  21.6915474  51.6165123  13.8025484  22.6326656
  52.7387657  13.9166517  21.6234550  47.2087402  16.6186275   7.0283360
  46.3226776  16.2801170   7.1569304  47.7768555  15.8602257   7.1636219
  35.1383171  61.5641823  15.6557178  35.9781113  61.2751503  16.0126972
  35.3210945  61.7511902  14.7349281  67.0314941   1.7320513   8.4303474
  67.2181625   1.0129598   9.0339155  67.0409164   2.5152020   8.9806366
  16.5931110   9.3339939  83.1837006  17.2994270   9.0461931  83.7620773
  17.0358105   9.5926847  82.3754120  62.8156242  17.9576130  84.2192383
  63.1194916  18.4735699  83.4724503  63.6005630  17.8175163  84.7488327
   1.2267847  42.0978203  28.5003185   1.4782630  42.1289139  29.4233704
   1.8591372  41.5012321  28.0997658  39.4963646   4.5004454  42.0511436
  40.2643089   4.0102639  42.3447723  39.4131813   5.2156439  42.6818619
  36.6137390  24.9065437   6.6871929  37.4692841  25.0916443   6.2998776
  36.8126411  24.4112053   7.4817433  31.7187233  35.6638985   4.8827920
  32.6138039  35.3577843   5.0289311  31.1884346  35.1550331   5.4960461
  65.4426804  53.6846085  19.8972301  65.7439880  53.2771378  19.0851879
  64.5235596  53.8953285  19.7327766  54.1833267  26.8893566  22.3109684
  53.4465790  26.2865868  22.4114838  54.9393044  26.3210793  22.1633549
  68.3387604  61.2364006  62.5016632  68.7407150  62.1008606  62.4157600
  67.6842880  61.3440895  63.1918068  62.0642967  42.4936905  18.7895870
  62.1413651  43.3728943  19.1601143  61.6365929  41.9812775  19.4756889
  73.6483383  41.3082924   3.1297605  73.0884399  40.7679482   2.5722921
  73.3709488  42.2064247   2.9490666  50.1288490  37.7999573  23.2040882
  50.0575371  38.0074654  22.2723770  51.0397339  37.5297203  23.3202496
  59.6552887   3.3481557  34.7394562  60.2522697   3.7329648  34.0977669
  59.6980171   2.4067016  34.5719185  11.9624748  36.8211517  62.2118149
  11.7816238  36.8546410  63.1511803  12.6898413  36.2043533  62.1297836
  83.4421387  56.8980255  85.5278854  83.6127853  56.0365181  85.9085693
  82.4878998  56.9519844  85.4755096  25.3349876  64.3621979  59.2483826
  25.0776768  65.2736130  59.3874741  24.5981979  63.9747505  58.7758827
  14.5532551  31.8850422   8.1322060  14.5169392  31.6736641   7.1993432
  15.2885914  32.4926605   8.2116604  60.9936905  62.1522789  14.8669987
  61.1649628  63.0819092  15.0176115  61.3743706  61.7123756  15.6271305
  25.5344696   3.2163785  84.2559128  25.1639862   2.6118081  83.6128922
  25.4072895   2.7784297  85.0974884   2.4073467  30.0979519  19.8082066
   2.6850202  29.8078327  20.6770916   1.4660573  30.2483139  19.8953686
  57.3710289  11.0645847  61.3271370  56.6073303  10.5097065  61.1686745
  57.9394875  10.9108725  60.5725098  46.1598854  67.3734207  20.9595146
  46.9836731  67.0183487  21.2934685  45.6160126  66.6030121  20.7954884
  37.6829224  65.5506897  14.1586132  37.9923019  65.7964325  15.0304670
  36.9231606  64.9920654  14.3227129  82.0530014  57.4498405  35.9537964
  81.3800125  56.9606171  36.4270592  82.0283813  58.3255157  36.3395653
  28.7169304  34.4806747  22.4702148  28.2775154  33.6549339  22.2670040
  29.6237907  34.2317924  22.6487999  63.9616623  52.2982025  35.2071762
  64.0892334  51.5730743  35.8188515  63.5472946  51.8970490  34.4432335
  46.6663094   5.7199039  32.3187370  46.1425285   4.9323807  32.1714439
  46.2617264   6.1379352  33.0788651  44.9050369  68.1896896  36.6777611
  44.9077911  68.7878571  35.9304848  44.1163483  68.4222183  37.1677856
  49.5633583  34.3721123  53.2363129  49.2797089  33.9926758  54.0680618
  50.4833527  34.5960770  53.3765907  64.6902924  49.3163605  35.0049744
  64.5730743  48.5210724  34.4853477  65.5617371  49.6322365  34.7661362
  75.5035095  52.4265594   3.8032372  74.7349167  52.1806488   3.2884383
  75.9759064  51.6046829   3.9358842   3.4286401  34.3010902  29.0019760
   3.5612538  34.3434639  29.9489975   2.6909337  33.7015190  28.8900204
  67.7384872  24.7355576  36.8162003  67.5091858  25.1914597  36.0063820
  67.5335541  25.3622227  37.5101204  82.8810883  33.2004318   7.4279957
  82.2461700  33.2750778   8.1404133  83.7290497  33.3495026   7.8462873
  65.2181015  31.6021347  14.4637632  65.1063538  30.9523602  15.1576929
  65.4582214  31.0894146  13.6919537  65.2375946   8.1732349   5.0762501
  64.9363937   7.4625607   5.6423359  64.5411987   8.2740812   4.4273305
  46.5780144   7.2804861  72.4843597  47.3738441   6.9964900  72.9340668
  46.0094604   7.6023006  73.1839447  66.7299881  32.0443344  11.5056810
  66.6183319  32.5941429  10.7301311  66.3452988  31.2029228  11.2601748
  16.3478813   0.5468498  74.0779190  17.2454662   0.6641851  73.7667847
  15.8398170   0.3764069  73.2847900  64.7397079  56.2898102  47.6501350
  65.2594070  55.5231934  47.4083748  64.6041336  56.7569427  46.8257332
  78.4576645  61.3469429  35.3503265  77.6307449  61.5759964  34.9260941
  78.7187576  60.5238152  34.9373856  84.8441315  20.9097290  81.8983994
  84.5096283  21.3674526  81.1271515  84.3245926  20.1071281  81.9446640
  18.7507572  58.7385750   8.6524239  18.2519798  58.0073318   8.2880917
  19.5950737  58.7000542   8.2031155  63.8470001  62.3581123  47.6695595
  63.7973480  63.0692062  48.3083992  63.0922775  61.8040771  47.8687248
  45.5020676   1.5563360  84.3401871  45.5414848   0.7985091  83.7567673
  44.7006187   2.0134234  84.0852737  25.3757706  50.0869904  54.7662506
  24.6496544  49.9248047  54.1640244  26.1593475  50.0174141  54.2209091
  62.3969650  31.5383720   7.7093925  62.1284828  31.6043892   6.7929916
  63.1417885  32.1349068   7.7843275  69.6729965  32.6437721  65.6979675
  70.3096466  32.6927719  64.9848785  68.8900452  33.0703621  65.3497620
  36.1781464  67.1505432  45.6927567  35.5144119  67.1842651  46.3816338
  36.5164680  68.0445328  45.6421700  24.1980019  11.3742886  73.4574890
  23.3514652  11.1912613  73.8650589  23.9772644  11.7585516  72.6090546
  34.5165749  37.7477226   7.8073096  35.2586517  37.9732475   7.2463346
  34.9126701  37.5201836   8.6484804   1.3116257  30.3573036  81.6104813
   1.1547847  30.3239250  80.6668091   0.4371194  30.4008255  81.9972305
  85.5126724  49.4033546  51.0607491  85.1720123  48.6361961  50.6007004
  86.0779343  49.8352585  50.4203033  77.7431793  60.8500900   7.5518923
  77.1726532  60.7016716   8.3060141  77.9924698  61.7718964   7.6179013
   0.9028850  70.6726151  66.4362411  -0.0189319  70.7091064  66.6914902
   0.9344501  71.1162262  65.5886307  13.6761990  32.2457733  63.7605553
  14.0081110  31.4064789  63.4417267  13.5533056  32.1132584  64.7005386
  29.7561646  68.7133636  23.2329121  29.5709629  69.3693161  22.5608578
  29.0324497  68.0905151  23.1655598  63.9999237  40.1541328  21.2869339
  63.2201309  39.9362831  21.7975140  63.9741516  41.1075020  21.2053318
  18.0019073  67.5197144  73.4964218  17.6187496  66.7991333  73.9965973
  18.7349110  67.8208084  74.0333405  30.4838982  48.7445183  28.0570126
  31.2937260  48.4906960  28.4997139  30.7385731  49.4733162  27.4911251
  54.0820503  15.8534908  48.3707733  54.4807930  15.0579433  48.7233925
  54.7129135  16.5456238  48.5687599  41.9595070  25.9502182  87.2288132
  41.4732704  26.6146507  87.7170105  42.4732323  25.4922905  87.8941116
  41.4024239  39.5617485   7.7285967  42.3180733  39.6676064   7.9866881
  41.1845093  38.6646156   7.9813828  13.5893517  41.6886292  58.3476601
  12.7996082  41.3931694  57.8946228  14.3104401  41.3244400  57.8342133
  46.1811981  40.6964607  65.2341614  45.6805153  40.6721306  66.0496140
  45.6678276  40.1691628  64.6220779  85.3241043  51.8538780   3.6521063
  85.1690750  51.0003548   4.0566950  84.5274429  52.3528099   3.8327520
  56.8654099  10.0013905  78.8116379  57.0034027  10.9284201  78.6171951
  57.7302246   9.6039724  78.7097092  60.4011497  11.5232763  30.5758553
  60.2629051  11.9328852  31.4298687  59.8697128  12.0424900  29.9723454
  22.7906380  63.1039543  68.5974426  22.0961170  62.5642624  68.2198105
  22.6305923  63.9801025  68.2467499  65.2307816  21.5971527  30.6119499
  65.8641739  20.9943180  31.0013580  64.4643784  21.5408516  31.1826401
  39.8633842   3.6418862  32.3939056  39.7910500   4.4843130  32.8425903
  39.8104897   2.9919765  33.0946579  28.3134575  45.5220528  45.9870033
  27.6896992  45.5252190  46.7130547  29.1422386  45.2548218  46.3844223
  15.2956896  41.1904869  13.5936022  15.1373463  40.8012390  12.7335768
  14.7331877  40.6943398  14.1882982   5.7435741  30.7236156   6.4897127
   4.9236650  31.2092800   6.5797691   6.3434238  31.3416786   6.0720882
  45.9071922  71.9008102   1.0928483  46.6411285  72.0489044   1.6891978
  45.7206993  70.9651489   1.1702946   0.4599077  42.9817886  75.3558655
  -0.3474152  42.4748001  75.4420319   0.2393347  43.8447876  75.7063065
  44.3153763  40.5603447  46.6298294  43.3914146  40.6257668  46.8711700
  44.7237930  41.3246918  47.0362816  68.0482941  18.7091026  15.9639816
  68.6339035  17.9799366  15.7599945  67.2955856  18.5804653  15.3868208
  77.1180801  13.1551962  76.2037888  77.1164169  13.3280287  77.1452560
  77.7212143  13.8045530  75.8421326  45.8780823  24.5269032  37.3945122
  46.7713089  24.8544044  37.2890778  45.5732613  24.3704967  36.5007248
  46.4711342  43.3183403  42.1158447  45.5611420  43.4776268  42.3663940
  46.7739601  42.6471329  42.7274094  58.7312546  15.6507187  82.0272064
  59.4454689  15.0463972  81.8249054  57.9595985  15.0904179  82.1099319
   7.2036738  50.3758850  13.5980225   7.2364979  49.8775101  12.7814579
   6.9885268  49.7258339  14.2668839   2.0734065  48.6010971  61.0742722
   2.6961989  48.9608650  60.4426651   2.1392508  49.1813507  61.8326912
  54.9205093  63.8249550  28.0296211  54.3403893  63.3846893  28.6507950
  54.4243240  63.8449287  27.2113094  47.9686813  15.1664858  81.1975174
  47.0625305  15.1146107  81.5015335  47.9140472  15.6243267  80.3586960
  45.8006248  10.2032280   5.0802193  46.5774231   9.8930244   5.5456080
  45.7106743  11.1179581   5.3474464  55.6970596  60.5607452  40.7253532
  55.8420563  61.2676620  41.3542252  55.4812660  61.0084496  39.9072876
  86.3597488  39.3094559  11.4974480  86.9375381  38.6829605  11.0616655
  85.5932922  39.3654709  10.9267998  60.9909477  12.5783587  47.8044472
  61.0591049  12.1993580  46.9281235  61.4857559  11.9793968  48.3635902
   3.1352093  47.9058762  50.3439293   2.9644868  46.9866409  50.1387711
   2.5739605  48.3939819  49.7414474  74.8535614  16.8521633  39.1291161
  74.7542877  17.5068417  38.4379044  75.0203094  17.3633537  39.9210205
  62.6856613   1.4542361  46.2089729  61.9151955   1.2516329  45.6783485
  62.3433990   1.5638603  47.0961418  19.8390942  22.3153706  44.6792068
  19.2247963  22.9832325  44.9838905  19.2934723  21.6844254  44.2097015
  43.5621071   5.3489981   7.9171891  43.4371605   6.2888498   7.7856622
  44.1193695   5.0770974   7.1879692  86.7578964  24.6685181  37.8616066
  85.9761734  24.8373318  37.3356438  86.7828064  23.7161922  37.9548149
  65.9720154  65.5354080  15.1137934  66.5263214  65.6368790  14.3400459
  65.1064682  65.8279953  14.8283949  11.7274332  66.5379410  70.1043091
  10.8096943  66.6719131  69.8675919  12.0090895  65.8002090  69.5633316
  35.0355492  52.9062347  42.1504250  35.9794388  52.9891434  42.0146828
  34.8452110  51.9886436  41.9554138  55.0656700  59.4335327  23.6639519
  54.1574135  59.1314964  23.6725292  55.0561676  60.2359734  24.1857109
  73.0198517  11.9127979  57.4083443  73.3797073  12.0208797  58.2887154
  73.1548920  10.9869385  57.2064018  70.8382034  17.3161259  80.9594040
  70.6399002  16.6555882  80.2956238  70.2123032  17.1441689  81.6629028
  18.7222881  60.4963837  71.9012070  19.6090336  60.3950233  72.2471008
  18.8089008  61.1508980  71.2081375  54.3506737  31.0710773   3.9431705
  54.5432091  31.2299995   3.0191004  53.4858780  31.4586983   4.0777459
  76.4071808   8.5613852  18.1513500  77.3556442   8.4605513  18.0708199
  76.1251678   8.8700228  17.2902794  47.4377899  53.0235176  36.4346085
  47.0782013  52.4028091  35.8008537  46.6705971  53.4635696  36.8006706
  26.9511204  64.6937256  64.4316483  27.4616661  65.0034485  63.6835556
  26.5629692  63.8713913  64.1327438  53.2544212  23.0790138  10.4608078
  52.3695946  22.9648228  10.1139994  53.6058044  22.1904774  10.5179300
  54.3925591  33.4439774  12.3643694  54.3631210  34.2691460  12.8485804
  53.7259331  32.8978653  12.7810278  33.9493256  16.9623165  69.0524597
  33.5058479  17.8103428  69.0727158  34.8155746  17.1535645  68.6929245
  70.2005310  11.6315145   4.1870513  69.4706268  11.0537090   4.4097843
  70.7252579  11.6736164   4.9865041  68.8023605  65.1840897  44.4954643
  68.0454178  65.0586395  43.9231567  69.2513733  64.3387756  44.4874840
  74.8142624  25.8620872  21.9743214  74.1348877  25.2468128  22.2502155
  74.4810333  26.7202358  22.2365665   4.7656560  63.7437706  59.6581497
   3.9473743  63.3480682  59.9582634   5.4349527  63.3774796  60.2361679
  56.4164009   0.9400162  68.3461761  56.4200821   0.0867032  68.7798538
  55.5901451   0.9597214  67.8633270  84.4477844  34.8434830  65.5962524
  84.8550491  34.3105164  64.9133835  85.0798187  34.8356285  66.3150635
  33.0974655  51.5664291  79.8195572  33.3403511  51.6809731  78.9007950
  32.5263367  50.7982903  79.8223419   0.2904795  22.1099358  38.6888428
   1.2324805  21.9447861  38.7287369   0.0051923  22.0915489  39.6023521
  33.8043098  65.0146637  73.4151764  33.9561081  64.9427490  74.3575287
  34.6813469  65.0416412  73.0326767  26.9321861  35.9871368  17.0730877
  26.6273670  36.7618790  17.5454121  27.5022202  35.5359001  17.6957283
  36.1634331  60.6384277  56.8723831  35.7565956  60.6009598  56.0067558
  37.0021515  60.1904373  56.7624321  16.1608238  13.6689377  11.3073053
  16.1418896  13.1364365  10.5121222  15.2444963  13.8961296  11.4652939
  50.1023865   9.7779140  23.3915253  49.8663864   8.8669262  23.5665588
  51.0504684   9.7589064  23.2610912   2.3623333   3.8591847  63.9940681
   2.2064438   4.7607899  63.7129288   3.1467075   3.5912426  63.5153236
  66.8665314  56.4043465   5.0825920  67.5255203  56.7832870   5.6642900
  66.6809845  57.0963745   4.4478507  39.1057167   0.9057587   9.4148912
  38.2128448   0.5766426   9.5182858  39.0599403   1.4883921   8.6568184
  48.9395180  23.2822857  62.9128761  48.4073715  23.6968708  63.5919762
  49.0988350  23.9782066  62.2752686  53.4162331  22.8201866  70.6416855
  52.9914970  22.0254383  70.3188705  54.2856979  22.8064995  70.2415848
  62.8357773  61.6567154  56.7695427  63.6094360  62.1599960  56.5157814
  63.1566086  61.0395393  57.4271049  11.8632708  56.9510193  21.3563919
  12.6894522  57.3428841  21.6394081  11.4043350  57.6594963  20.9050941
  30.7501583  35.6953049  79.3930206  31.0297337  34.7809372  79.3483200
  31.4567890  36.1391716  79.8619461   9.3729687  52.5127296  27.4464207
   8.4953127  52.8804779  27.3429108   9.5514956  52.0803223  26.6113262
  67.2176895  37.9593697  75.7321167  66.9605865  37.6701660  76.6076126
  68.0981598  38.3168907  75.8469162  45.3342285  22.4876862  16.7373409
  45.1185837  22.8580971  17.5932178  45.3191986  21.5406361  16.8755569
  66.5234604  65.5843964  73.2944260  65.7337494  65.1422043  72.9828796
  66.4269104  66.4877243  72.9929199  85.9263992  55.9684982   7.1385918
  86.2461624  55.4950752   6.3705688  85.4247513  55.3176193   7.6294522
  54.7985878  10.7154131  58.8793068  54.4739723  10.2137966  59.6271286
  55.3475609  10.0975027  58.3965569   8.6772175  17.5000668   8.9850359
   9.1159172  16.9572258   8.3299789   8.0631914  16.9057503   9.4163046
  82.8050537  68.2249908  63.8799400  83.7098618  68.3494720  64.1664124
  82.2959137  68.8218079  64.4284058  66.4400558  43.6703453  71.0869370
  66.4265060  42.7162819  71.0106659  66.8613434  43.8372574  71.9300766
   3.9560170  40.4306641  87.8023605   3.3335445  40.6149178  88.5057907
   4.0902996  41.2759895  87.3738480   9.7141542  23.4226608  88.5286179
   9.3493385  23.1332130  89.3648911  10.4235048  22.8052273  88.3502121
  73.6465225  30.8584099  76.7700882  73.5510406  31.0311794  77.7067108
  72.9647903  31.3890610  76.3579254  17.3859787  30.3173923  70.3420258
  18.1212254  30.3242016  69.7291641  17.6500511  30.9173260  71.0395737
   9.7750912  40.7692604  16.4100113   9.6684923  40.2688942  17.2190228
   8.9527454  41.2499504  16.3155746  43.3604584  40.9420052  76.1869125
  44.1353416  41.5038795  76.1960602  43.6825409  40.0947952  75.8791351
  79.8157120  11.2734375  49.7729721  80.2654343  10.5818710  49.2874641
  79.5881729  11.9235926  49.1083260  81.6498032  41.8812561  51.4294777
  81.8930969  41.7978172  52.3514748  82.1671524  42.6210594  51.1112556
  72.1131973   7.3153076  78.8999252  71.1873856   7.5574880  78.8784943
  72.5687256   8.1291370  79.1153336  19.6981907  50.0725174  72.4565048
  20.4154854  50.7021675  72.3839874  18.9242477  50.6096153  72.6261139
  45.2086716   3.3905153  75.6386642  44.2961617   3.1766186  75.8330994
  45.2806282   4.3263021  75.8266983  58.5745163  55.3064690  12.9474564
  58.5830727  54.9618683  12.0544796  57.8457565  54.8537331  13.3719215
  75.6922379  54.9053612  22.9105759  75.7303467  54.3830566  23.7118092
  75.6304550  55.8100433  23.2171173  28.0926476   6.7627382  70.8380356
  27.2025776   6.8542252  70.4979858  28.0263500   7.0248051  71.7562714
  16.6879272  53.8141708  71.5750351  16.0736637  53.9747047  72.2913742
  16.6135712  54.5887718  71.0176392  78.5456238   6.6161971  10.9355755
  77.6206665   6.4737406  11.1365585  78.6558228   7.5661974  10.9754057
  26.5173283  56.5723610  18.1999435  26.5657616  57.0884209  19.0046597
  25.6623135  56.1440163  18.2412033  59.4563866  28.1756077  38.6878853
  60.2614632  27.6583424  38.6650963  59.7261353  29.0509129  38.4098396
  74.9555130  41.0273056  30.4733391  74.3694153  41.0613747  29.7173252
  74.3843155  41.1791840  31.2262592  11.4094419  67.4949570  22.0584793
  12.0974798  67.7737350  21.4542274  11.7989283  66.7696075  22.5467377
  58.3678360  22.2793045  10.1766367  57.7461700  22.7409229  10.7393723
  59.2234497  22.4609699  10.5654240  22.6314487   1.8807484  26.4346733
  23.0586681   2.2634661  27.2009907  22.8250484   0.9452598  26.4947758
  72.8557358  17.6454582  34.8911514  73.2729416  17.3218765  34.0927353
  73.3504944  18.4329453  35.1176720  80.6994934  49.8417358  87.9618149
  80.5994644  49.1883469  88.6541367  79.8582687  50.2978973  87.9396362
  87.0176086   1.6129124  60.3168259  86.4742355   1.9164008  59.5895882
  86.6876068   0.7360073  60.5126991  79.2018204  42.8705864  50.4790726
  80.0928040  42.5241394  50.5275764  78.6880798  42.1579018  50.0991020
  25.9982262   9.0387201  14.8537169  26.6881447   8.9668312  15.5133209
  25.5820713   8.1767406  14.8474789   3.3686979   5.4368305  18.4591274
   3.6981142   6.3297448  18.5612068   3.1956508   5.3510947  17.5216103
  32.4011917  53.6026497  81.4166260  31.9896755  54.1635818  80.7591782
  32.6403427  52.8087654  80.9383163  36.1502686  49.0795212  44.4833908
  35.2442856  49.3275070  44.2991982  36.5247726  48.8850746  43.6242256
  66.8088455   1.3340371  23.5954990  67.6730499   1.6490707  23.3306694
  66.4067230   1.0264999  22.7831268  26.5531311  66.5375671  44.7454185
  25.7582150  66.0094223  44.8189430  26.2665520  67.4300079  44.9394684
  61.4535713   0.3820992  37.5099297  62.1751213   0.6515527  36.9416084
  61.8409996  -0.2664649  38.0977211   3.9256876  58.7840042  66.9713287
   3.8465426  59.7371407  67.0100403   4.7892423  58.6001625  67.3410721
  71.4498367  43.2486954   1.1268034  70.6835098  43.5420876   0.6339499
  72.0901794  43.9512482   1.0145401  41.5743675  21.7860546   0.6870338
  41.8271408  21.8113499  -0.2358408  41.6987877  20.8725643   0.9444957
  42.1318512  34.7249336   1.5106773  41.3708305  34.2783165   1.1397244
  42.6495590  34.9880905   0.7497821  55.5392342  52.0162926  87.2014313
  55.9941635  51.5047798  86.5323792  55.5316124  52.9090881  86.8563385
  22.3058338  63.6958733  76.4959259  23.0215492  63.7941971  75.8679810
  22.6480103  63.0938416  77.1567612  21.0860291  13.3099079  49.3420639
  21.0463428  12.9196119  50.2151756  21.3884697  12.5998745  48.7758369
  81.4287796  30.5496674   3.2923319  81.4340668  31.3888283   3.7527785
  82.2172089  30.1026001   3.6001494  50.9140434  46.8971519  45.5460510
  50.3432655  47.6002693  45.8560028  50.5029106  46.0951653  45.8685722
  69.6446152  58.6186333  69.9157333  69.6841812  59.3446770  70.5382462
  69.7800522  59.0281448  69.0612259  52.5988808   9.0733585  23.7155647
  53.0254097   8.3214197  23.3045979  53.2905502   9.4893723  24.2301102
   7.8893247  62.6768265  50.9164352   7.8877411  61.9845123  51.5774422
   7.0585804  63.1341591  51.0466042  67.3861542  13.4300642  82.4683533
  67.2789841  13.8565264  81.6181335  67.2062836  12.5056620  82.2970047
  75.1434860  61.3856239  77.7186356  75.3220062  62.2213707  78.1497879
  74.2537994  61.4772797  77.3776245  68.3916245  12.3547125  73.4274750
  67.7107849  12.0504293  72.8273926  69.2057724  12.2624216  72.9326172
  54.0221672  32.8871422  66.3133163  53.3886948  33.5641441  66.5512466
  53.5567169  32.3332443  65.6865845  77.2702713  42.6619873  85.5653992
  76.8911591  42.9887581  86.3813171  77.0568619  41.7289047  85.5589447
  26.0494919  52.3044510  10.7558498  26.6339931  51.6904564  10.3113241
  25.6632347  52.8217735  10.0491590  41.9104538  25.2658463  64.2075424
  42.2990799  24.4914780  63.8006592  42.1443748  25.9865990  63.6227112
  34.3438644  31.5181789  16.4877567  34.9068298  32.2824707  16.3646317
  34.9047890  30.8748436  16.9210186  39.4103127  41.1550102  86.9149628
  38.6569786  41.6010132  86.5279236  39.0272369  40.4780998  87.4728851
   9.4620266  61.6501656  57.5695763   9.4395742  62.4920387  58.0245247
   8.5942831  61.5685463  57.1738586  23.3125687  44.8297272  25.4720860
  23.6456413  44.6441269  24.5941067  22.7898102  44.0602341  25.6975613
  56.7831154  20.0418987  76.2191544  57.0742264  20.3878307  77.0628510
  57.5811195  19.7089539  75.8085861  80.3317490  41.3852463  30.3935623
  79.5076065  41.6825829  30.7790661  80.9280930  42.1260262  30.5023937
  16.1985855  29.1291027  74.8126602  15.4648409  28.9856186  75.4103699
  15.9364519  29.8863239  74.2890778  39.7673378  30.0071239  19.7033157
  39.2119293  30.7113991  20.0376072  39.2532883  29.2113228  19.8400078
  19.7820854   4.1528182  20.3878975  20.5344086   4.6117792  20.0142708
  19.2511158   3.9069648  19.6303635  84.1275253  58.2288551  81.9957962
  84.3881531  58.6378517  81.1705551  84.4469604  57.3290405  81.9285355
  83.2137299  35.3968582  54.7496681  83.2465973  34.9718170  55.6066933
  82.3404541  35.1933289  54.4147072  58.7789955   5.9433537  25.9365501
  58.3969879   6.8120694  25.8115025  59.5577583   5.9417839  25.3799915
  76.4493256  33.1935272  52.0041656  76.2902679  33.0433388  51.0722961
  76.3388062  34.1376190  52.1168938  35.1657448  60.2686920  49.0928459
  35.2821503  59.5278435  49.6876755  34.3872108  60.0460052  48.5824280
  18.6958714  21.1043224  76.9398727  19.1340027  21.8081684  77.4182816
  19.2993908  20.3636112  76.9977036  32.2195854  32.2760735   4.0751424
  32.4602890  32.1134109   3.1630921  32.8796272  32.8933716   4.3906116
  66.3767014  13.9474316   0.2216098  65.7032928  13.5957842   0.8039231
  66.1188736  13.6489038  -0.6505358  86.1307220  36.8414726  17.2435246
  85.8915024  36.4811401  18.0974369  87.0852203  36.7756538  17.2146587
  41.0352440   1.6603780   3.4138269  41.8274574   1.1713413   3.1913977
  40.3192139   1.0512742   3.2334826  46.0150146  28.9761543  16.4434490
  46.7575760  28.9068031  17.0434704  45.3567009  29.4692459  16.9330578
  51.4574127  51.8006973  67.4832611  51.2486534  52.6619835  67.1215515
  51.1048813  51.8226852  68.3729095  70.9974442  47.5381813  31.0844040
  70.2109299  47.8560753  31.5277672  71.7207718  47.8410072  31.6333408
  33.7352142  70.9250412  34.8153915  33.8594475  70.4781799  33.9780693
  33.4851990  70.2293091  35.4234009  64.5609055   9.8821545  71.9259338
  64.8477020  10.2944784  72.7407761  65.0520782  10.3368111  71.2416306
  47.1353035  42.4084969  37.4761200  46.2185669  42.6761131  37.4112587
  47.4126434  42.7114258  38.3407288  31.8674812  71.4181900  56.5431099
  31.0261440  71.2810593  56.1077003  31.6704941  72.0203247  57.2606506
  86.5549469  71.1559219  45.6900787  86.9883347  70.7078323  44.9637032
  86.0352325  70.4742889  46.1161118   0.7584454  43.3187561  19.3453331
   1.1926312  43.7004356  18.5824203  -0.1736894  43.4743462  19.1931877
  11.0653315  24.2854958  11.7335682  10.5135269  24.1995010  12.5109673
  11.7960968  23.6877041  11.8912392  31.7795792  61.1393700  24.2057705
  32.4586334  61.7159615  24.5559921  31.3438454  61.6632462  23.5335197
  72.8814850  65.9116821  83.6070862  72.6192017  65.0902252  84.0225906
  72.4136887  65.9177399  82.7720032  66.0175858   1.4136049  71.8962631
  66.5064011   2.0381544  72.4322052  65.1369019   1.4140037  72.2712708
   3.2692511  39.2485924  19.5866032   2.9330385  40.0347633  20.0168686
   3.7488005  39.5780487  18.8265209  59.3389282  22.4922237  70.0551224
  58.7147217  22.1579723  70.6992264  59.7173119  21.7074585  69.6586380
  52.9279022  61.0481186   1.3115741  52.0597076  60.6923943   1.1220140
  52.7784195  61.9832687   1.4507810  69.8420334   6.9722862  47.3345222
  69.1271973   7.3812127  47.8223915  69.7296448   6.0339260  47.4864426
   0.2919326  61.1748314  83.6501007   1.0822842  60.8431854  84.0762253
  -0.4095057  60.6090240  83.9727097  71.2739563   2.2674050  12.5325003
  70.5576172   2.7331724  12.9639587  71.7363434   1.8262266  13.2450914
  43.3655396  69.7387238   4.7351465  44.1418304  70.2423553   4.4902897
  42.8073196  69.7661362   3.9580555  29.1048756  68.9799194  18.7836342
  29.6329193  68.6611710  18.0516510  29.7353287  69.1221619  19.4896984
  59.4045486  45.2535286  68.3212509  59.6855850  44.3573456  68.1365662
  59.7637329  45.7705727  67.6002197  42.6429749   1.1688464  32.7237015
  43.2510834   0.4547633  32.5325851  41.8974648   1.0099862  32.1447258
  70.8331375  66.7405243  59.6706886  71.4393158  66.4609604  60.3567085
  71.2828827  66.5285950  58.8527336  57.7377968  10.8922977  14.1156120
  58.2395706  10.7664528  14.9209805  56.9558563  11.3697939  14.3927355
   8.2294254  56.0858727  55.2599831   8.0048456  55.2067871  55.5649490
   9.1105156  56.2398376  55.6008759   4.8539624  61.7375069  35.2252350
   5.0280972  62.4590302  34.6208191   3.9209063  61.5537224  35.1163330
  85.2322922   8.7368231  23.4782963  84.9268570   9.3749657  22.8335361
  85.7280350   8.0976906  22.9664555  80.9170074  47.2163429  55.8009071
  81.3984451  47.9614868  56.1603661  81.3513565  46.4486694  56.1727219
  83.3668518   3.8432522  12.2187815  83.2490997   2.9365740  12.5021544
  82.7960281   3.9316981  11.4555216  84.1739349  39.7114372   9.7238770
  83.5233841  39.4591789  10.3791475  83.6591110  40.0697327   9.0008202
  18.3861408  10.7411127  78.4035797  19.3135452  10.8494244  78.1928101
  17.9269905  11.2375221  77.7260895  20.5100880   1.1107565  60.6247101
  20.1739635   1.5282316  59.8316345  20.3464718   0.1770783  60.4916420
  45.9007607  27.4064522  84.7256088  46.6613884  26.8418999  84.8632965
  45.1668625  26.7998238  84.6274872  70.0410614  55.1607971  17.9138584
  69.8434677  54.8504219  18.7975178  70.8832550  55.6075439  17.9996529
  74.4729385  40.1978912  57.4221840  73.9223404  39.8417053  56.7248993
  73.8534241  40.4916229  58.0901260  31.8082905   0.9113930  41.9304352
  30.9460068   1.2983751  42.0819092  31.7596111   0.0490192  42.3429527
  27.1939869  27.5861588  11.8011618  27.6801147  26.9324799  12.3037739
  26.8608646  27.1061668  11.0429611  86.8192978  63.7191277  84.5492477
  87.0041885  62.9351501  84.0321198  85.9899139  64.0459290  84.2005997
   9.5927248  10.3128414  75.1824646  10.1733294  10.4627047  74.4363632
  10.1549730   9.9154882  75.8474655  77.5104446   6.6912837  43.6566429
  78.3545227   6.2400403  43.6686363  77.6352539   7.4480329  44.2293434
  63.9044304  58.9192734  27.3143482  64.5486221  58.2552376  27.5599155
  63.7894897  58.8041840  26.3710690  71.1169128  11.0923786  47.8287125
  71.2192535  11.7382956  47.1297455  71.8490067  10.4881477  47.7055283
  30.7143173  50.0756226  78.9135818  30.2376480  50.7975273  79.3233032
  30.2121315  49.2945709  79.1459579  44.8861961  30.0315552  20.4539032
  43.9767647  30.2752781  20.2813797  45.3750725  30.8492165  20.3608341
  54.9857407  32.4132042  78.6471634  55.7141380  31.9571724  78.2256088
  55.4034081  33.0020142  79.2757263  42.8552856  60.6422234  10.3332291
  42.0265045  61.0833206  10.5197268  42.6614380  60.0731850   9.5883474
  78.7113266  15.0663528  72.6669464  78.6041641  15.9277906  72.2636185
  79.0272903  14.5072098  71.9571915  60.2237854  35.5458260  17.4284000
  59.6685944  34.9222374  16.9602776  59.7482185  36.3749771  17.3776493
  55.5105133  39.3158798   6.5805583  54.8678589  38.9682236   5.9622054
  55.5737495  40.2458229   6.3627543  47.9139023  52.2263336   2.7487001
  47.3543129  52.9197006   2.3989382  47.6645584  51.4452744   2.2547297
  85.8903351  60.8146553  78.0983200  86.1073608  61.4166641  78.8101578
  86.6616669  60.8258438  77.5316238   1.8966414  63.5159378   3.5873942
   2.2992342  63.1720543   4.3848238   1.0921549  63.0071335   3.4866328
  46.5754623  38.0953102  85.3938522  45.7439575  38.5039291  85.6343842
  46.4853897  37.9000092  84.4611282   3.7774303   3.1377084  66.6785202
   3.3532419   3.9956541  66.6635056   3.3336368   2.6390624  65.9924927
  86.2807007  67.8713684   7.4627528  86.4326096  67.4725876   8.3195667
  86.7729645  68.6918411   7.4897723  48.4746590  25.9730282  85.4417648
  49.0502853  25.2880592  85.1016083  49.0416832  26.7387447  85.5333710
  43.8161583  61.0158577  43.4137497  43.8483810  60.9542160  44.3684196
  43.4339218  61.8764687  43.2420731  36.1780128  23.3368397   4.1492267
  36.1754646  23.3877411   5.1050692  36.9725685  22.8468132   3.9375877
  48.4542885  31.7595215  51.3883629  48.1040802  30.9239635  51.6972809
  48.9078903  31.5426445  50.5738449   3.3010399  48.8995323  85.1284637
   4.0127158  48.4815788  85.6133041   3.7330718  49.3236465  84.3870392
  38.5371246  52.0059128   8.6689777  38.8009453  51.8765984   9.5799704
  39.1558075  52.6528625   8.3299818  56.6779289  55.4804764  31.8239613
  56.8111191  56.1113510  31.1165085  55.7501450  55.2514687  31.7691383
  73.7336426  25.8507175  52.0688400  74.1014709  26.0403233  51.2057152
  74.4160309  25.3493042  52.5151138  72.6878967  61.8653336  76.8833694
  72.3141327  60.9851990  76.9269028  71.9306564  62.4494133  76.9241562
  51.5448532  47.5531807  17.5881462  50.6587715  47.5661163  17.2263050
  52.0873833  47.9513054  16.9074192  70.4606857  44.6820297  32.8297577
  70.8879395  45.3162880  33.4054413  71.1468353  44.4125786  32.2191582
  60.4815445  13.9063864  41.2480240  59.9191551  13.4030466  41.8367500
  59.8795090  14.2856493  40.6077576   7.9806781  57.1108818  32.9104652
   7.2556586  56.4915047  32.9938316   8.6047239  56.6726646  32.3318748
  75.4628220  29.1404190  21.5362339  76.3172760  29.0101318  21.9475327
  74.8608017  29.2669334  22.2695770   0.1050098  19.0309086  14.8072853
   0.0295681  19.8367462  14.2962389   0.2438874  19.3294125  15.7060852
  39.9669228  67.8843689  27.4727402  39.3902397  67.8041840  28.2325039
  39.4688950  67.4982910  26.7522259  66.4483871  18.2605801  56.4291458
  66.3765030  17.3995438  56.8410721  65.7585678  18.7812595  56.8405647
  74.1189880  30.5737648  14.8836184  74.9781723  30.1976547  15.0748425
  73.9858246  31.2279110  15.5696173  45.7556725  51.6509132  34.4654846
  45.8862190  52.5228386  34.0927429  44.8090477  51.5829544  34.5900383
  56.5362015  18.9220352  70.1324615  55.9415779  19.3484974  69.5153885
  55.9808617  18.3112755  70.6170273  79.6981812  13.8969278  68.6967010
  79.9801712  14.1935701  67.8314133  80.4650345  13.4536896  69.0596161
  39.2223740  56.3131409  41.2367058  38.3580818  56.2629852  41.6450119
  39.8155518  55.9318275  41.8839874  45.5376434  54.6612206  24.9032326
  45.1634026  54.1203537  24.2077923  45.0686874  55.4931412  24.8382473
  28.7051640  37.0489197  83.4082031  28.9993610  37.2202950  84.3028030
  28.0968647  37.7623596  83.2153015  84.4479370  29.1618233  16.5362186
  84.4401474  28.4853439  15.8590555  83.9189148  29.8715000  16.1719074
  43.2249756  47.7712746  38.9082069  44.0361938  48.2772217  38.9548035
  43.2178307  47.2553482  39.7144356  44.5947533  70.9776840  11.9021511
  44.8645821  70.9772339  10.9837704  44.2620010  70.0932007  12.0544529
  84.6334686   8.6468334  26.0445042  85.1460571   9.4141912  26.2987728
  84.8915176   8.4758263  25.1387444  34.7399673  69.6062775  26.2611027
  34.6624680  68.9428787  26.9467621  35.0246086  69.1193085  25.4877529
  40.3799171  64.4990692  60.3272972  39.5124321  64.7844543  60.0404892
  40.9824333  65.1277313  59.9298286  21.1491737   8.4347715  29.8702679
  22.0666142   8.6103020  29.6611671  20.6669712   8.7279720  29.0971279
  79.2964249  67.0659714  14.7027950  78.9513855  66.7235641  13.8782148
  78.6744690  67.7472763  14.9581757  74.1995010  23.3512459  28.5070629
  74.8265381  23.6252117  29.1763897  74.7129135  23.3105545  27.7002239
  56.9519920  46.2488899  58.5035057  56.9730644  46.6494293  57.6343956
  56.2195206  45.6338158  58.4660721  67.3877563  18.2542381  68.0107956
  66.9511642  19.0947170  67.8721848  67.9612350  18.1540565  67.2509766
  24.7690449  63.9543533  70.5920258  23.9697876  63.8693085  71.1118240
  24.4614277  64.0124283  69.6874619  73.9828262  23.0736656   7.0005126
  73.2539978  22.6512070   6.5460048  73.6676712  23.9577179   7.1885681
  56.0083275  35.7485390  67.6224594  55.8702316  36.4576759  68.2503815
  56.9582520  35.7082443  67.5117722  10.3594923  51.9583740  68.2892456
  10.5734158  51.6165390  67.4211349  10.8829355  51.4288902  68.8908234
   3.9693639  68.9079208  61.2423820   3.3425634  69.5210800  60.8584633
   4.0019627  69.1472855  62.1685982  81.8954239  45.5039558  70.0945053
  82.8299561  45.3850517  69.9249573  81.5571976  44.6154137  70.2055588
  14.7878389  67.9960098  87.3783722  14.6313772  67.1181641  87.0303345
  14.1097622  68.1143112  88.0435410  23.3059444  23.7935181  69.2202148
  23.0551949  23.9371281  70.1327591  24.2539864  23.9251118  69.2087784
  47.0616684  52.1231117  62.9499702  46.3182602  52.3989944  63.4861298
  46.6760788  51.8991356  62.1029816  39.4311829  15.5697174  19.8708763
  38.4864082  15.5140619  20.0141678  39.6081467  16.5078983  19.8020954
  82.7804947  37.9663124  19.8624172  82.7431870  37.9940109  18.9063454
  83.5737915  37.4671936  20.0567970   6.2120662  41.2079887  21.3909817
   6.4159107  41.3719254  22.3117447   5.4795218  41.7937279  21.1998806
  51.2739639  15.3115892  31.3302345  50.3724174  15.0563278  31.1345692
  51.2874336  15.4345913  32.2794037  47.7750168  38.2899857  25.3831749
  48.5434189  38.3424072  24.8148079  47.3136215  37.5041351  25.0902767
  43.8587112   3.7214792  83.8801956  44.5371284   4.3161726  84.2000732
  43.8157654   3.8911407  82.9391327  68.8877258  63.5361099   7.0278492
  68.5214386  64.2997971   7.4737706  69.6572418  63.3019943   7.5467620
  22.1889343  53.7691193   3.0331695  21.7690868  54.3293419   2.3803997
  22.5199661  54.3776512   3.6937284  59.2291451  69.6833038  65.1771545
  58.6501236  69.8176651  64.4268799  60.1024017  69.8938217  64.8464890
  75.5569000  49.4170494  38.1130791  76.0022049  49.6524696  37.2991295
  75.2580490  50.2522202  38.4728050   6.1549845  55.8613510   9.5877466
   6.6527982  56.5782890   9.9807043   5.3886290  55.7639198  10.1529341
  70.5430298  56.9083405   7.7806320  71.1941299  56.5214806   8.3659859
  69.9005585  57.3073921   8.3673353  62.8585472  29.9738388  37.0848389
  63.0256271  30.1392193  38.0127220  62.6604767  30.8362122  36.7197227
  45.8099594  70.8423920  17.7868252  45.8147202  69.9191742  18.0395641
  46.0681000  71.3095703  18.5813942  31.2001495  52.7858696  35.7097740
  30.8004570  52.5248032  36.5394287  31.6104870  51.9865875  35.3796158
  10.8466740  56.3349380  55.9112396  11.5288734  56.8362427  55.4645500
  10.9408102  55.4455528  55.5701218  22.0840855  58.2722397  71.4540634
  21.9026642  59.0009460  72.0476227  22.8549232  57.8451576  71.8277512
  38.5501175  49.8267708  68.4567642  39.4996338  49.8346214  68.5775299
  38.3857574  49.0656395  67.9000854  38.9817123  11.2543058  84.4091797
  38.5749359  10.4103165  84.2131042  39.0094757  11.7082376  83.5669174
  53.1950722  17.0366859  30.8077354  52.7915154  16.2072601  31.0635204
  52.7457008  17.6951370  31.3375816  79.8519516  44.9701767  48.7093697
  79.6293335  44.2229919  49.2647018  79.0401077  45.1736755  48.2448997
  73.4051895  49.6404457  66.9853210  74.1374588  49.7303505  66.3754578
  73.0543671  48.7670326  66.8112488  30.7892189  12.6049452   3.2887719
  31.4093704  13.3023357   3.5015883  29.9898071  12.8439245   3.7578785
  18.7114372  53.1799049  63.5015373  19.5449657  53.6260452  63.6512833
  18.0553875  53.7641449  63.8816566  51.9922295  70.1404953  49.1043129
  52.2546005  70.7137604  48.3840675  52.2863503  69.2697906  48.8367424
  68.5640793  49.1751633  63.8920746  68.6058655  48.9440002  64.8199997
  69.4765244  49.3146896  63.6386757  66.9022522  46.6917572  20.4164963
  67.4403839  47.4800720  20.3443794  67.3140030  46.1838036  21.1155510
  76.3606110  65.3370895  20.3399200  76.6136169  65.5798645  21.2305832
  75.9751968  64.4655075  20.4295692   9.0601397  46.4138412  63.2856293
   9.1323614  46.1167297  64.1926804   9.0203371  45.6072121  62.7718239
  57.4992523  68.2531967  20.2104034  56.8618164  68.9195786  19.9537907
  58.2245636  68.7491837  20.5900841  32.3570900  53.4740906  22.9176998
  31.6179180  52.9277840  22.6504860  31.9535427  54.2664299  23.2720699
   7.3319950  20.5010452  67.3669357   6.7682657  19.9842091  66.7913284
   7.2706070  21.3928299  67.0246124  32.9234085  40.9861145  72.7504196
  33.5235023  40.8349075  73.4806671  32.2394180  41.5478668  73.1148758
  56.1339188  67.1510391  14.7358513  55.9963188  67.4843369  15.6225386
  57.0739288  66.9767303  14.6886892  44.6790886  66.2865906  52.4119911
  44.2533264  66.0698395  51.5825500  44.0675163  65.9813461  53.0820923
  51.1907578  61.5230751  34.8076935  50.5143471  60.8460732  34.7884865
  51.0400620  61.9889526  35.6301765  44.2801247  42.1413879  34.8685188
  43.6748238  42.1069946  34.1278000  44.9282608  42.7996483  34.6178246
  32.1775894  20.4555721  16.4734325  32.7676430  21.1355801  16.1483822
  32.7559280  19.7321911  16.7152538   5.2996211  48.4465599  87.2114334
   5.9988728  47.8193436  87.3955002   5.3572130  49.0849190  87.9223557
  31.7095013  47.1966934  83.7949142  31.1752262  47.8345757  84.2680817
  31.4251709  47.2746506  82.8842468  69.1991882  12.9595881  86.6339417
  68.4098587  13.2640762  86.1861954  69.7531891  12.6137524  85.9341507
   1.0625956  50.5947800   7.5557923   1.8811666  50.2645760   7.9261136
   0.9545608  51.4611969   7.9480696   6.2670941  25.1836624  76.7520294
   5.3210588  25.1868267  76.8977661   6.3734198  24.8099442  75.8772354
  44.9384804  53.6670799  37.4204597  44.6956482  53.1266975  38.1722908
  44.8351059  54.5672302  37.7291222  43.8950806  71.3960648  45.2930565
  43.8414078  70.8542633  46.0803337  44.4257393  70.8821487  44.6843491
  72.2857132  50.5030785  48.9484749  71.6167145  50.5580330  49.6308632
  72.6864471  51.3722572  48.9353790  28.6515846  63.4394226  47.8455658
  29.1195679  63.6542435  47.0386734  28.2296104  62.6001968  47.6615295
  26.8003082  30.9165401  86.1385422  25.9032955  30.8392410  85.8135452
  27.1311646  30.0183582  86.1444092   0.1661154  42.6506996  51.5933380
   0.1142143  42.2270088  50.7365875   1.0057895  42.3635101  51.9520874
  47.4714165   2.1366668  44.0470581  48.2428780   1.5725867  44.1008911
  47.1012115   2.1210148  44.9296303  46.6253433  54.1811867   1.1666899
  46.0524178  53.4761887   0.8650910  46.1648903  54.9844589   0.9238582
  32.1090546  28.7841625  79.3872910  31.9227314  29.1284542  80.2607803
  31.3446331  29.0283680  78.8655090  25.1631260  57.0551376  49.1479530
  25.5905266  57.3518181  49.9514084  24.2319317  57.2185631  49.2976112
  70.4156418  53.6186295  87.1111984  70.8312683  54.2960625  86.5777359
  69.5379410  53.9574661  87.2874146  60.6941643  56.9414597  58.1125450
  61.1052742  56.8248482  58.9690628  60.5303497  56.0508881  57.8022575
  14.2277584   8.7877760   2.4236383  13.8306885   9.5609694   2.0227156
  14.9960270   9.1247883   2.8845263  68.8601608  27.0320301  65.8767776
  68.5019302  27.7407093  65.3422928  68.8239365  26.2621288  65.3091812
  44.9236526  62.4639626  52.2561722  44.3113403  62.9942093  51.7461281
  45.7859955  62.6957855  51.9114151  19.0310249  18.2493858  88.2597885
  18.3116016  17.6297398  88.1385498  19.3937588  18.3699322  87.3822250
  80.9611130  36.8400764  23.1505547  81.3521881  37.3004112  23.8931084
  81.6653900  36.7857056  22.5045986  75.7522964  22.3472481  19.1074810
  76.6891098  22.4862900  18.9686546  75.3576736  23.2060871  18.9561462
  59.4192924  28.1502399  64.7776794  60.2688332  28.5010719  65.0449448
  58.7917366  28.8306484  65.0215073   8.8505526  60.0620956  55.0779610
   8.8447294  59.3254738  54.4667435   8.0387630  59.9664612  55.5760422
  77.1219330  41.8168907  45.3500710  77.9519653  41.9953346  45.7921600
  76.4543152  42.1445389  45.9526978  65.7900009  33.3672447  61.7086906
  66.0672302  32.4585991  61.8259048  65.0568390  33.3167496  61.0953789
  83.7957993  56.2044678  67.4912262  83.5526352  55.8745422  68.3562393
  84.2394791  55.4682350  67.0701065  57.0603828  67.5902023  41.2558670
  57.9965248  67.7894669  41.2432060  56.7315445  67.9317169  40.4243202
  56.6996689  26.5275936  12.1134529  56.6974754  27.0005665  11.2812729
  57.6251755  26.3602371  12.2913895  60.7597046  67.3075714  24.5462742
  60.2658615  67.4983749  25.3437347  60.4364815  66.4521866  24.2632885
  27.8090420  24.9099674  12.5657911  27.5248260  25.2397461  11.7133245
  27.1359196  24.2763100  12.8140202  64.6983871  17.0284882   4.8045845
  65.1779251  17.5109138   5.4780369  64.0999756  16.4643536   5.2943769
  52.8802605  41.0903091  18.0657463  52.7843285  41.7349281  18.7668133
  52.0438728  41.1156921  17.6009388  51.6621132   0.7712699  69.4210434
  50.8511162   1.0124609  69.8686447  52.0306969   1.6045223  69.1276703
   9.4708395  42.0975876  46.2036743   8.8662300  42.4428673  46.8605309
  10.3163624  42.4856339  46.4289360  52.0410728  43.3311920  43.9002075
  51.6629181  43.3796654  43.0222092  51.4268761  42.7896919  44.3959656
  41.2056122  36.8158951  62.0121651  41.4120750  35.9077721  62.2333374
  41.4616814  36.9029427  61.0939674  33.3772354  62.8107414  71.5972061
  33.3132133  63.4551048  72.3021393  32.9654846  62.0237198  71.9539795
  28.7709141  70.0900574  88.3127365  29.2394695  69.2648010  88.4378128
  29.1699123  70.4762344  87.5330582  29.6941490  46.0465851  28.4593830
  29.9412708  46.9249420  28.1701584  28.7394142  46.0320892  28.3922768
  16.5084343   2.6467266  68.7738419  16.9613152   1.9263674  68.3354187
  15.8737984   2.9586296  68.1287155  52.3840408  56.0111961  57.4237480
  51.5274353  55.5916405  57.5039482  52.8323555  55.5118294  56.7411919
  81.7458038  26.5862637  78.6860352  81.5762405  27.5244846  78.7709961
  81.6387482  26.2422485  79.5728378  63.6524925  31.0240402  18.4300003
  64.2906113  30.7260590  17.7817383  63.4817963  31.9364281  18.1962395
  38.4878120  65.8808594  10.6597404  38.2312393  66.2160492  11.5188379
  39.1098518  66.5275040  10.3263540  20.9886074  20.6938229  87.1424484
  21.3712864  19.8356323  87.3249207  21.6347771  21.1312180  86.5880203
  69.8670883  45.1564713  12.8055840  69.5352325  44.2595596  12.7649183
  70.8105774  45.0572128  12.9329042   1.6965848  38.3850021  31.1231441
   1.6425985  37.5092278  30.7406025   1.9387398  38.2328453  32.0366211
  71.4187164  -0.0781322  26.1713715  72.0273972   0.4138974  25.6203270
  71.5968323   0.2305224  27.0597630  62.0000877  38.9746857  43.8120842
  62.8345184  39.4123955  43.9805069  62.1531372  38.4653931  43.0162010
  77.3370438   0.5892223  62.6288185  77.6597443   1.2573857  63.2335129
  76.7276230   0.0676987  63.1511650  55.2136650  43.3877144  53.5661125
  54.5907593  43.0588493  52.9179840  54.7439346  43.3342590  54.3984146
  12.7915974  13.2865562  80.9307709  12.9419909  12.3500824  81.0597305
  13.6630430  13.6788054  80.9851379  32.0421753  69.1178818  85.2632675
  31.9470482  68.5379486  84.5077133  32.4510307  68.5715790  85.9345474
  76.0777359  16.1060009  20.7420368  76.4169235  15.4297695  20.1556129
  76.4663544  16.9192944  20.4199162  39.3286667  45.0084038  81.6778259
  40.0943375  44.6595573  81.2214432  39.4523125  45.9574585  81.6621780
  65.8176117  26.7587471  75.1305542  66.4379349  26.4798584  74.4570160
  65.3744354  27.5165348  74.7490005  54.0357437  56.8162460   4.7658253
  54.6264153  56.8748207   4.0148849  53.4994278  57.6071854   4.7109637
  32.1724014  69.3433228  66.3668976  32.8971519  69.8990173  66.0802460
  31.4010735  69.9072495  66.3097382  63.8802719  27.2039108  62.1877365
  63.1792603  26.5949554  62.4200974  63.5521393  27.6631279  61.4146347
  78.9308548  64.1260147  44.3378410  78.6884232  63.7965088  45.2032204
  79.8846359  64.2007599  44.3685684  61.7877083   6.3915844  40.1993942
  61.1838036   6.9647303  39.7271309  62.4495659   6.9835167  40.5568771
  63.4825211  28.3636589  73.8244095  63.2841072  27.9293308  72.9948120
  62.6338005  28.4500999  74.2584991  56.5904427  63.1956863  60.3399315
  56.2619591  62.5014992  59.7685928  56.3535042  64.0073395  59.8912544
  72.3044968   2.4735439   9.8167381  72.4398346   1.5350696   9.6856556
  72.0461197   2.5523107  10.7350349  75.6818085  24.8762646  34.8566360
  76.0940704  25.4552879  34.2155418  75.1607819  25.4608154  35.4071426
  55.2116661  66.2780380  73.5039749  56.0414238  66.3794403  73.9702911
  54.8269653  67.1545258  73.5062637  54.4832344  70.2242661  20.3706245
  53.6624260  70.5536804  20.0045776  54.2147064  69.6888657  21.1172619
  78.4594040  43.3351479   9.7832909  79.3194351  43.4176598  10.1953239
  78.6465759  43.0183029   8.8996563  70.4859924  49.5527611  28.9908829
  71.3771820  49.5673790  28.6418800  70.5886536  49.2644653  29.8978443
  50.6320038  43.9773254  56.4876137  51.2832565  43.2762489  56.4633026
  50.5675049  44.2758865  55.5804558  35.6956139  52.5887756  27.5363426
  36.2043190  53.3471069  27.8233757  35.8816071  51.9143906  28.1896744
  24.1260700  33.2951546  79.3640289  24.2456112  33.9999161  78.7274399
  23.4422035  32.7431984  78.9846878  12.1671648  63.7462845  73.7019806
  11.6109009  64.5112610  73.8490143  11.8205080  63.0803757  74.2958069
   7.5498853  71.0076599  34.9993057   6.6295424  71.1950150  35.1839714
   7.9784126  71.8631821  35.0255775  82.6705627  52.4229164   4.1372681
  82.5769348  52.4805603   3.1864035  82.9121017  51.5109787   4.2993107
  12.2172213  42.0416794  78.1478424  13.0467567  42.5130157  78.2249374
  12.4636946  41.1171379  78.1744614  81.8447952  62.7251129   1.9839295
  82.5084381  62.0505486   2.1280620  81.3017807  62.3793907   1.2755225
  21.4552383  46.7077141  25.8174744  20.9442406  46.9769630  26.5807686
  21.2933960  45.7674446  25.7404480  30.3924313  48.7403069  13.3194847
  31.1397667  49.1853600  12.9199219  30.7722950  48.2283592  14.0335178
  41.1773415  71.6390991  51.8932381  41.8168793  70.9564590  51.6902046
  40.4118080  71.4151382  51.3640594  32.1649437   1.4694273  69.1193390
  31.9850578   0.5479802  69.3059082  33.1042213   1.4979885  68.9372025
  27.7391949  59.9657555  70.7034378  27.7941227  60.7398949  70.1431503
  26.8940563  60.0491829  71.1450348  74.2214966  35.5454407   3.9665020
  74.7985687  34.8228722   4.2137165  74.4246826  36.2395325   4.5935435
  79.2418823  70.2884216  60.9852638  79.4245148  70.0627899  61.8973885
  78.4140549  70.7678375  61.0182610  34.4500504  67.9915543  79.3575439
  34.6280327  67.9153214  78.4201279  35.1994057  67.5703812  79.7786407
  52.7858315  42.3372765  22.9014816  53.2786064  42.3075027  23.7215519
  52.2230721  43.1067238  22.9880142  50.8953552  16.8528919  77.3320847
  50.3435364  17.2883263  76.6823730  50.7454910  15.9188175  77.1862183
  86.9794693  51.9137306  74.0456848  86.4428177  52.0836716  73.2715073
  87.0261841  50.9592094  74.0999069  66.9214554  49.0902977  58.4106750
  66.7052841  50.0227699  58.4091568  66.9675751  48.8566399  59.3377724
  70.3435135  71.0558777   8.5801926  70.5456924  71.9773407   8.4181499
  70.0610428  70.7194977   7.7297277  43.6896400  70.3311462  23.1925354
  42.9772186  69.9115906  23.6748848  43.3956451  71.2335052  23.0678902
  85.4798355  66.8151474  38.1643105  85.9192200  66.1806717  37.5980797
  85.5223999  66.4263000  39.0379372  67.8421707  54.6380005  22.6803551
  67.3672714  54.7072105  23.5085545  67.7783432  53.7125702  22.4442711
  63.0367203  22.7632771  67.0980759  63.1378021  23.2116566  66.2584534
  62.7519226  23.4484711  67.7027512  86.5491028  23.1665363  29.0972919
  86.3334579  23.7728901  28.3887291  86.4747086  22.2985420  28.7007046
  29.2758770  55.7826195  17.5995750  29.6070728  56.6805344  17.5824585
  28.3369522  55.8704872  17.4354725  45.7127037  57.9086418  79.0560455
  44.8545723  57.7501106  79.4493790  45.5612717  57.8363495  78.1136703
   1.3264596  46.0923080  80.2676392   1.0731349  46.9110641  79.8413773
   1.9365599  46.3590622  80.9552841  68.7096786  71.3466644  32.5989571
  68.1519394  70.6427689  32.9301529  69.3995209  70.8964005  32.1115036
  45.5781593  48.8775558  60.9536552  44.7993660  49.4059258  61.1283989
  45.8742142  49.1655960  60.0901642   4.2184782  10.3800058  85.0269699
   3.3528206  10.0721521  84.7584686   4.5899582  10.7702065  84.2357864
  24.2838345  70.8156891  67.5693970  23.8579063  70.9193115  68.4203262
  24.0258484  69.9414062  67.2773132  26.1125298  60.2837982  26.1086388
  25.8283710  60.9576912  25.4910984  25.3114681  60.0214195  26.5621681
  74.3768311  49.5950127   9.4804878  73.7288818  49.3154144  10.1271925
  74.0763702  50.4589767   9.1984816  73.4483337  61.7407227   1.6631895
  73.7857437  62.3387566   2.3300788  72.8197021  61.1907234   2.1306844
  72.4108887  46.0617485  87.0491943  71.9860306  45.2468948  86.7813492
  71.8106842  46.4459915  87.6882095  31.9944782  23.3941841   1.7518971
  31.4676094  23.8392563   1.0881560  31.4186802  22.7117004   2.0967243
  34.8751335  59.1678772  10.8054209  34.0859985  59.6460991  11.0599861
  34.6470947  58.7557640   9.9721184  43.6509171  34.4542007  29.9152718
  44.5413284  34.1703491  29.7083187  43.6967354  35.4102821  29.9088573
  86.2277069   6.6241746  21.8111248  86.9689484   6.4467869  21.2320518
  85.4696426   6.6542268  21.2274628   1.3492918  24.9857426   7.4894013
   1.4613965  25.1457386   8.4264526   1.9422624  24.2591553   7.2978597
   6.4216323  17.4072075  73.6681442   6.1012955  17.3012218  72.7723846
   5.6353850  17.5854321  74.1841736  35.2752495  69.6546478  68.1779861
  35.5134125  69.1287537  67.4144821  35.4295502  69.0761719  68.9248352
  -0.2764739  14.4039049  25.4214344   0.3867576  15.0597439  25.2064209
   0.0591174  13.9726067  26.2073059   1.6042862  30.6812592  30.6564903
   1.5307527  29.7325077  30.5530548   2.5064943  30.8216553  30.9437904
  82.3177795   7.5496039  48.6131287  82.2040558   6.6256518  48.8358650
  81.5980911   7.9942746  49.0609550  54.9787636  25.1363811  15.1612015
  54.5004921  24.3968315  14.7862978  54.3052826  25.7941628  15.3343296
  35.5084152   8.4002829  19.8572273  35.3472023   7.8381386  19.0994434
  34.6436653   8.5322523  20.2458420  57.6346130  58.1166573  23.5628204
  58.0428085  58.7755280  24.1245117  56.7362404  58.4254494  23.4453087
  66.5511169  38.3455009  26.2234859  67.3262711  38.6364632  26.7038078
  66.8833389  37.6967049  25.6030598  23.9002342  65.3290863   1.0619620
  23.9559383  64.9979324   0.1655979  23.6001110  64.5794754   1.5760107
   4.3713393   6.3222241  62.4590530   4.9835424   5.9218392  61.8416939
   4.6308069   5.9753962  63.3126411  42.8829269  69.5070343  17.9271545
  43.8168488  69.3060532  17.9873543  42.8521194  70.4356079  17.6968689
  80.9571915  55.1617928  13.9641533  80.6278305  55.3910561  13.0951376
  81.1563187  56.0033302  14.3745127  24.6652336  65.0533066  66.1743774
  25.4680519  65.5645218  66.0725174  24.9303112  64.1520157  65.9909744
  71.6048508  37.0476189  60.9000778  71.6076660  36.0904312  60.9044914
  72.0512314  37.2846947  60.0872040  48.3240280   0.7682822  30.0818214
  47.8020439   0.2942938  30.7292042  48.3206215   0.2018477  29.3102188
  54.2903214   2.8464787  88.7081604  55.2111282   3.1050017  88.6692276
  54.0093384   3.0931811  89.5893021  76.8150711  35.5150986  56.2389755
  77.0879364  35.1017685  57.0580826  77.3789062  36.2845192  56.1595154
  52.0712242  48.8008270  33.7651138  53.0092926  48.9004631  33.9273796
  51.8546562  49.5150032  33.1657143  21.1804905  61.1281319  28.5207005
  20.3095417  60.8525658  28.2347946  21.2626228  60.7795296  29.4083729
  57.0266685  48.6011467  15.1584129  56.6401062  47.7288818  15.0812473
  57.1795769  48.7132111  16.0966511  35.7969856   0.7394324  56.0572357
  36.5577469   1.2978114  55.8969612  35.1356239   1.3323312  56.4140320
  73.1541824  32.4911995  82.3520279  73.8117294  33.0182457  82.8059921
  72.9521103  31.7823257  82.9626846  12.7743397  25.5253487  14.3922920
  13.1313133  24.7110405  14.0377445  13.5396137  26.0850353  14.5239697
  21.9239998  11.4883442  65.6749344  21.5434628  12.3545341  65.5295410
  22.7710896  11.6645374  66.0843658  66.2473145   8.0009632   8.6902447
  66.1959381   7.3323154   9.3732538  66.1670303   7.5129023   7.8707433
  53.8893623  26.9918804  85.5837631  53.8767433  26.2870426  84.9362488
  54.1253967  26.5591335  86.4042816  17.1718330   2.2992983  11.0072937
  17.3748341   3.0248120  10.4168253  16.2989140   2.0107291  10.7408876
  35.5121689  50.5937576   0.9370404  35.6294556  50.3871994   0.0097815
  34.7061386  51.1091385   0.9675238  83.2876205  20.0108986  35.6393204
  83.7379456  20.4598713  36.3547630  82.5507812  19.5682430  36.0604515
  84.4582977  29.5862904  19.7922859  83.8004532  30.2526093  19.9910069
  84.7284851  29.7768707  18.8940029  54.4112587   9.8330431  13.6228094
  54.7008133  10.5927515  14.1280146  54.2711105  10.1725044  12.7388659
  18.9333687  71.6424026  67.5951462  18.7883396  70.7824860  67.2004929
  19.4125443  71.4574966  68.4028778  29.7060318  68.8712997  62.3600197
  29.2768021  68.5563660  63.1555176  29.5870495  68.1630325  61.7272263
   5.6306577  69.4594955   6.4814792   5.6785054  69.9861526   7.2793341
   5.0516729  69.9546738   5.9019904  21.2948151  14.3755341  15.6398630
  20.4097557  14.1767759  15.9454746  21.2680855  14.2013731  14.6990204
  24.9750099  61.3263245  23.5943069  24.5964622  61.0089989  22.7744064
  24.4553185  62.0993614  23.8146820  21.1644402  65.7504425  18.7321892
  20.9058285  65.5950317  17.8237839  20.3692303  66.0738068  19.1556358
  50.0003624  42.9447021  67.5653381  50.5886841  42.8092270  68.3081436
  49.4237213  43.6563911  67.8432159  11.6904335  38.4435120  13.1615725
  11.0248270  38.9680710  12.7165604  12.4614344  38.5065041  12.5978155
  69.5147705  51.9902382  32.9827766  68.7815475  52.5103493  33.3115501
  70.0267258  51.7778587  33.7631798  38.1555595  45.2284813  85.2140121
  37.4107323  45.6120987  84.7510834  38.1132851  45.6079750  86.0917511
  80.9645386  39.0238724  53.6622429  80.2609406  39.3725777  53.1149025
  80.5260696  38.4156723  54.2572823  56.2824821   4.2242208  65.9550476
  55.5667953   4.5367975  65.4015808  56.5256157   3.3789065  65.5774689
  45.9426384  53.5592346  27.5929031  45.9292297  53.9804459  26.7334652
  46.0054474  52.6237411  27.4001942  57.7599945  46.3382225   3.3482611
  58.4715958  46.3293228   3.9883983  57.6457748  47.2631645   3.1299448
   0.4699016   5.4153466  71.9662018   1.0714588   6.1324563  72.1664886
  -0.2794415   5.5630984  72.5431595  45.3055382  13.6160164  68.6707230
  44.8362694  13.3460379  67.8813400  45.4384499  14.5574732  68.5601501
  20.5719490  18.4779873   1.6590419  20.2965755  18.5441246   0.7446971
  20.0524616  17.7566490   2.0140579  65.8145981  43.3326836  67.2250290
  66.0745163  42.9594383  66.3827972  66.5719833  43.8480072  67.5025940
  72.1764984  32.8034515  71.7397156  71.4073181  33.3260841  71.9665146
  72.4653244  32.4287605  72.5718307  35.6236839  40.7338371  47.7444687
  35.5659561  41.5911026  48.1663704  36.2104836  40.2288704  48.3074112
  27.3002644  61.8356056  60.7626572  26.5972309  61.3622704  60.3177605
  27.8706493  62.1373100  60.0556450  71.2863235  60.5648308  55.3851242
  70.4666519  60.9579887  55.6847992  71.9037476  61.2954559  55.3503304
  38.4272194  32.7224350  74.5800476  38.4759483  33.5154762  75.1138458
  38.4698105  32.0051003  75.2123871   1.2208664  53.8025970  50.0755119
   1.6395134  54.6527672  50.2103233   1.8860847  53.2755547  49.6328583
  68.0009003   4.8050861  22.8724136  68.2177811   3.9022253  22.6399574
  68.5763016   5.0072956  23.6101456  37.1823349   4.2192025  70.1605759
  36.4413528   4.4509597  69.6006927  37.8001328   3.7846942  69.5725632
  71.2288055  53.7305031  75.8566437  70.6888428  53.1485405  76.3914261
  72.1289444  53.4772110  76.0611572  42.6817551  63.5392189  51.1827431
  42.1700020  64.3480225  51.1960983  42.3587189  63.0389938  51.9321785
  28.2087440  34.0542488  79.6414261  28.8769417  34.1866913  80.3138885
  28.4971619  33.2741966  79.1675415  26.1586704  39.4640350  71.8076248
  25.3682652  38.9898033  71.5495682  26.2957382  39.2207985  72.7232056
  19.6092873   4.4657393  28.3587875  19.5917397   4.2874160  29.2990665
  20.5037956   4.7602749  28.1875172  62.7648849  70.1884460  64.8212357
  62.9781799  70.6930695  65.6061478  63.0896568  69.3074570  65.0072861
  81.3912201  34.0377579  62.0707436  81.0729675  34.5556488  61.3313293
  82.3408203  34.1572342  62.0557632  51.7770805  49.8378410  65.1555939
  51.6536484  50.3911057  65.9268875  51.9680405  50.4530678  64.4476013
  18.3820381  25.0380898  82.1697388  17.8173809  24.2652225  82.1615143
  18.0836258  25.5606728  81.4253693  76.9442444  66.0625610  22.8841648
  77.5994415  66.4014130  23.4941845  76.1053085  66.2506638  23.3049183
  85.5038605  39.4607849  60.4214211  85.1555557  39.5355339  59.5329781
  86.3340607  38.9963875  60.3149261  43.4928665  19.4985752  87.7954254
  42.7560081  19.6491127  87.2033005  43.0943375  19.1349106  88.5860901
   3.5497134  67.4067841  56.2653275   3.5559063  67.3708420  55.3088226
   3.3836308  66.5043488  56.5378494   5.0882854  17.1421986  57.5102463
   5.0071049  16.5045776  58.2195282   4.5834737  17.8985367  57.8091621
   4.7915416  63.4128189  56.8912392   4.6178045  63.6930733  57.7898521
   4.0347381  63.7220116  56.3933640  56.4379158  42.2997551  66.3566132
  57.0801544  42.5990982  65.7130661  56.9502831  41.7985764  66.9910660
  15.3411856  63.4912605  88.0053101  14.8923855  63.6526871  87.1753998
  15.3553019  62.5377846  88.0884628   5.7841949  40.9828796  24.5685749
   6.2645874  40.3122253  25.0540428   6.1461954  41.8114319  24.8827209
  53.8690033  23.4879532  34.9830856  54.4834557  23.6804886  34.2748451
  53.6508064  22.5633221  34.8661270  13.6311760  39.8771858  16.5019875
  13.2493057  40.7528610  16.4419785  12.8931112  39.2839355  16.3621845
  85.1329193  40.1393890  82.1599426  85.5256500  39.7655640  82.9487686
  84.4717102  40.7491188  82.4874496  14.5567484  65.1117859  63.6583824
  15.1076221  64.4463882  63.2460556  13.9545650  64.6147156  64.2120361
  74.5706024  48.4808655  42.3961182  73.6509933  48.6606941  42.5916023
  74.5883179  47.5534668  42.1597977  28.2156811  31.8292828  19.3885288
  29.0637951  31.4820595  19.1121750  28.1757145  31.6450233  20.3269768
  73.4180450  44.9851685  38.7041016  74.0283737  45.1909409  37.9960136
  72.5547943  45.0111542  38.2913551  63.7279205  55.3445015  32.8785896
  63.5895958  55.0082397  31.9931374  62.9279900  55.1128120  33.3504601
  81.3765564   9.7949848  33.2999382  80.4283524   9.8929720  33.3867950
  81.4928589   8.9309444  32.9047928  10.9739504  41.7507668  18.7078457
  10.3275776  41.5354729  18.0354748  11.1107273  42.6936264  18.6154289
  33.4395027  40.5643425  45.9481964  34.1702347  40.6042404  46.5651779
  33.8193626  40.1959839  45.1505432  34.4808846  41.5317116  21.9766960
  34.1969528  41.8969536  21.1387157  33.6869469  41.1531525  22.3542976
  66.7812347  51.4189262   6.0623727  65.8324738  51.3447647   6.1652055
  66.9050827  52.2200394   5.5533414  58.2183189  66.7338104  60.6581764
  58.7983284  65.9774780  60.5699501  57.3630028  66.4145660  60.3705177
  43.1306686  41.4936562  39.5702896  44.0081406  41.8390579  39.7345314
  42.9267311  41.7724800  38.6775970  62.8512611  48.4695282  39.1770859
  62.5543671  48.4964142  40.0866814  63.0103416  47.5415726  39.0043907
  30.7871170  43.8180771  69.9935074  30.0776386  43.5543327  70.5794373
  30.4110966  44.5206261  69.4631653  12.2789888  69.0708389  14.1887131
  11.8623400  69.9324951  14.2025394  12.9108124  69.1217957  13.4714718
   2.1718652  47.2959290  55.4895210   2.6028097  46.4491043  55.3737297
   2.6809096  47.8996735  54.9485970  33.0623589  20.1160870  77.8329391
  33.8332634  19.5559196  77.9231873  33.3556824  20.8398666  77.2794647
  73.1974030  31.7400646  79.5200424  73.2122650  32.0441246  80.4275436
  72.8407288  32.4782219  79.0259399  40.3789330  35.2104721  78.1012802
  40.7017708  34.3419952  78.3415985  41.0873222  35.5948982  77.5849152
  24.8593769  47.1493912   8.2084398  25.5105133  46.8497849   7.5740175
  24.3484364  47.8061104   7.7352719  43.5453491  21.3733025   3.2372708
  44.0039749  20.6346359   2.8369412  42.9356995  20.9701691   3.8553679
  79.2637863  35.0314331  83.6076584  78.6069183  35.0379219  84.3038788
  78.7545853  34.9870338  82.7983551   0.8688582  24.8646564  10.4445086
   1.4200096  24.3850536  11.0629301   0.0308531  24.4024143  10.4621572
  85.5479355  22.8904629  18.0358143  84.7395859  23.3873367  18.1619568
  86.2114868  23.5553131  17.8516693   1.4025689   0.7042063  85.6576309
   2.1568215   0.7926214  85.0749512   0.8438287   1.4506314  85.4410858
  70.7635193  29.4079685  67.5497360  70.6090622  29.3686066  68.4935684
  71.6879196  29.1810265  67.4486465  37.0292778  69.8180618  74.6768799
  37.4902802  70.6177139  74.4233704  36.7523918  69.4281158  73.8477173
  20.0896072  50.0580978  14.9093962  21.0348911  49.9135933  14.9516935
  19.8788109  50.5055542  15.7288961  64.5128174   0.3291663   6.5720882
  64.3461990   1.2604465   6.7176476  63.7792168  -0.1147572   6.9975271
  79.6627350   9.9960394  83.6398087  79.1492081  10.6583672  83.1773758
  79.9116592  10.4172926  84.4624939  11.3177738  53.8287354  40.6591072
  11.6123600  54.7195435  40.8486099  11.2413740  53.7995224  39.7054100
  34.0873222  27.8973866  89.2551880  33.4274139  27.7807140  88.5717163
  34.1167221  27.0536480  89.7062683  44.8135796  52.0209846  78.5408020
  44.0810623  52.2119331  79.1266251  44.4497299  51.4204788  77.8902359
  65.7650375  48.0376930  44.5276375  66.2699661  47.3764572  44.0543022
  65.2749329  48.4978943  43.8462830  74.3871002   5.6208668  76.3435211
  74.3370056   6.5005054  76.7176285  75.1902390   5.2503405  76.7094574
  46.5648842  65.4896469  88.7932663  46.9534073  66.3496933  88.9532700
  45.8854675  65.6517639  88.1387863  58.7239189  66.1388855  30.0974846
  58.4759521  66.8324051  30.7088547  59.4668083  65.7044754  30.5165768
  77.8419647  43.8353844  71.8129654  78.7123795  43.4375725  71.8319092
  77.9665222  44.7025757  72.1985779   1.9157909  64.4369659  32.6583328
   2.7685301  64.6840515  32.3005409   1.3066093  64.5564651  31.9297390
  23.9420815  28.8285122  17.7392159  24.6621380  28.3276615  17.3559437
  23.3119926  28.1651249  18.0205288  63.4305000  46.9409256  30.9227295
  62.9498787  46.6597404  31.7012978  63.6423988  47.8591423  31.0906944
  32.5241394  38.5366554  14.6817312  31.9918919  38.6143074  15.4735107
  32.1837654  37.7588730  14.2396536   0.3863881  32.5538712  60.8672905
   0.2163811  33.0621834  60.0742264   1.2333525  32.1373787  60.7078629
  43.7730980  68.0642090  14.3982687  43.1169853  68.6587982  14.7618713
  43.9394417  67.4336853  15.0989838  18.4543552   1.7393430   5.6743484
  17.8166046   1.0276922   5.7296553  17.9253902   2.5245919   5.5335889
  76.5278397  71.1814499   2.4600501  77.3747787  70.9411774   2.0843015
  76.0587540  71.6057053   1.7415785   4.5488091  37.7943382  47.3429527
   4.8306589  38.6939201  47.1769829   3.6243060  37.7834244  47.0951462
  36.3843117  28.6757755   7.3085732  35.5745392  29.1062145   7.0343046
  36.5501099  29.0154209   8.1879950  70.1766815  15.2254438  25.9312153
  69.5124435  15.8674164  26.1819935  69.6761475  14.4526377  25.6695595
  11.1259670  40.7659988  26.4353237  10.3268566  40.3802986  26.0763111
  10.8904619  41.0169411  27.3285179  49.5671310   5.1032634  35.4045029
  49.5969772   4.1465392  35.4090004  50.4747200   5.3705244  35.2592850
  53.0634270  39.4533310  43.6179161  52.9651718  38.5121956  43.7622871
  53.9673958  39.5569687  43.3207207  50.3677292  11.1305084  15.1156511
  50.3490562  10.7636938  15.9995804  51.1384811  11.6980619  15.1080933
  57.3698997   0.1727211  52.0048027  58.0728340  -0.0322099  52.6213379
  56.6095314   0.3496416  52.5586739  27.6252327  27.5828896  78.0079422
  27.6554108  26.7610016  77.5182266  28.3774643  28.0804806  77.6873474
  27.0018330   5.1750917  21.1128254  26.3561707   5.5855913  20.5376377
  26.4795494   4.7327189  21.7819729  33.8469849  27.2216301  83.0772018
  34.2131004  27.5801506  82.2687073  33.2117043  26.5686340  82.7835236
  48.7173920  31.9040852  36.6422424  48.8229332  32.6920929  37.1752892
  48.5472641  31.2072201  37.2760124  64.9763870  40.8315125  50.0825691
  64.7963715  41.5936203  50.6330414  65.8581085  40.5570183  50.3344536
  20.0588417  57.5743370  80.8989639  19.6350498  56.8852615  80.3872910
  20.6734371  57.9820976  80.2888489  79.4609375  19.0940762  69.6475983
  78.8236694  19.3367443  70.3193359  80.2351837  19.6187592  69.8512802
  43.5906601  34.9552536  17.9980240  42.9714470  34.2998390  18.3193283
  43.4124451  35.7327881  18.5270920   3.4270368  59.8719673  46.6568680
   4.3266315  59.5890961  46.8210144   3.0985873  60.1365280  47.5161476
  68.4054337  47.8966217  75.4126816  69.2131271  48.4099312  75.4321289
  68.2662506  47.6345062  76.3227081   2.8638370   3.5528555   7.1073885
   3.1627119   4.3291707   7.5809288   2.3744192   3.9006805   6.3619227
  10.6080704  53.1379128  58.1135521  11.3307056  53.7591629  58.0236664
  10.6941938  52.7975464  59.0040359  34.4490738  69.0161285  41.4966049
  34.6127090  68.9924850  40.5537910  35.3092232  68.8761826  41.8925667
  52.8575478  64.0785141  25.9212017  51.9413033  64.2232819  26.1573524
  52.8560562  64.0459366  24.9645557  14.8426132   3.3753929  24.6934757
  14.7090816   2.9893532  25.5591393  14.0417738   3.1672268  24.2122746
  22.5157433  51.2182007  21.8022938  22.6443672  50.2902222  21.9986191
  22.6875534  51.2904396  20.8634148  31.3687229  41.7149010  57.9580307
  30.4929333  41.3467216  57.8411255  31.6042614  42.0517883  57.0935898
  25.7602711  14.9877491  82.5896225  25.4665222  14.2980127  81.9944687
  24.9523067  15.3538494  82.9493408  59.2650108  32.3483620  39.9228783
  59.4088974  32.9480438  40.6549377  60.1372528  32.0164299  39.7101707
  74.4058762   1.5959603  19.8761063  74.7281494   2.4579358  20.1394863
  74.1476135   1.7061591  18.9610176  50.1748810  12.8230419  59.4539108
  49.8510857  12.5075474  60.2976227  50.9822464  13.2909937  59.6670113
   4.2744431  71.0894012   4.6470938   3.4630818  70.7695007   4.2526460
   3.9884145  71.5868378   5.4132376  75.9254150  30.5810375  27.1136227
  75.4662857  31.2701778  26.6335011  75.2442245  29.9434433  27.3273640
   6.8882179  35.9006310  87.8809204   6.2215352  36.5462799  88.1152344
   7.7172699  36.3144836  88.1209793   8.9363441  54.4396553  24.9598694
   8.4802132  54.9078522  24.2606087   9.2527237  53.6375198  24.5442753
  79.3413544  39.1422920   1.7883296  79.9594421  39.3898811   2.4760106
  78.8755722  39.9526291   1.5818433  34.4624290  25.3340034  70.2783661
  33.5135498  25.4367981  70.2056198  34.8177032  26.1704330  69.9776993
  29.0452080  40.5934830  83.7327576  28.2838154  40.0707436  83.9842682
  29.4992313  40.7674522  84.5572739  64.5596924  28.1819935  46.1421356
  63.7464790  27.8888512  46.5532188  65.1388474  27.4212475  46.1876488
  39.8041344  69.9001999  70.6106873  39.0071793  70.2947235  70.9648666
  40.5164757  70.3509827  71.0641098  61.2766037  16.0123711  29.2871513
  61.3076324  15.2648106  29.8841629  60.6763725  16.6289577  29.7064037
  48.9151993  17.0563622  48.4719276  48.0297050  17.0616531  48.8353882
  49.3987122  16.4454536  49.0280190  55.4057617  68.0633926  56.9444237
  55.6322746  68.1851654  57.8664284  54.9333305  67.2312088  56.9217415
  22.5673752  62.8815231  32.4896088  22.7304764  63.7542267  32.1318130
  22.1937275  63.0437851  33.3558044  22.5837173  36.8089333   3.7251778
  22.7951908  36.2321625   4.4592381  21.8004704  37.2803650   4.0089202
  47.8216095  61.5635262  60.0296059  47.3363800  61.6666603  60.8482323
  48.7398186  61.5303879  60.2979851  83.8321609  22.2522640  53.8622551
  83.3234711  22.2855434  54.6724167  84.1188126  21.3413525  53.7966805
  34.6159363  67.1426620   5.5465717  33.8742905  67.2088852   6.1480761
  35.1309662  67.9320297   5.7135468  21.7815113  34.4158821   1.6856284
  22.3682022  35.0145111   2.1478698  21.9073963  34.6243324   0.7599213
  18.6285706  39.1902618  11.3747654  19.2112446  38.9900627  10.6422052
  18.6667919  40.1430931  11.4577284  22.5371437  40.8407860  19.5124722
  22.1551685  41.6785698  19.7740898  22.2735043  40.7322731  18.5987167
  24.5631828  67.0875320  59.8989487  23.7029800  67.3306046  60.2412910
  25.1611748  67.2261810  60.6333961  25.4488049   9.6823645  75.6616974
  25.0365429  10.2290745  74.9928284  26.2176361   9.3121777  75.2280045
  29.3783951  38.4800148  75.9194870  29.3712978  37.5760765  76.2342453
  29.2803268  39.0098801  76.7105942   9.7502689  37.4715614  19.9371300
   9.7675457  36.8800201  19.1847916  10.5886374  37.3260422  20.3755302
  67.7172241  57.3704071   8.6086378  67.5799332  56.4232750   8.6265726
  67.0605698  57.7190666   9.2115221  62.9843826  54.6182747  19.3742943
  63.2384949  55.5379105  19.4513245  62.3151627  54.4974747  20.0479279
  79.5236893  25.9275665  18.3450298  79.4800262  25.5621986  17.4613838
  80.1214981  25.3463936  18.8152409   3.8412147  32.2674980  82.5584488
   4.6591544  32.6544456  82.2462311   3.3470840  33.0062599  82.9138336
  62.1519165  18.4720879  51.0572510  62.9971504  18.0559692  51.2265282
  62.3445740  19.4096260  51.0455818  67.1948013  70.7209167  41.8144760
  67.0273361  71.3900223  41.1507874  67.7096329  70.0550156  41.3586655
  67.3248825  53.8574409   4.7582741  67.0085144  54.7555847   4.6609077
  68.2696838  53.9483986   4.8820167  47.8844910  23.1375542  20.5286140
  48.5711365  22.9055843  21.1538658  47.0693359  23.0390987  21.0206108
  81.7021637  41.4505043   3.2089000  82.4880219  41.8886871   2.8823094
  82.0312805  40.6722565   3.6586237  63.2912903   1.7081374  72.8445129
  63.7790260   2.2679880  73.4485931  62.4983139   2.2054765  72.6443176
  69.3633118  63.8664742  61.8793869  70.2110443  64.3104858  61.8586960
  68.7477112  64.5390549  62.1707535  30.8741322  65.3980103  71.6072845
  30.7370834  64.4594116  71.4789429  31.2072334  65.7087479  70.7654343
  16.9212551  42.7760468  70.9700165  17.8534069  42.7628632  70.7528763
  16.5891647  41.9368324  70.6511688  83.5417023  24.3008995  65.8176880
  82.9816208  25.0319653  65.5567551  84.1272812  24.1697540  65.0719528
  49.8546906  29.1692677  64.0114670  50.2779427  28.3405437  63.7871819
  48.9760628  28.9196892  64.2977600  29.3017902  66.5737000  51.8402176
  30.1914978  66.6134186  51.4893990  28.8763504  65.8800049  51.3362083
  63.6575394  37.0344620  56.9372177  63.4851036  37.1962624  57.8647537
  64.6078568  36.9327812  56.8844566  56.4520416  48.4363861  74.6318359
  57.2398338  48.1446648  74.1730194  56.3149223  47.7790680  75.3140106
  20.1644020  59.1698990  32.6142349  20.8053074  58.4884834  32.8170815
  19.5576591  59.1560211  33.3544388  46.9777412  44.2160492  61.1613541
  47.1627960  43.7110481  61.9531631  47.4087753  43.7279549  60.4597778
  32.2143478   4.5372982  41.4608879  32.6901627   5.2014990  40.9622192
  32.8961601   3.9540741  41.7943726  86.1993942  62.7289276  87.0909119
  85.4218826  62.2695847  86.7735596  86.5646210  63.1481323  86.3117447
  55.4648247  53.4375114  37.0206261  55.5302467  52.5590897  37.3952332
  55.2748642  53.2892990  36.0942459  81.4581146   8.2029934  81.3181686
  81.7979736   8.8616409  81.9239044  81.6009369   8.5797329  80.4498978
  39.0413704   0.0126905  86.7359390  39.9696350  -0.2154723  86.6859131
  38.8133392   0.2846854  85.8469772  26.8615704  13.7032051  15.9805984
  26.6602879  14.2363434  16.7496777  26.1724968  13.9193211  15.3523436
  39.1120148  64.9034348   1.8757540  39.8754387  65.0961304   1.3314376
  38.4430809  65.5193787   1.5767938  37.3981094  41.0814743   8.3942738
  36.9471474  41.6832085   7.8020058  36.9548149  41.1956711   9.2349167
   9.6115665  59.5937233  63.1389465   8.7268858  59.2943497  62.9293060
   9.8891315  59.0323601  63.8628654  27.6967697   7.8450384   2.6173472
  27.2691441   8.5534859   3.0984609  28.6123199   7.8865023   2.8935325
  22.3862171  40.1515961  59.3083267  22.9324837  40.9060974  59.5286674
  22.8640366  39.7061043  58.6087112  74.7762222  63.7191048  23.5929432
  74.7614441  64.0431671  24.4934978  75.6468887  63.3346901  23.4909840
  19.4036999  67.1522217  45.3366928  20.2164974  67.5399704  45.0122719
  19.6633224  66.2913589  45.6649170  78.1570740  20.8785324   0.4620432
  78.7558746  20.2418232   0.8522634  78.4006805  20.9005375  -0.4633789
  43.3549614  10.7485733  85.4522247  44.0626297  11.1474419  84.9459152
  42.6902390  11.4343433  85.5161972  81.2961197   8.6200762  72.5441513
  81.7900925   7.9166036  72.9652863  81.5738068   9.4142532  73.0006638
   9.9281502  36.6200333  70.7925034  10.5908661  35.9350967  70.7036133
  10.1486311  37.2563629  70.1122818  57.7206116  59.1171341  63.4403267
  58.0708656  59.2874641  62.5659485  58.3038712  59.5957108  64.0293961
  75.0386887  32.9184532   1.0240185  75.2334061  32.4783974   1.8514651
  74.1345291  32.6722488   0.8287796  41.0527649  52.2791328  43.8455315
  41.9253922  51.9684525  44.0868530  40.4538002  51.6689911  44.2758827
  60.7604141  29.5003738  48.8306351  61.6074028  29.7011681  48.4324799
  60.1933022  29.2834778  48.0906563  32.1288795  25.1283722  86.8711624
  32.0679817  25.7185993  87.6222610  31.5793571  25.5354919  86.2014542
  29.9095631  52.2743721  19.9489059  29.7214756  52.2506943  20.8871460
  30.1062794  53.1933441  19.7671814  51.0340805  35.0687599  42.6149788
  51.6364975  35.8110046  42.5660095  50.2230911  35.3922157  42.2226677
  79.5933609   0.3536769  83.0358810  79.3020096  -0.3123469  83.6585846
  80.5235672   0.4711696  83.2286072  45.9183121  63.4297676   4.3916216
  45.8826141  63.4889107   5.3463254  45.8729439  62.4914589   4.2079153
  23.9582310  50.8218346  82.3032837  23.3500767  51.5569572  82.3805695
  23.8718147  50.3513107  83.1323624  71.9919128  28.0207195  62.4946251
  72.7824783  28.2322063  61.9981346  72.0447159  27.0757866  62.6379623
  16.6522865  54.2480927  80.8964233  17.6070652  54.3131523  80.8764648
  16.4704208  53.6028061  81.5796204  67.2012711  51.6680183  88.6372070
  66.2494507  51.7011833  88.7329636  67.4188614  52.4527130  88.1340790
  75.1327820  33.9690971  20.3903618  75.2891846  33.2990265  21.0557747
  75.3896027  33.5536842  19.5671349  78.9299011  60.5255966  59.6161499
  79.3387680  60.6847420  60.4668770  79.5784988  60.0162392  59.1302338
  20.5766850  44.8143311  32.2012901  21.2196560  44.6880569  31.5035248
  20.1030159  45.6072197  31.9498920  61.8070221  71.4363937  52.4130936
  61.2436905  70.7191086  52.1225891  62.6398201  71.2826538  51.9669495
  43.9820671  56.5435486  56.6579132  44.4867477  55.7567139  56.4519424
  44.0476074  57.0831909  55.8700523  68.2338333  51.6084633  49.4614334
  67.8906937  51.0953140  50.1929817  67.5005798  51.6732941  48.8495750
  25.5426960   6.9284811  69.9806900  24.9383907   6.3564668  70.4538193
  25.4393311   6.6789298  69.0623932   1.4700464  29.5271492  61.2262688
   2.0233457  30.2048054  60.8378448   1.3447080  28.8887348  60.5241661
   9.3460493  24.7341843  18.9196644   9.3473148  24.9322166  17.9831753
   9.8862410  25.4210033  19.3104401  33.2945747  41.6578674  31.3218918
  32.9830971  40.7564163  31.4031448  32.9121132  41.9704399  30.5019817
   6.3123102  34.6783180  81.6246338   5.5986428  34.5802650  80.9943237
   6.0725265  35.4484406  82.1400528  45.6183624  10.2669001  12.6942406
  45.7471695   9.4157305  13.1127520  45.9132462  10.9018393  13.3470249
  21.7894573  45.1741867  87.8359528  21.4343433  45.8533287  87.2624588
  22.3791943  44.6709175  87.2745590  19.5251026  64.1737900  55.3964996
  19.6270561  63.7740898  56.2602577  19.2679653  65.0774460  55.5795898
   1.4373987  41.4306068  36.7090187   1.8000728  40.8925056  37.4126816
   0.7973676  41.9940224  37.1439362  86.6133575  43.9808998  12.6869507
  85.7879105  44.2899857  13.0602312  87.2857208  44.3238297  13.2756424
  51.4589233  18.4699688  51.2816734  51.3084068  18.4705486  50.3363838
  51.1994476  19.3463421  51.5660553  83.1716995  41.0447922  61.5927696
  82.9482117  40.8481178  60.6830406  83.1836929  42.0009766  61.6351166
  63.2219276  38.5698547  84.6468506  63.4474907  39.2698593  84.0341949
  62.6785355  38.9970093  85.3090439  17.7334671  42.8704491  60.7634621
  18.1028576  42.4683571  59.9772682  16.8278351  42.5614510  60.7875977
  20.6124439  15.7034521  59.9227791  19.8774853  16.1877117  59.5465317
  21.1246014  15.4191494  59.1657448  68.8358612  41.4981461  47.8782578
  68.7409515  40.8254890  48.5526123  69.6605682  41.2849159  47.4416618
  16.1915302  46.1340103  20.7033119  15.2678890  46.1377716  20.4521046
  16.5347576  45.3168869  20.3417339  52.9799919  64.7303848  74.1374054
  52.3769608  64.8575439  73.4050064  53.7270012  65.2929230  73.9330368
  54.7687340  42.5931816  42.0457344  54.0669479  42.6907158  42.6893272
  54.9436722  43.4849586  41.7451248  19.4884033  40.4054642  45.3049393
  20.0134315  40.8972321  45.9364014  20.1219368  39.8570442  44.8422241
  41.2174263  70.0481262   6.8587904  40.6126404  69.4207916   6.4626532
  41.7609482  70.3493423   6.1307225  72.1779785  12.5378857  21.1028500
  71.3589630  13.0314932  21.0604305  72.6522217  12.9236183  21.8394184
  23.3142376  64.2240982  73.8410339  22.4466457  64.1442413  73.4446259
  23.2808628  65.0484695  74.3263550  43.4176559   8.5327578   9.0313330
  44.2074127   8.0982056   9.3533344  42.6974602   7.9932442   9.3576393
   6.9502268  66.1157074  15.2921591   7.2129717  65.5501556  16.0183468
   6.1155272  66.4918900  15.5714321  17.0352917  62.7467957  67.3187637
  17.5444069  63.2634354  67.9433517  17.4169903  62.9571915  66.4665451
  40.1481667  13.5108719  63.0569115  40.7258606  14.2330971  63.3036804
  39.9699631  13.6535950  62.1273384  60.0150337   4.8476615  37.3702278
  59.8969345   4.3791199  36.5439377  59.4099121   4.4203987  37.9764481
  57.3172607  44.4460487  86.6938705  56.8730202  43.6204491  86.8869171
  57.6873474  44.3202896  85.8201141  37.6121712  46.5281754  63.5216484
  38.3858871  47.0544319  63.7232628  37.6777763  46.3559303  62.5823631
  36.5160217  42.4321861  27.7842445  35.9039612  41.8675995  28.2563171
  37.3134499  41.9085007  27.7061806   7.4112077  38.9059334  86.5931778
   7.9758162  39.4090500  86.0063934   8.0182343  38.4328995  87.1623840
  29.3666744  62.0763130  14.7962360  28.9087849  62.6476135  15.4128284
  28.9723301  62.2754402  13.9470749   3.2463911   6.1841998  66.2619781
   3.0204961   6.8172326  65.5804520   3.3507364   6.7117691  67.0538177
  70.1186676  48.8579979  68.4544525  70.8089371  48.2275658  68.6601562
  70.5794373  49.6894035  68.3418121  60.2122040   2.3128254  11.7034292
  61.0803032   1.9268136  11.8201780  59.9474716   2.5778072  12.5843000
  59.7556152  42.3193245  78.7869415  59.6815643  41.8646584  79.6260071
  58.8539848  42.3931465  78.4741364  46.0287476  52.0952835  84.2275925
  45.2128448  52.5880241  84.1396408  45.8390541  51.4348335  84.8939590
  74.5540161   3.7470112  30.7670708  74.1610489   4.5811439  30.5101032
  75.4510727   3.9710584  31.0147038  57.6906509  37.0112762  76.7024918
  57.9584808  37.6269302  77.3847504  58.4959068  36.8225594  76.2206421
  61.7408104  28.0736141  25.5944023  61.5475197  28.1867161  26.5250359
  60.9787788  27.6108246  25.2460232  46.3460655  46.8084679  16.7094250
  45.8014221  46.0326691  16.8425808  45.8453789  47.3508987  16.1000671
  23.3086681  56.3537331  37.3416557  23.6662998  55.4662819  37.3692627
  22.6352215  56.3195457  36.6622925  50.0836372  67.3218079  56.3920975
  49.7296982  66.5687714  55.9189262  49.5456085  68.0595703  56.1049423
  45.1649971   6.4596949  41.6793137  45.1575928   5.6652188  42.2131538
  46.0598450   6.7909307  41.7552223  50.2502098   0.8342460   4.7110324
  49.4620132   0.3006426   4.8122659  50.2632141   1.3922116   5.4886808
  36.3619995  24.9591103  82.5364532  36.7655144  24.1058750  82.6958160
  36.3394966  25.3778763  83.3968887  75.6716080  29.0605564  74.7829132
  76.3259811  28.4395313  75.1028442  75.3904037  29.5361080  75.5645828
  49.7703819  31.1863251  54.0305252  49.1738777  30.6655922  54.5683441
  49.2021713  31.6198673  53.3938065  13.6153221  68.1400375  20.4192963
  14.2117786  68.3352585  21.1420403  14.1752644  68.1287231  19.6430435
  35.1919937  27.4059563  15.3203230  36.0637245  27.3282051  15.7079773
  34.5994759  27.4524174  16.0706520  18.3739433  36.5703621  68.2256546
  18.1800060  37.4791603  67.9960632  19.1753464  36.3672371  67.7432404
  74.1752701  42.1866913  18.8044071  75.1087341  42.0076561  18.9176731
  74.0783463  42.3708038  17.8700943  36.3882103   1.4723442  48.1069908
  36.9642143   2.1331563  47.7225723  35.5282364   1.8916994  48.1356812
  39.9455185  13.5279083  71.3227539  39.2146339  14.1113634  71.5267715
  40.4427223  13.4724665  72.1388092  11.5674210  53.9431305  28.8764706
  10.7371817  53.4691772  28.9244499  11.6014442  54.2764816  27.9798374
  37.2144318  41.9051704  33.0664520  36.9034424  41.0183754  32.8844795
  37.3172340  41.9324417  34.0177231   1.7542714  22.6640587  79.2963791
   1.6066698  22.4154701  80.2088776   0.9859545  22.3336220  78.8308334
  71.2232666   9.4296122  10.5975351  72.0574799   9.8833485  10.4773531
  70.6058960  10.1219444  10.8336859  56.6515045  25.5130310  35.4142647
  56.5608063  25.8574982  34.5258102  56.1091919  26.0904770  35.9515572
  60.3657074  47.4969101  71.2564011  59.5365562  47.3980980  70.7884521
  60.9402199  46.8373413  70.8676376  52.5364037  32.1331673  26.9020176
  52.4769325  31.9775848  25.9594193  52.5330544  33.0864792  26.9881020
  13.3935633  39.4636536  46.0257874  12.9818411  39.7927017  46.8248138
  12.6607428  39.1922798  45.4730110  41.1852379   5.3747272  88.3207397
  41.2864838   4.5143251  88.7277908  41.5996666   5.2840142  87.4626923
  26.9282494  42.3504333  27.8395462  26.4668102  41.9468193  28.5746670
  26.3387470  42.2350502  27.0942917  83.2430038   4.4126053  18.4655533
  82.6262436   4.7559075  17.8190327  83.3829193   5.1393547  19.0725861
  58.4295807  61.8292160  15.1945372  58.0982094  61.6770515  14.3095121
  59.3710594  61.9576759  15.0789852  26.8683624  50.9697113  40.7571182
  27.4205990  51.1192284  41.5245247  27.3614082  50.3449745  40.2252884
  78.4774017  25.3813591  24.1864796  78.2137146  24.9668598  23.3649635
  77.7387924  25.9441910  24.4186497  73.3225708  14.2429256  78.5710144
  73.3163834  13.2859831  78.5923462  74.1867523  14.4843483  78.9043655
  46.8181190  57.5902252  87.8405914  47.3661041  58.1827240  87.3259201
  47.4397049  57.0755081  88.3553085  82.2828293  31.3014164  67.0999451
  82.8885040  30.9258575  67.7389603  81.4412003  30.8904133  67.2973328
   6.7958179  55.3267746  20.5924911   6.1991839  55.4647560  19.8568134
   7.0104318  54.3946877  20.5552483  44.3877335  48.9066734  55.3497849
  44.2401009  48.3888741  56.1411896  45.1355438  48.4866714  54.9248009
  18.7074833  71.2592545  80.7407761  19.0746117  72.0536728  81.1285248
  18.8614807  70.5793457  81.3967056  30.1300049  58.4823914  24.5978584
  30.4664516  57.5908432  24.6883163  30.9075127  59.0382538  24.6501160
  54.8018112  69.3682632  75.9403992  55.0826759  70.1546555  75.4725037
  54.4504356  69.6950226  76.7686462  50.1051788  48.0737877  57.3196449
  50.5657730  47.9886818  58.1544151  50.0352249  49.0181427  57.1798820
  16.8420143  29.4125900  84.1512146  16.6186924  29.0639324  83.2882004
  16.0726204  29.9191647  84.4113083  22.2513008  11.0368586  20.5203381
  21.8036880  11.6902666  19.9828148  23.1528893  11.0391273  20.1988297
  60.5022316   1.9040620  81.2162857  59.9261551   2.5180881  81.6716309
  60.0796852   1.0523134  81.3267822   3.1989620  39.5618477   5.6544952
   3.6928825  39.5682755   4.8345971   3.8159845  39.2231102   6.3031645
  53.5723267  10.7981625  33.8292656  53.8547440  11.5896139  34.2876053
  54.3315163  10.2163429  33.8659439  55.6088448   6.4501963   5.5058093
  55.2915726   7.2850356   5.1614060  56.5395279   6.5984159   5.6734052
  11.3078213   8.8820715   9.1044006  11.5385628   9.7835970   8.8802519
  11.8402500   8.3454924   8.5171747  56.9113884   7.5706472  73.3121490
  56.1653061   8.1661100  73.2413025  56.5270767   6.6963916  73.2472382
  13.9880314  62.5010414  79.4463577  13.2508984  62.9574852  79.8519745
  13.7526579  61.5745583  79.4959717  67.4330368  65.1016998   9.5012655
  68.3695908  65.1617050   9.6896801  67.1402283  64.3298264   9.9857302
  85.8259735  31.9100132  47.9042854  86.1445694  31.8955784  47.0017815
  85.0441666  32.4614372  47.8735046  51.7384796  66.8224716  28.0384483
  52.4195824  67.1455612  27.4485874  52.1506691  66.8211594  28.9023514
  83.0619888   6.4772582  86.3823547  84.0178223   6.4731865  86.3314056
  82.7952728   7.2046843  85.8202591  84.5911865  24.0873966  23.5439167
  85.3397064  24.3517113  24.0787907  83.8568573  24.5921516  23.8935051
  27.3141594   3.8539565  10.6281328  27.5732040   3.1708689  10.0096512
  27.7709904   4.6381984  10.3239918   1.5652936   2.0362849  21.9678421
   1.4960290   1.1024492  21.7693863   0.7296931   2.2562416  22.3796940
  17.3451786  47.2437820  73.2162399  16.5272655  47.1975555  73.7113266
  18.0236855  47.0198212  73.8531876   5.1857219  44.1547966  64.2549210
   5.3804040  44.9163055  63.7086334   4.8889856  44.5257416  65.0859375
  67.6476746   6.2134027  20.6896191  67.7439651   5.7892003  21.5422707
  68.4462891   6.7312326  20.5881786  79.6330719  32.1484032  22.9831600
  79.3954391  32.7054825  22.2419281  79.5310516  32.7129097  23.7494221
  64.1967468  30.1996098  31.0592155  63.6127892  29.9252758  30.3521309
  64.5545959  31.0365925  30.7631817  46.0571594  14.5093613  62.1866188
  46.9354134  14.8802385  62.1008720  45.5756569  15.1519022  62.7077026
  71.6852493  14.4757118  43.5442924  72.1276550  15.0660181  42.9343376
  71.0245590  14.0325155  43.0120354  13.1898394  66.0010300  76.4811859
  13.7820282  65.2646179  76.3287125  13.1984386  66.4896698  75.6581497
  41.1784477  32.0136337  22.5497379  41.3281517  32.8469048  22.1031055
  41.2504845  32.2245216  23.4806366  55.1403999  54.2065315   2.6424611
  54.3547287  53.6991119   2.4388056  54.9822578  55.0627785   2.2448897
  61.5282822  46.2989197  51.1504631  61.5615120  47.2508392  51.2451973
  61.5465240  45.9680710  52.0484810  20.4355087  18.9675236  69.7904816
  21.0914593  19.2343121  69.1464386  20.5796661  18.0280895  69.9041214
  71.5021439  63.9411888  35.6069336  72.0477676  64.7180328  35.7295876
  71.2389526  63.9761238  34.6872940  64.0948105  42.1250725  24.4674263
  64.1772461  42.9813766  24.8871632  64.5358734  41.5217285  25.0654812
  17.0299358  39.1251755  38.5246239  17.5870132  39.6745872  37.9732246
  17.1324825  38.2437439  38.1657486  85.1198349  68.9123688  28.5614262
  84.4178085  69.4079971  28.1398220  85.0598145  69.1515503  29.4863167
  67.0971756  63.9076920  87.4312592  67.5290909  63.6696701  86.6108780
  67.6651688  64.5751572  87.8161011  78.8088150  70.0581284   6.4863915
  79.0495377  70.6511307   5.7746091  79.6377106  69.8557587   6.9202108
   6.7859945  60.1198730  35.9988365   6.2625723  60.3467255  35.2302017
   6.2385006  59.5064087  36.4888802  13.4087572  41.3976593   6.4223499
  12.9070425  42.0880470   5.9888988  13.9998245  41.0696373   5.7446527
  44.0267830  67.7700043   2.6994629  44.6720276  67.0666580   2.7715113
  43.2108307  67.3794708   3.0124221  52.8421822  65.9958420  68.5112228
  53.3704872  66.5557861  67.9423752  51.9479866  66.0994644  68.1857834
  51.7664108  66.2112274  77.2986069  52.6370354  66.3472595  76.9247971
  51.7087440  66.8492737  78.0098038  57.2421570  23.0177917  86.6205444
  58.0295906  23.3991585  86.2322922  56.7001076  22.7724800  85.8707199
  18.3588009  50.2400780  87.8049927  17.9619503  50.0597076  88.6571732
  17.7574120  50.8558807  87.3862457  51.8788452  48.6808243  69.1736069
  51.7766380  49.5602150  69.5375519  51.2644005  48.6522331  68.4402084
  50.3508186  65.4661789  74.8308640  51.2992630  65.4387894  74.9570923
  50.1332283  66.3980865  74.8517532  51.8680840  36.2368889  24.9205456
  51.2573433  35.8296089  25.5348320  52.3376541  35.5016212  24.5266972
   4.8111844  27.7798386  60.4808502   5.6917338  27.4174213  60.5784111
   4.9542274  28.6924992  60.2302094  62.7057953  68.3284607  57.6929398
  62.1826248  67.6546249  58.1270752  62.1367912  68.6642303  57.0003166
  58.2557449  27.0096436  67.0564270  58.5880203  27.5651760  66.3512955
  57.3471222  27.2875042  67.1723022  71.0042801  66.5899506   9.0186138
  71.3636627  67.1841202   9.6774292  70.4584122  65.9817276   9.5169373
  31.2657356  69.6576462  42.3005524  31.9673481  69.0113297  42.3796043
  30.7009907  69.3145981  41.6080093  52.0294266  49.4178123  48.7436714
  52.7645836  49.5348167  49.3454094  52.1308479  48.5255623  48.4122581
  77.8386307  15.2253246   3.1312821  78.3581161  16.0286064   3.0979998
  77.6802444  15.0809994   4.0641899   1.3641574  52.6107025  85.7392120
   0.5268527  52.3427238  85.3606110   1.6738752  53.3106155  85.1643906
  79.6301193  57.2738266  52.2458954  79.7516022  57.7439766  51.4210129
  80.4999924  56.9363670  52.4595947  23.9723015  11.7487478  70.7669449
  23.8528728  12.6648026  70.5163193  23.3860283  11.2632618  70.1865845
  29.9150810  15.7160034  81.8230438  30.2205925  15.8043823  82.7258682
  30.6737785  15.3809881  81.3451614  48.5324898  64.9298477  76.9464340
  48.8536682  64.9698792  76.0456161  48.8607216  65.7315521  77.3535843
  54.1930962  59.3755455   7.1627765  53.8241653  60.0012741   7.7861414
  53.4510803  59.1155319   6.6168447  13.3369884  61.2427216  70.0828171
  13.6059113  61.9444809  70.6756516  13.7479410  60.4559364  70.4410324
  73.7306595  43.9306068   3.5339661  73.6291199  44.4910316   2.7646513
  72.9137726  44.0413208   4.0204468  55.0516968  67.0504379  61.2279320
  55.4380341  67.3779068  62.0401802  54.7666473  67.8376236  60.7639008
  18.3007278  66.8188095  54.0229263  18.8804855  66.7791901  54.7835464
  18.3271313  67.7356339  53.7491379  37.9075661   3.0368316  87.5764847
  38.5894089   2.4913385  87.1843719  37.0924911   2.7153361  87.1910934
  14.7048702  14.4068232  25.0613384  15.5379181  14.1231194  24.6848087
  14.1233244  14.5074778  24.3077431  19.6666794  55.2972679  46.9021912
  19.4808655  54.4158020  46.5785866  19.6500626  55.2109413  47.8553467
  81.2926178  70.8610764  73.1578903  80.8635788  70.1709061  73.6636810
  81.4365997  70.4716949  72.2954102  52.0782738  17.2548580   8.6878862
  52.9970055  17.4430428   8.4961891  51.6291237  17.3774185   7.8515401
  68.7649002  44.0303116  86.4537201  68.3018799  44.7674103  86.0555573
  68.0731049  43.4124794  86.6902313  85.0580521  64.2619781   9.8718338
  85.3806229  65.1386642   9.6630363  84.4798660  64.3922195  10.6234779
   0.4260954  44.2094040   0.8387627   1.3116828  44.0066566   1.1401929
   0.1568968  43.4334564   0.3471627  78.0253220  62.8459320  58.8105583
  77.9710693  63.3278236  59.6358261  78.3660507  61.9861107  59.0572243
  10.3496714  33.9906693  77.5214386  10.5980520  34.8707581  77.8042526
   9.6566753  34.1329536  76.8766556  66.0000153   6.9747667  56.9642639
  65.8738174   6.8595471  57.9060898  66.5957108   6.2684579  56.7142525
  64.3648148  66.8624344  61.2892723  65.1278152  66.3586426  61.0059776
  64.6644669  67.7715225  61.2889481  60.4685211  71.1257401  68.5114670
  60.7495766  71.4155807  69.3793564  61.2838783  70.9864273  68.0297852
  32.8638077  34.7317429  15.6302872  32.6203918  35.2641869  16.3875732
  33.8162003  34.6549950  15.6876345  32.8771896  27.5600109  10.7415924
  33.1524887  27.7793674  11.6317177  33.6888542  27.5549717  10.2342415
  65.3119812  44.3111992  45.6354675  64.9004669  43.7485504  46.2914505
  66.2374878  44.3260384  45.8792992  76.6774216   1.4970720  68.0839539
  76.0633621   1.8396343  67.4344788  76.1276550   1.2556672  68.8294067
  80.9035263   6.5352674   3.8013964  81.0615463   5.6120462   3.9986844
  80.2125320   6.7954884   4.4105301  77.0080185  16.8714390  51.9052963
  77.1146927  16.0372791  52.3624916  77.7259979  16.8912983  51.2725639
  21.1941166  44.8895035  34.7331963  20.8539696  44.7030907  33.8581085
  20.7472973  44.2628822  35.3023453  20.4282513   0.3119560   0.6994010
  21.3201962   0.2977864   1.0464791  20.0217934  -0.4801032   1.0510633
   1.1120440  42.3452988  40.5858002   0.7050793  42.4702721  39.7284851
   1.8366506  41.7418785  40.4212875  64.4549332  46.6371956  46.5519714
  64.7654190  45.8058434  46.1932373  64.8591614  47.3036613  45.9964066
  56.8536606   3.7895744  88.6163483  57.2529984   3.8760481  87.7507401
  57.5959282   3.7191367  89.2166061   3.0546834  52.2369118  81.7975235
   3.6145713  52.7613106  81.2250137   2.1908302  52.2737122  81.3868713
   3.0015535  32.5769081  13.2004395   2.8298023  33.4868660  13.4427404
   2.4008749  32.0668869  13.7438507  59.5621109  56.4277878  61.3181305
  59.8789825  56.5207520  62.2165642  59.7678757  55.5227509  61.0840302
  38.5928459   2.6727488  21.8550510  38.9688530   2.3644934  22.6795692
  38.4879646   3.6162641  21.9775696  62.5992851  40.8386765  46.5002480
  62.1704788  41.0493202  45.6707993  63.3787498  40.3436737  46.2479782
  42.7845421  27.9401188  14.2037153  43.3290825  27.4351349  14.8076191
  43.3004570  28.7237968  14.0141973  62.2537918  48.3710556   8.5179701
  61.6039276  47.6881790   8.6840763  62.3809700  48.7925034   9.3679342
  13.8962250  10.8050184   0.3784721  14.2477360  10.0639305  -0.1149461
  13.2553434  11.2027655  -0.2108488  46.5454597  46.3395004  70.5377121
  46.8584290  46.8171806  69.7695312  45.6136017  46.1995811  70.3694992
  37.9759407  38.5154762  75.3030319  38.7591438  38.1827812  74.8647003
  38.2747803  38.7507973  76.1814117  42.4193726  59.1247292  48.7465134
  43.2557259  59.4788284  49.0487709  42.6234398  58.2313614  48.4699631
  13.2779045  62.0814972   7.1880054  13.8187752  61.5197639   7.7431159
  13.8383579  62.8311081   6.9874821  85.2145309  37.7584534  23.8572960
  84.8592148  36.9678955  24.2635040  84.4429092  38.2630806  23.6000519
   2.0890312  51.6551895  60.5779495   1.4218419  51.8421211  61.2383614
   2.9202349  51.7589836  61.0411530  16.9175625  49.6307030  58.9852524
  15.9606771  49.6239815  58.9616623  17.1590061  48.7228394  59.1688805
  28.9416370  59.9516220  29.7710819  28.6322098  60.8134117  30.0500221
  29.8826771  59.9670067  29.9455452  71.8587418  22.8023930  46.7499962
  71.2536621  23.2382317  46.1498680  71.3187637  22.5645123  47.5036964
  74.2463608  40.9846535  63.4520187  73.7118301  41.4886932  64.0655670
  74.0717087  40.0707932  63.6769409  25.6371918  51.8749962  22.4183769
  24.7949104  52.1580086  22.7743225  26.2879944  52.3350792  22.9484825
  17.2348423  22.3395672  10.6090593  17.3004761  21.6497765  11.2694483
  17.3046627  21.8783531   9.7732124  47.3266945  40.0788727  69.9698181
  47.5964508  40.9738998  70.1757126  46.6324959  39.8869171  70.6002655
  26.6699371  41.8346214  59.8016624  27.5514603  42.0140419  59.4746246
  26.1004124  41.9769020  59.0456009  71.2941742   0.1901185  66.7681046
  71.9572372  -0.2043765  67.3346252  71.0428696   0.9962583  67.2189026
  26.3332195  61.0284996  50.7572212  25.3788586  61.0713959  50.8171082
  26.5778694  61.8127823  50.2660141  66.4438477  60.3332100  23.0194187
  66.7448959  61.1038818  23.5007381  65.5039825  60.4741325  22.9053211
  22.4591961  40.8145828   5.7541103  22.7094517  41.0833588   4.8701625
  21.5022697  40.7986488   5.7377081  31.0384979  26.4141579  75.9838943
  30.6599541  25.5565948  76.1775970  31.8618011  26.4283180  76.4719543
  85.0237808  53.8782158  86.1157761  85.1229095  53.3516273  85.3226166
  84.6417313  53.2776680  86.7557907   5.2430844   5.4631906  74.4471970
   5.7360620   5.2346668  73.6591721   5.9129019   5.7024050  75.0877838
  21.6450520  16.9642086  10.8456392  21.7393150  16.1041431  10.4362078
  22.4313393  17.4423370  10.5822449  83.4469757  64.2237854  48.6144562
  84.1343613  64.7518082  48.2083359  82.9625244  63.8529625  47.8768768
  30.4134293  46.4305878  62.7522469  30.9333267  45.6494370  62.5631943
  30.3451538  46.4476051  63.7068558  -0.0345786  45.5992661  50.4650497
  -0.1465492  44.8647461  51.0685196   0.4095505  46.2699432  50.9838715
  76.7726593  54.0352707   0.4925136  76.0214920  54.5774117   0.7334726
  77.2983704  54.5948486  -0.0790910   5.6283798  14.9088154   0.6458835
   4.7198963  14.7279892   0.8871122   5.5736799  15.6549740   0.0488176
  76.0582886  56.7520409  78.4740524  75.3645096  56.0933647  78.5064545
  75.6278458  57.5663109  78.7346649  66.9800491  19.2927570  27.2970276
  66.3763428  19.9536858  27.6360607  67.8275986  19.5256157  27.6760693
   5.2368999  52.7724342  29.1198215   5.8255405  52.1374741  29.5279427
   5.2033000  53.5008850  29.7398701  21.9916668  68.1221695  40.3256569
  21.9298763  69.0772629  40.3401604  22.1489277  67.9062653  39.4064789
   0.4654993  25.2726955  57.7300377   1.1145874  24.5865726  57.8854446
  -0.1247055  24.9001217  57.0749969  11.8943310  45.0611916  67.5212402
  11.9973736  45.9108276  67.0926056  11.5647392  45.2720413  68.3948212
  13.9520454  31.2107925  68.4231567  14.8096104  30.9088955  68.1237030
  13.3451633  30.5266647  68.1405029  53.8156586  30.3243027  48.2789803
  53.1997681  30.1148090  48.9811363  53.7685776  29.5734634  47.6871529
  76.9362335  25.4008427   2.0086033  76.7531967  25.6870327   2.9034898
  76.9188080  24.4449043   2.0545642  75.0987015  31.4351902  62.5604591
  74.6283264  31.7726269  63.3227654  76.0098877  31.3767967  62.8478012
  65.0075073  35.9355049  10.3736849  64.3772583  36.6514778  10.2936802
  65.8534927  36.3714409  10.4761829  67.3004990  16.4550934  37.8455849
  66.5989838  16.0231514  38.3329620  67.8412094  16.8676643  38.5191193
  67.8698502   7.3174014  12.2959204  67.4680786   8.1156054  12.6389704
  67.3237000   7.0769372  11.5474997  57.2520485  40.6337662   3.4034712
  56.6353149  40.9457474   4.0656953  56.8225632  40.8214455   2.5688744
  56.6899185  55.4404793  65.8009644  56.2442474  54.7008514  66.2139511
  57.4934349  55.5502014  66.3094406  76.1062088  56.1931839  64.1016541
  75.2132950  55.8585091  64.1849594  76.6307602  55.4236565  63.8805275
  61.5267410  70.6555023   7.7942348  61.5654678  70.3204269   6.8984346
  60.6523552  71.0376358   7.8694234  83.2554855   2.5882380  37.8844185
  83.6052322   2.3100126  37.0379524  83.6201019   3.4630790  38.0183601
  49.8718758  62.6078911  74.7411346  50.0182114  63.4867325  75.0910645
  49.0753403  62.6885529  74.2164841  51.8185349  42.6149635  38.4866257
  51.2246704  42.8394699  37.7702751  52.6837921  42.8757019  38.1710701
  68.1938553  70.2532883  20.4214916  68.1396637  71.0018921  19.8274460
  69.0614700  69.8822937  20.2607555  75.5262909  64.6090775   0.2632961
  75.2971573  63.9560547   0.9245774  76.3327026  65.0080566   0.5900224
   5.3028693   0.4894301  11.9657221   5.5262332   1.4175178  11.8950567
   4.9809442   0.2536362  11.0956669  16.8586349  59.1040878  36.8234367
  17.3397408  58.6247444  37.4979706  16.3668919  59.7683449  37.3063278
  87.0275879  39.7337494  77.1612091  86.4365463  40.0302582  77.8533020
  86.4527664  39.5476418  76.4188004  81.6033783  65.8763580  13.9890909
  80.7611237  66.2577286  14.2368698  82.1699142  66.6309280  13.8281860
   4.8992472  42.7555237  38.7069168   5.5651579  42.8925514  38.0331078
   5.3820524  42.3961792  39.4512291  83.7490387  59.1435280  24.5559654
  83.6333237  58.3040924  25.0011482  83.4122772  59.7913399  25.1749687
   6.2697158  42.3698044  80.4765472   6.2443376  42.5713120  79.5411453
   6.3535533  41.4170227  80.5141144  25.0089569   4.8208218  39.9572220
  24.4190006   4.9535775  40.6992188  24.4979591   4.3038425  39.3344498
   0.0455942  13.1321821  38.5910378  -0.2342168  12.8548174  37.7186813
   0.9786069  12.9205942  38.6218529  12.0891294  54.9386024  23.5218525
  11.3067493  54.7776794  22.9943905  12.5634174  55.6198158  23.0451641
  18.1994991  52.2974968  73.4279709  17.8854942  52.9378853  72.7895813
  17.4233856  51.7853470  73.6550903  63.1768112  49.0772285  59.3719673
  63.4484711  49.7570229  59.9886627  62.8242455  49.5594063  58.6240120
  79.6904907  23.4662495  38.9978065  80.0890579  22.7218761  39.4486771
  79.0762253  23.0707397  38.3793488  51.9125633  13.0810776  82.7063370
  51.0775566  13.5369339  82.8121414  51.8331223  12.6274042  81.8672256
  37.2089653  36.2335854  18.6862125  36.4674492  36.8188591  18.8406372
  37.7835197  36.7247581  18.0989590  12.4321508  28.1790409   1.2934792
  11.8085709  27.4635963   1.4180483  11.8903532  28.9289551   1.0478834
  29.8220253  52.1405907  22.7111950  29.3927269  52.4274254  23.5172100
  30.0191727  51.2159386  22.8608131  69.0458679  62.4569473   4.4698048
  68.7248154  63.2815781   4.1049194  68.7825699  62.4834633   5.3896980
  38.0559540  58.7021713  18.9851341  37.7119904  57.8884354  18.6166840
  37.4063606  58.9628563  19.6380539  31.9111996   5.8160362  50.3374214
  32.5849419   5.2517953  49.9580345  32.1306992   5.8586483  51.2681389
   3.2856662  10.8184948  81.7888565   3.5637522  11.6377020  82.1984863
   3.1136401  11.0530367  80.8769150  24.6367855  60.1171837  53.1486740
  25.1125069  59.3068314  52.9663239  23.7408466  59.9383965  52.8630905
  32.6240540  31.8330040  81.0036545  32.4069557  31.6454735  80.0904541
  33.4376068  32.3352890  80.9581451  70.8099442  31.0984573  74.1896286
  70.1006088  30.4684258  74.0625687  71.6079483  30.5710506  74.1541672
  26.0281467  31.3900433  17.7791157  26.7817116  31.6590939  18.3044567
  25.5871143  30.7296638  18.3135509  13.3693733  17.5026321  74.2272415
  13.9806671  18.0970058  74.6623001  13.2091484  16.8114262  74.8697357
  49.1254082  40.4259720  56.1740456  48.8127022  39.5379219  56.3467026
  48.7340126  40.6582375  55.3319664  66.1983871  59.4309349  16.2959499
  65.5980835  60.0160179  15.8338366  65.9947891  59.5616722  17.2220650
  79.1235123  52.0934258  67.3434067  78.7935486  52.6653023  68.0364532
  80.0339890  52.3633461  67.2233582  67.8551636  42.3420219   6.6545787
  68.1395721  41.9023476   5.8533120  66.9770889  42.6647530   6.4519367
   1.6102077   6.3633862  37.1838722   1.2141455   5.5472150  37.4892082
   0.9508501   7.0327091  37.3668633  40.4735718  26.5879784  13.5570087
  41.2610092  27.1247673  13.6466255  40.7587090  25.8270588  13.0511150
  61.8466682  29.9743481  28.7829819  61.6873207  29.0310688  28.7503471
  62.5476799  30.1209431  28.1479034  38.8815041   5.8577914  81.6534042
  39.6473656   5.5936465  81.1435852  38.8219681   6.8042364  81.5232925
  22.2043381  54.5401077  29.9852142  23.0023823  54.1204681  29.6638756
  22.5162296  55.2447586  30.5530396  26.7740917  50.0398712  31.4920044
  26.7933922  49.0845184  31.5482273  26.5496769  50.2216034  30.5794029
  67.7023010  13.9907942  42.1638680  66.7494431  13.9554195  42.0799255
  67.9770813  14.6300554  41.5065422  10.7309580  46.3296776  23.4343147
  10.8854208  46.9471474  22.7194004  11.4250193  45.6770973  23.3413239
  31.4757099  39.8055840  19.7685032  31.4855785  40.7302361  20.0157948
  32.3768654  39.5121155  19.9027615   1.8560455  67.9131165  17.0226631
   1.3940145  67.1301498  17.3222103   1.2313811  68.3543167  16.4470158
  65.8843918   9.4235935  12.7761412  65.8010712   9.8014851  13.6516333
  65.9760361  10.1798553  12.1965714  75.8004761  39.5975227   2.7791369
  75.8623734  39.6057167   3.7342985  74.9786530  40.0497322   2.5884881
  54.2034454  49.8595123  20.3366890  54.9732895  49.2930260  20.3882771
  53.9598007  49.8488197  19.4110794  45.3958702  52.3109818  60.5947762
  45.9615555  52.3479500  59.8235016  44.5194397  52.1575203  60.2418594
  73.3440323   5.9157348  36.3572769  74.0137711   5.2400103  36.4625626
  72.9588470   5.7394977  35.4989014  86.3658905  41.2200203  65.8483658
  85.7453232  40.5914955  66.2172775  86.7476578  40.7666779  65.0967255
  20.4882908  57.9566536  49.8355713  20.1179371  58.0725555  48.9605637
  20.7050571  57.0255051  49.8824921   8.6180964  52.5670586  12.3269634
   9.1118221  51.7667198  12.5056295   7.7333159  52.3773727  12.6390762
  32.5178299  68.5838013  35.7889786  31.7782955  68.2976837  36.3251305
  33.1646461  67.8841248  35.8801765  16.0944099  18.9283295  13.0765238
  15.5421782  19.7101536  13.0718660  16.3244228  18.7920837  12.1574144
  63.3585396  33.1476898  77.5290833  64.1981735  33.4001617  77.1450195
  63.2400322  32.2347794  77.2668228   2.7821794  12.5001049   3.7514262
   3.5888298  12.0176325   3.5704086   2.7629240  13.1913910   3.0896220
   9.3588848   5.7686000  83.3327484   8.5127096   6.1726322  83.1404495
   9.9358053   6.0768127  82.6338882  70.8549652  11.8179235  80.0142212
  71.6552200  11.4505224  79.6389389  70.9162292  12.7565508  79.8368683
  72.2502213  33.8330803  89.3048859  71.3513489  33.7654915  89.6269073
  72.2394028  33.3722153  88.4660034  85.5233383  63.4380684  41.5421753
  85.8388443  63.0294189  40.7361374  84.6434402  63.0811653  41.6631355
   4.2902665  59.8216629   7.7985473   3.4604244  59.9419136   8.2602110
   4.0409002  59.7212334   6.8798728  72.4460678  14.6190042  51.2147064
  71.5944138  14.8954382  51.5530853  72.5943069  15.1790714  50.4527512
  81.9557800  35.5807457  69.6901474  82.2201614  34.9787331  68.9945068
  82.4445038  36.3839111  69.5103912  27.8995533   8.8835087  16.8470230
  27.9622307   7.9546223  17.0694504  28.7986469   9.2059412  16.9094677
  70.0986557  57.2356148  51.5199699  69.2885132  57.3674393  52.0124435
  70.1442261  57.9867134  50.9283600  25.4248104  14.4239540   7.9513054
  24.8135223  13.6900492   7.8885179  25.1878777  14.9961281   7.2214346
  17.0172253  39.4518166   5.7272725  17.3369846  38.5750465   5.5145302
  16.2100067  39.5418015   5.2207818  44.8975716  37.9002762  15.8225040
  45.2913857  37.1586838  15.3629618  45.5953407  38.5542068  15.8640690
  35.9993820  71.4091797  78.4733047  35.1390266  71.4103394  78.8928452
  36.1369858  70.4988098  78.2115402  42.7610664  16.1501427  88.2427750
  43.1891975  15.9012384  89.0619125  43.0645790  15.5018711  87.6072769
  46.9522667  34.2723923  82.7904282  47.5222969  33.8504295  83.4332733
  46.3372307  33.5870056  82.5292740  57.6687813   8.0787516  48.5491638
  57.8686295   7.1734257  48.3110924  56.7126160   8.1136627  48.5767517
  62.2529297  35.0104446  23.5130253  62.5173035  35.8505936  23.1382122
  62.8976593  34.8411484  24.1999722  40.6707153   4.4546537  24.7451248
  40.6014442   3.5562415  24.4221859  41.5471306   4.7364802  24.4830112
  24.1163940  60.3210258  21.2808247  23.1920910  60.1407394  21.1093788
  24.5225487  60.3345337  20.4141693   1.9228796  37.2599525  77.4545059
   1.5034525  38.1195679  77.4174271   2.7629957  37.4216805  77.8837814
  71.9825668  56.4605980  76.8641891  72.0605545  56.0705757  77.7348404
  71.1112747  56.2025948  76.5633316   7.1661506  37.4664154  17.4657402
   6.3232846  37.3709183  17.9092369   7.3270259  36.6097870  17.0700912
  27.9194889  63.5356216  37.9987946  26.9833851  63.3382988  37.9671059
  28.2801495  63.1115532  37.2201271  40.7740021  57.5196648  30.3731232
  40.9752502  57.4380913  31.3053665  39.9865570  56.9893875  30.2507877
  73.2762375  64.0398560  68.2218781  73.1303558  64.4711456  69.0638657
  73.3731766  63.1131477  68.4410706   1.2095636  32.2149086  17.7743797
   1.4235411  31.3899727  18.2101898   1.8904855  32.3182564  17.1096287
  76.4144897  65.4875183  57.5621910  76.1429138  66.3205795  57.1768570
  76.9327469  65.0645752  56.8775291  74.7791824  26.0897331  61.5612869
  74.4302063  25.8274536  60.7094307  74.8493576  25.2717915  62.0535049
  72.5117416   7.8606491  18.4602337  72.4754715   8.1481237  17.5479431
  72.6897354   8.6597185  18.9562569   6.4689355   9.0840130  10.8092451
   7.2730727   9.1418228  10.2932472   6.1992159   9.9937572  10.9351387
  76.1465683   7.5890570  72.1997604  75.4151459   8.1940470  72.3232422
  76.8698730   8.1440773  71.9081879  73.6500626  16.9433918  26.9622688
  74.4008560  16.4534054  27.2976151  74.0342178  17.6108665  26.3938198
  79.7266464  21.0313911  66.6533279  80.6227417  21.3211746  66.8243942
  79.6452484  21.0547924  65.6998825  59.3871384  39.4226685  18.8848610
  59.4781113  39.3424950  17.9353733  58.6610603  40.0347099  19.0050697
  79.5159531  42.0388527  12.5950871  79.4481812  42.9456291  12.2960987
  79.7295914  42.1087761  13.5255184  19.3701267  65.5326843  50.1268463
  19.0899391  65.6341324  49.2172089  18.6884956  65.9694901  50.6375504
  41.6419792  55.5414963  42.9222832  41.9597092  56.4407310  42.8407059
  41.9980278  55.2364464  43.7567940  76.3226852   7.5129228  41.2279930
  76.9549103   8.0069580  40.7060165  76.7436523   7.4121757  42.0817299
  66.9374619  26.8330803  35.0059052  66.0691605  27.1293659  35.2788582
  67.5423126  27.4436302  35.4273529  43.3712883  42.3096161  15.5848675
  44.3220978  42.2186928  15.6475372  43.1236687  41.7397728  14.8567228
  69.8291245  58.1992607  55.3169060  69.5279846  59.0800819  55.5398521
  70.7169037  58.3271027  54.9826317  85.7062302  40.1618462  49.8236580
  86.6145401  39.8653564  49.8811913  85.2098923  39.3725357  49.6071625
  38.4123917  12.3515911  88.8896866  37.7554359  11.6557636  88.8681717
  39.2349968  11.8986816  89.0752411  79.7000732  69.5234070  24.2160263
  79.9281540  70.4466400  24.1071682  79.8743820  69.1311417  23.3604679
  71.1553040   8.5964184   2.6297119  72.0219193   8.1918802   2.5901387
  71.0282669   8.8003578   3.5562656  82.1371918  29.7831306   7.1036663
  82.9114609  29.9003239   6.5532050  82.0214462  28.8343620   7.1553540
  65.2843933  34.5941849  79.6243134  65.7138290  33.7389946  79.6027069
  65.0254517  34.7091446  80.5386200   8.0658321   3.1613851  12.7193537
   8.1186848   2.3513126  12.2121830   7.5833993   2.9182158  13.5095177
  20.0513153   3.4773035   9.4097538  19.1829529   3.7767291   9.1404533
  20.4322891   4.2272878   9.8664970   9.9792595   0.5448318  54.8532486
  10.2594500  -0.2481550  54.3961945  10.0838165   1.2432851  54.2071342
   0.8543159  50.6962700  49.9059868   0.9487387  51.3550034  50.5940170
   1.7454871  50.5535431  49.5871201  70.0301361  46.1026535  17.4792595
  70.8140182  46.4047127  17.0204334  69.5821915  46.9064674  17.7428150
  74.9481506   7.9018826  79.9394379  74.9527512   7.8867855  78.9823608
  75.7442093   7.4332156  80.1901932  19.2068481   4.8640671  78.6947250
  19.6686649   5.0918059  77.8878250  18.2878876   5.0548816  78.5067520
  33.5704269  39.9923210  28.3806076  33.4792671  39.0414124  28.4413948
  34.4524727  40.1697464  28.7073250  58.5402718   9.3819370  55.6760979
  58.1727867   8.8440313  54.9747849  57.8257370   9.9664640  55.9290810
  50.8164024  19.3981037  48.8947830  50.0270615  19.9370804  48.8430481
  50.8719254  18.9719582  48.0394783  40.7134743  43.8786774  48.0502319
  40.0691452  43.2165527  47.7999077  40.2654800  44.4129448  48.7060432
  64.1802063  49.1232033  18.1800613  64.9408798  49.4673958  18.6481762
  63.4850540  49.7580643  18.3531132  66.9434204  43.9542313  74.2680359
  66.3390121  44.1525726  74.9832916  67.2133789  43.0496597  74.4264755
  18.5462418  13.9358473  16.3157387  17.9681873  13.2243242  16.0403843
  18.5389442  13.8939228  17.2719936  65.7324066  15.9444590  28.6430950
  65.8896790  15.7744770  29.5718594  64.9637604  16.5147762  28.6307926
  56.5813599  58.3252258  58.1591148  55.6668510  58.0426521  58.1514359
  56.9629288  57.8810806  58.9163284  74.3864212  67.1156082  44.8185501
  75.1389465  66.5415115  44.9612007  74.5273743  67.4828796  43.9459229
  67.4827499  27.2810135  57.5916443  67.7704697  26.6332531  56.9483261
  67.0031815  26.7724762  58.2455864   9.6137962  15.5301571   7.3580637
   9.4350719  15.4953136   6.4183431  10.0161858  14.6846991   7.5568480
  47.0515442   0.3776819  77.8934326  46.7450600   1.2494470  77.6437836
  47.6228561   0.5310580  78.6459656  33.3948288  63.7846260  83.5724258
  34.2973633  64.0038910  83.8039246  32.9842110  64.6284409  83.3837357
  60.8293419  31.9250813  82.8963318  60.9405632  32.2214661  81.9929962
  61.5931587  31.3727608  83.0629501  57.5500488  70.9507217  38.3597794
  58.1776428  71.6072083  38.6620712  56.9944534  71.4194183  37.7369881
   6.8856053  64.6468658  23.5098381   7.7787795  64.9767227  23.4115105
   6.7101560  64.7068481  24.4489079   8.5189829  29.5824471   2.4673340
   8.0360651  29.3021774   3.2448115   8.4919567  30.5386944   2.5003824
  53.3402939   6.1214142  57.0958290  52.7394257   5.5258727  56.6480370
  53.4425507   5.7457118  57.9702568  61.2098389  41.2402306  64.6540146
  60.6431046  41.2065773  63.8833618  62.0402527  41.5850410  64.3257675
  40.3470955  49.4957314  73.7767944  40.5786858  50.3649864  74.1038971
  40.1482468  49.6334763  72.8506622  51.3994293  70.0940552  43.2726135
  52.1589813  70.5693207  43.6094093  51.6588554  69.8205643  42.3927650
  62.3194199  14.0284824  74.2814865  63.0627899  14.1520643  74.8717117
  62.2941055  14.8290091  73.7573242  86.6712341  37.5596504  64.5139313
  86.7766037  38.2502899  63.8596001  86.1313248  37.9572601  65.1970367
  61.0123482  31.0187664  71.3080597  60.3385773  31.0073051  70.6282578
  60.5832863  30.6432190  72.0768967  66.9209518  50.4063644  26.8420582
  66.6516495  49.7552071  26.1942139  66.2031784  50.4255486  27.4750347
  69.8465500   4.1022668  59.1600800  69.5519562   3.2036638  59.3082619
  69.3085785   4.6309476  59.7494087  59.2594261  62.2997513   1.6641902
  59.6631660  63.1393394   1.4443754  59.2125549  61.8310623   0.8309039
  27.5491066  61.0960312  22.3121223  26.8399200  61.0659065  22.9542904
  28.0367889  60.2849846  22.4556427  25.8096409  68.1865616  30.9108887
  25.5017910  68.4906921  31.7646847  26.3322487  68.9133453  30.5719166
  36.2496452  43.9996719  39.2767296  35.4913673  44.5516777  39.0855751
  36.9754868  44.4225044  38.8178215  41.5134125  64.6464310  34.0308037
  41.5743332  64.2870102  34.9158707  40.6189384  64.4488678  33.7531128
  56.3365021  35.6931458   0.3314191  56.1475830  36.1214752   1.1663299
  55.5672493  35.1493721   0.1617345  38.1738129  58.1116104  43.6136093
  37.4836884  58.7731133  43.5648689  37.7124977  57.2773857  43.5270653
  77.1707993  69.1721878  15.2992811  77.2854385  69.6316376  16.1311436
  76.7002792  69.7945709  14.7447729   8.0179167  38.0859718  72.5142899
   8.8853598  37.7125626  72.3582764   8.1456280  38.6915207  73.2445145
  22.2411938  29.1701260   8.3382177  21.5634518  29.8092556   8.1181917
  22.6097393  28.9114399   7.4935360  58.4702911  56.1586952  67.8891907
  59.3720551  55.8463402  67.9632568  58.5043716  57.0641937  68.1976471
  44.4014359  24.2621365  62.7491264  44.7922134  23.3884106  62.7604637
  43.8526726  24.2689228  61.9648781  19.7563057  19.4086037  16.7684917
  19.6924019  19.5460129  17.7136192  18.9599953  18.9281998  16.5419235
  71.9383621  69.3529205  61.3632812  72.1693878  68.9337540  62.1922302
  71.2721558  69.9985962  61.5988770  42.0076141   9.4634485  89.2515564
  41.1425781   9.8033609  89.4804764  41.8710289   8.9965706  88.4271774
  73.5884399  71.0172806  88.3832016  73.5645142  70.1462479  87.9870224
  73.3208389  71.6080475  87.6791992  50.9896812  18.2578087   6.0698371
  51.3666840  19.0950356   5.7993736  50.0483208  18.3634377   5.9322934
  44.4932556  66.2001953  16.5957966  44.3164062  65.2643280  16.6911926
  45.4396515  66.2785721  16.7158852   4.4598069  70.8030319  35.2379951
   4.3145461  69.9103851  34.9244537   4.5003190  70.7186661  36.1906090
  60.6711922  13.2799482  35.6925430  60.9917603  13.4240942  36.5828743
  59.8825760  13.8190365  35.6317062  78.7940674  29.0286388  20.1025410
  78.5997238  28.8228302  19.1881542  79.7434769  28.9297428  20.1737385
  63.9925919  10.9538736  54.1465912  64.3845520  10.3069735  54.7332077
  63.2948074  11.3551741  54.6645546  72.4738007  43.0547752  82.5405502
  72.8948441  42.6987305  83.3229675  73.1560898  43.0311508  81.8696136
  65.4551926  25.9771900  42.6529388  65.4394989  26.9172153  42.4731140
  64.6999359  25.8295803  43.2221680  57.6294327  68.2133713  31.6216774
  58.0017891  69.0814743  31.7765350  56.6941032  68.3729782  31.4955177
   7.0169010  59.4780655   7.0467744   6.3889976  59.8118591   7.6875157
   7.7959456  59.2681007   7.5617862  12.8051577  61.6429634  88.1665878
  13.2308645  60.9533043  88.6758804  13.2086678  61.5849113  87.3005371
  43.8450127  40.1662254  42.0985146  44.5599556  39.8436966  41.5498276
  43.8156738  41.1071205  41.9250488  20.2444477  66.4982300  14.6577692
  19.4737148  66.3804398  14.1024981  19.9301224  66.3214645  15.5444412
  75.8215714  21.5542030  77.2293854  76.7676773  21.4553032  77.1229019
  75.5016403  20.6627312  77.3677750  70.9511414  63.3121643   0.4360253
  70.1733398  63.7963028   0.7132615  71.5634003  63.4042397   1.1660192
  71.2511520  64.4936142  56.9296646  71.6525116  65.3614960  56.9736176
  71.0421219  64.3730316  56.0033836  48.5290947  30.8540802  19.7875767
  49.0678139  30.6455727  20.5508175  48.7589912  30.1855164  19.1422844
  11.6813803  42.6857605   4.6013770  10.8982315  42.9068832   5.1053758
  11.3971090  41.9881172   4.0108557  43.3630714  24.7649841   0.0441284
  43.1248779  24.3960915   0.8946670  43.8104439  24.0508537  -0.4098616
  10.9767418  44.7025795  53.2263145  10.4029579  44.2788925  52.5879593
  11.7921333  44.8577385  52.7495575  82.4059906  63.7530899   7.2998619
  81.8931732  64.1164474   8.0218172  82.9357758  63.0661201   7.7043748
  34.3074532  58.0451164  16.5810032  33.6509323  57.6391335  17.1470375
  35.1071472  57.5452919  16.7450104  25.8423710  13.1883850  74.6056671
  25.1607132  13.7436352  74.9841843  25.3755283  12.4105501  74.3002777
   9.6066961  57.6274948  46.3709183   9.2207108  58.1408081  45.6611633
  10.2103081  58.2319374  46.8028183  56.3825378  42.4900475  32.8313446
  55.4830704  42.7840157  32.6872139  56.6812668  42.2013931  31.9689789
  24.9022636  48.4540977  11.8833780  24.2577457  48.0673752  12.4760628
  25.6970463  48.5312614  12.4111996   1.8521380  35.7541656  80.5590363
   1.6064116  36.6786308  80.5938568   1.2641530  35.3264389  81.1815796
  16.4889812  50.3373833  73.6173553  15.5339432  50.4016838  73.6159592
  16.6657104  49.3966789  73.6088028  31.2480049  46.3632317  73.8432770
  30.8657436  46.8808212  74.5519485  30.7472363  45.5474739  73.8454590
  28.0100956  30.0640469  16.1496296  27.1339684  30.4485493  16.1215477
  28.0087128  29.5222721  16.9387493  43.2124443  41.5268555   0.3918344
  43.1498375  40.6519432   0.7750365  43.0016289  42.1198578   1.1130370
  47.4492569   2.8570545  66.4886398  47.1235847   3.5073006  65.8662643
  46.6728401   2.5826726  66.9766159  20.0475349  69.1888657  18.8790512
  19.9665222  70.1373367  18.7786732  20.0812931  69.0502014  19.8255520
  20.1398983  50.6924553  11.8954639  19.8942528  49.9221001  11.3831749
  20.3739281  50.3434982  12.7555161  77.2297058  12.9648867  68.4258652
  78.0734253  12.7843294  68.8403244  77.1249313  13.9135008  68.4992599
  75.1783905  21.1809769  11.9831772  74.9626770  20.8667793  12.8612309
  74.5673828  20.7211761  11.4074335  60.5792770  39.7534409  38.2297668
  59.7424049  39.9864464  38.6317368  60.3505020  39.4806900  37.3412285
   1.0313535   8.3632269  27.0953217   1.2569199   8.2398996  26.1732903
   1.7760655   8.0001631  27.5747185  83.9369125   8.3852043  28.6531773
  83.3662796   7.6314788  28.5031433  84.3211975   8.5690670  27.7960014
  29.3632107  60.0182991   4.3313961  28.7803020  59.4143982   3.8712347
  30.2081203  59.5688133   4.3492227   8.0157261  54.4466476  59.1132545
   8.1982718  55.3739662  59.2648773   8.8447809  54.0879898  58.7966080
  57.0732155  62.2906075  35.5853348  57.9855804  62.5126915  35.7710724
  56.8073921  61.7365685  36.3192329  30.9073296  54.8652115  19.6710491
  30.6299610  55.3369217  20.4564095  30.5895500  55.4015999  18.9447308
   0.6035872   2.4702590  40.8299828   0.0442423   1.7384247  41.0903358
   1.4622610   2.0743096  40.6812057  32.9775467  44.2480049  26.3115368
  33.6715736  44.8582878  26.0622997  32.2029991  44.5628548  25.8455143
  55.4631004  52.0289955  11.1118212  54.9319496  51.2790756  11.3796434
  56.1363297  52.0995712  11.7885876  84.4383698  47.5642662  19.2341995
  84.6315689  46.7767525  19.7428532  84.9130554  48.2628098  19.6846886
  66.0628586   0.4722993  62.4228096  65.1646118   0.7379222  62.2257843
  66.0912704   0.4136266  63.3777885   5.5746856  64.0385742  53.7896423
   6.0853329  64.4813461  54.4674530   4.6967716  63.9614258  54.1632042
  41.7878189  13.3506365  80.5169373  42.1472778  13.9794321  81.1427460
  41.0345154  13.7990942  80.1326904  73.0459137  68.3130875  71.8471680
  72.3052139  68.6322556  72.3626633  73.5872192  69.0886917  71.6999969
  22.6756611  19.6880226   6.5706015  21.7217159  19.6697788   6.4938755
  22.8838196  18.9516964   7.1456885  42.2216835   2.9390779  52.5532036
  42.1509628   3.4111271  51.7235031  41.9175873   2.0540676  52.3519249
  64.6766434   3.4901912  79.6930466  65.0118484   4.2727833  80.1305695
  64.2324295   3.0005267  80.3852463  65.6218033  12.4500494  62.6007423
  65.4044418  12.7195482  61.7083511  64.8767090  12.7404079  63.1268196
  68.9982147  66.4260788  84.3995743  68.4806747  67.0976562  83.9553070
  69.9073105  66.6735001  84.2305984  73.6829376  63.3189468  17.9245586
  74.2297134  63.3426971  18.7098618  72.9002686  62.8372192  18.1921387
   8.2981358   7.2213936  28.0950909   8.6744843   6.6746426  28.7847691
   8.7063255   8.0782518  28.2192154  12.7510738  46.0464134  51.8155785
  12.4705038  46.7738953  51.2603455  13.4190788  45.5950584  51.2995529
  20.3132935  57.8749275  13.4123468  20.6597195  56.9832916  13.3775501
  20.8589249  58.3679581  12.7996149  25.5951595  44.3833809  23.6969852
  25.5205307  45.1978302  24.1943130  26.3031006  44.5472260  23.0739212
   1.2178993  37.6332626  36.9046745   0.8395766  36.7902756  37.1546249
   0.5605004  38.2778778  37.1664581  68.0606155  68.7838745  34.3303337
  69.0002594  68.9429092  34.2407875  67.8238831  68.2966614  33.5411491
  26.5375652  45.5296249  50.1650734  26.4333305  45.3687897  51.1028900
  27.2643738  46.1498642  50.1077652  20.1060085  51.4885674  76.5373001
  20.5395355  50.6557236  76.3511353  19.3236847  51.2459030  77.0325928
  39.9409790  39.5275726  83.4909439  38.9848366  39.5462646  83.5319138
  40.1474762  39.7909317  82.5941544  64.4119644  57.2819290  81.8814163
  63.6858025  57.5710068  82.4340057  64.9481049  56.7360992  82.4566193
  65.1611023  66.8770981  80.4211655  65.3429031  66.1587372  79.8152466
  64.3651352  66.6080246  80.8797150  52.0120659  61.5132027  83.8558502
  52.1766014  61.4291077  84.7950516  51.0773430  61.3310547  83.7591934
  61.6976738  24.7868824  63.2400818  61.4292297  24.8301544  64.1578445
  62.2777443  24.0267582  63.1957855   0.3304455   1.5169975   5.4177189
   1.2420709   1.7316259   5.2199674   0.1899585   1.8590134   6.3006234
   5.2780643  51.9122086   3.5975771   4.4778061  52.3604431   3.8712652
   5.7989802  51.8422890   4.3975701  56.9848862   4.5583529  35.6275558
  57.5439377   3.8173215  35.3939705  56.1706314   4.4044638  35.1484489
  12.3713179  44.5208359  55.4414902  11.8754215  44.9234505  54.7285957
  12.0155287  43.6348763  55.5102158  40.1690292  29.8574219  27.2896843
  40.7861786  29.1266804  27.2525940  40.2576294  30.2008591  28.1787472
  22.3768463  44.7780075  54.0469780  21.7066936  45.2893333  53.5934677
  23.1850834  45.2742653  53.9176903  54.3326073  59.0821991  80.9486923
  54.7270851  59.3338661  80.1136627  53.4865494  59.5297775  80.9584579
  56.2216492  32.5856209  53.9695511  57.1606903  32.7540054  53.8915443
  56.1376991  32.0611877  54.7658882  36.5769157  23.0853748  68.4195862
  36.3668137  22.8844109  69.3315582  35.7278214  23.2463150  68.0080414
  82.3750992  49.9502296  14.5176744  83.2762146  49.9120369  14.8382435
  82.1045990  50.8555679  14.6707287  84.6256561  12.0294285   8.7886581
  84.0713959  12.8097410   8.8006754  84.4148788  11.5986633   7.9602590
  80.7912140  68.0568848  29.9582138  81.4127045  67.4236679  30.3174076
  81.0244751  68.8854218  30.3769588  52.0077591   4.0318851  72.5397491
  52.3798485   4.3374014  73.3670578  51.7680893   4.8333220  72.0744629
  70.8141556  36.2086525  27.6283855  70.0315552  35.9599113  28.1202221
  71.3092346  36.7638435  28.2307930   1.8755599  28.0834675  30.1931953
   2.1507161  27.7635536  29.3340225   2.2803292  27.4785843  30.8148937
  81.1694489  56.2579193  79.5292511  80.2652893  56.0863037  79.7924652
  81.1014175  56.9602661  78.8824844  21.9855881  69.6395721  85.3157959
  22.4894485  70.2278824  85.8781586  22.3236465  69.8021393  84.4351654
  28.2140617  23.3932400  89.2713776  28.6583138  23.0662117  88.4891205
  27.5712929  22.7161083  89.4824982  11.6211319  57.6094704  31.2585697
  11.3793974  58.4604607  31.6240978  12.2828722  57.8120804  30.5972958
  17.0253906  38.6612206  17.4345398  17.6264591  38.1619797  16.8816338
  16.1541100  38.3742943  17.1610889  23.1037788  30.6353397  74.3194962
  22.9913063  30.0552349  73.5664597  22.9401131  31.5123882  73.9727478
  80.1401215  25.4302711  52.1464310  80.7427597  25.3077393  51.4129181
  80.3406982  24.7099934  52.7440948  50.1327095  36.3246689  20.3454475
  50.7657776  36.9156609  19.9377861  49.8391991  35.7586708  19.6314945
   3.5645916  25.8761997  58.9990044   4.2567368  26.3919373  59.4127426
   2.9289155  26.5257530  58.6986237  79.9138184  27.1927929  42.4921074
  80.6365051  27.3783760  43.0916939  80.3163910  26.7000160  41.7770309
   1.9602629  66.9624481  60.0166054   2.6236653  67.6113052  59.7818298
   1.5742737  66.7012482  59.1805305  41.1837349   2.1545765  86.2040710
  41.7447662   1.3808045  86.2565384  41.2838707   2.5811758  87.0550842
  80.8185806   3.5395277  22.6083202  81.2177734   4.3534665  22.9155350
  81.4153824   3.2207217  21.9312458  14.9721308  28.5417271  24.5409908
  15.3306313  29.1596737  25.1780548  15.6968946  27.9459915  24.3511257
  51.0214005  67.7714996  20.5866394  51.5803375  68.1286392  21.2767639
  50.5746536  68.5350647  20.2211094  62.0819931  51.9009933  42.3760071
  62.8973045  52.2797012  42.7047691  61.4997520  52.6515312  42.2580338
  49.4031372  44.0098648  70.5448074  49.8020058  44.7950783  70.1698761
  50.1239662  43.3836250  70.6116028  39.4115448  51.0927048  78.7769470
  39.0090942  51.1949883  79.6393890  38.6818390  51.1664314  78.1618729
   6.3135552  49.1770248  45.4785538   5.5892758  49.5405579  44.9691467
   6.6671271  48.4787216  44.9275589   9.9893780  50.5139008  49.2358932
   9.0650892  50.7046013  49.3957520  10.3924093  51.3725929  49.1076660
  54.2458954  55.0627403  80.1597824  54.9797745  54.5449257  80.4907227
  53.7164459  55.2504501  80.9348221  23.9512844  44.4805908  56.5561714
  23.3600140  44.6983833  57.2767258  23.3832798  44.4292297  55.7874298
  80.4268799  10.1752996  70.0281448  80.5350037  10.4500628  69.1176224
  81.1630554   9.5851059  70.1892548  84.0700150  38.8050270  78.1353455
  83.2626495  38.4110832  78.4657974  83.9763412  39.7384644  78.3254776
  61.0812912  25.9081306  78.0857391  60.8960876  25.1911259  77.4792480
  62.0274582  25.8661709  78.2244339  18.6613655  69.0625534  71.2385178
  18.9071541  68.5827408  72.0294647  19.0727406  69.9207001  71.3414078
  40.7341690  55.1298141  50.8740387  40.2178802  55.8838921  50.5893555
  40.3284416  54.3822479  50.4349937  35.8160934  10.9352188  11.6345987
  36.7316055  10.9396944  11.9139738  35.5473480  11.8527975  11.6799603
  85.1389160  40.8146896  21.4645348  85.7337952  40.1509743  21.1154900
  85.6477966  41.2598915  22.1420803  82.2656860  27.3692245  12.5563555
  81.6427994  26.8147163  13.0262127  81.7180481  27.9542809  12.0328760
   7.9268703  69.3176727  75.9224243   8.7987709  68.9236755  75.9505157
   7.4271936  68.8410416  76.5852814  64.5279617  67.9526672  39.1333733
  64.3732681  68.8869324  38.9938812  64.2903366  67.8045959  40.0487099
  44.9900246  25.6617603   8.7836409  44.5925293  26.1248379   9.5210619
  44.7444305  26.1782093   8.0160494  47.3356171  26.9544449   9.9943876
  47.7496490  26.5089912  10.7335644  47.0870438  26.2482872   9.3979111
  59.1777115  32.8789024  76.6146927  58.3322563  32.5470963  76.9169159
  59.3684082  33.6143036  77.1969757  59.6042671  48.2057495  82.5597382
  59.6109695  47.3051682  82.2354736  60.5285454  48.4243851  82.6786423
   5.7866607  32.8729935  20.6554127   6.4472132  33.5652924  20.6804867
   5.3935814  32.8852844  21.5280914  50.8220177   7.8115935  38.3506355
  51.4452286   8.4258556  37.9626617  49.9645958   8.2032795  38.1843948
  16.2576103  69.5780106  76.6014481  16.1294403  69.7872238  75.6762314
  17.2027760  69.6499405  76.7345734   6.7936697  44.3864784  44.1734962
   6.4540186  44.9900856  43.5127945   6.5194879  44.7661514  45.0083046
   7.3763328  51.9091110   1.2416056   7.4016595  50.9782486   1.0200397
   6.4743176  52.0641403   1.5219018  81.0638809  56.9166794  82.5887070
  81.9270935  57.3283310  82.6292343  80.7271500  56.9778404  83.4826279
  46.1471443   9.3586740  35.4993172  46.4680519  10.2461557  35.6594048
  45.4239960   9.4730568  34.8827095  49.7888412  48.3625145  82.3206863
  49.5930748  47.4785957  82.0098801  49.1097565  48.9105797  81.9273605
  12.3111849  47.6181717  37.7691689  11.8781519  46.7909622  37.9799843
  12.8400078  47.8155060  38.5422363  82.8775253  22.8343735  40.4401703
  83.3685684  22.0339355  40.6256676  82.0189819  22.6859589  40.8365440
  36.1130714  62.8929977  58.4311333  36.0750465  62.1230164  57.8637581
  35.1966782  63.1237946  58.5834045  10.8227682  27.2920380  15.2349997
  11.6185894  26.9949512  14.7938194  10.3897314  27.8557301  14.5939360
  80.0471954  27.8465157  25.1842327  79.3573990  27.1948128  25.0589638
  80.3370590  28.0618877  24.2977638  83.1680145  52.7214851   0.3951840
  82.4105453  52.3634796   0.8581091  83.0083160  53.6648827   0.3682196
  45.3726120  25.8145752  66.7837524  44.9949150  26.1835518  67.5821457
  45.2836113  24.8676987  66.8920898  32.4445419  30.5523930  76.4710541
  32.0100708  30.4652290  75.6225967  33.1236649  29.8778915  76.4627914
  16.0589676  55.5400314  68.9641342  16.8649330  55.9826660  68.6981888
  16.0307236  54.7495995  68.4250107  78.4934998   1.4026247  12.5096674
  77.9053192   1.3804770  11.7548237  78.7503967   2.3215220  12.5862532
  16.4185867   5.6227074  65.9685364  16.2299328   6.1493740  65.1918335
  16.9516716   6.1938872  66.5215302   6.3487973  58.2950745  55.3221397
   6.6292534  58.2330170  54.4090538   6.7912207  57.5670662  55.7585945
  80.6584473  68.8149185  86.7539902  80.3116989  67.9927826  86.4074631
  80.0181885  69.0866241  87.4116211  76.8511963   5.5703549  39.1608467
  77.4981003   5.8942356  38.5340767  76.7821045   6.2659497  39.8147659
  62.6209145  21.4414120  84.0712128  63.4010506  20.9056911  84.2148285
  62.1385384  20.9825420  83.3834763   4.1097260  55.0194321   1.5790493
   4.2684894  54.5678329   0.7501435   4.8488159  54.7692719   2.1334834
  64.1956024  49.6608200  55.0977745  64.9161072  49.0754166  55.3310432
  63.4203033  49.0994568  55.1008873  21.3756828  56.4195633  41.3198204
  21.5081005  55.8152962  40.5893707  21.9415436  57.1651497  41.1194763
  36.9373322  67.4136963  48.8849297  36.8306808  68.2310486  49.3715401
  36.1032181  67.2948151  48.4306641  53.0843163  28.0729733  46.9631119
  53.1474037  27.5060577  47.7317848  53.0095062  27.4681911  46.2249565
  72.6789398  66.7353973  36.3233414  73.2532196  67.0295410  35.6162949
  71.9040909  67.2925949  36.2500496  60.0617943  47.9815445  16.8626690
  60.8183823  47.4370461  16.6451168  59.3133812  47.3882370  16.7986507
  74.8228683   3.0082536  74.6335297  75.0808792   3.6227527  73.9464722
  74.6035538   3.5636780  75.3816147  73.2732315   9.4053125  65.6714325
  73.3700409  10.0121031  64.9375000  72.3274002   9.3340254  65.8001022
   9.5209217  46.0950012   4.1552715   9.1142111  45.8650284   4.9906945
  10.4612293  46.0754395   4.3332348  11.2018728  45.5327415  70.2570267
  11.1624937  46.4781189  70.4017487  10.2909222  45.2439232  70.3116684
  38.4633675  56.8308945  49.7520523  38.7827606  57.5639992  50.2781448
  37.5150642  56.9563255  49.7172050  64.9455032  12.2610502  38.4138260
  65.4343719  11.4942837  38.1149788  64.2590714  11.9030094  38.9767189
  82.5411682  46.6140671  59.4479637  82.4359741  46.0057068  58.7164841
  83.4798813  46.7997322  59.4719772  70.6257401  21.3282299  49.0207939
  69.9881897  21.8606281  49.4965172  71.4144669  21.3582401  49.5623131
  61.1981659  35.8926964  59.3779335  60.3907661  35.3827209  59.4431915
  61.7676620  35.5272408  60.0549469  61.9013443  68.1666794  75.0952454
  61.9067497  68.9318619  74.5201874  61.5803986  68.4992752  75.9334641
   6.6616120   3.4915876  22.7591648   6.0516481   4.2057710  22.5744534
   6.5459256   2.8830390  22.0294266   8.1147814  48.1781540  41.5561600
   8.8672266  47.9467278  42.1006775   7.3982325  47.6434517  41.8980370
  14.2393618  51.6396141  65.4407959  13.3130722  51.8585548  65.3393860
  14.2389193  50.8183517  65.9324875  52.4500961  32.7996750  19.2178402
  52.6937523  33.6252518  19.6365089  52.7387314  32.8969765  18.3103962
  42.6891632  37.7744179  71.9610825  42.6859474  38.7311783  71.9899750
  43.5982475  37.5436249  71.7699356  42.2030487  23.3677387  16.1942368
  42.9095192  23.4751205  15.5573692  41.4105492  23.2934322  15.6625805
  55.5357933  55.1492805  28.6655521  54.6712112  55.4526100  28.9425373
  56.1236267  55.4277077  29.3678093  12.1018696  27.0519161  22.6981754
  12.4044762  26.5827446  23.4756947  12.9047031  27.3515091  22.2716351
  73.2494659  60.8229485  21.2348442  72.9982147  61.0529175  22.1293945
  72.5033722  60.3280525  20.8962364  80.2083130  50.0904617  84.0272903
  79.2834473  49.8441238  84.0138321  80.6702805  49.3022995  83.7416000
  51.6665115  20.4935799  43.7377701  52.3580017  20.8543644  43.1828728
  51.9827347  20.6264763  44.6314011  60.3682175  28.7341690  88.0935669
  59.8906593  28.8275909  87.2692871  61.2393341  29.0841122  87.9066696
  23.5249977  38.0204659  30.8412323  24.3955975  37.6558380  31.0003986
  23.0856743  37.9708710  31.6902122  28.9676876  52.1755714  79.8010864
  28.1224518  51.7356644  79.8921509  28.7744713  52.9625015  79.2915421
  48.7280426  65.6831131  36.0573235  48.8494644  65.9275818  35.1398659
  49.6147881  65.5307236  36.3839607  37.8735580  56.3150673  82.5559311
  37.1732826  55.7178192  82.2929764  37.9471817  56.9328651  81.8285141
  50.7939148  44.2148361  23.8968697  50.7503128  43.5877037  24.6186981
  50.0690689  44.8183823  24.0598431   5.1947279   6.4483161  71.4786606
   5.8245478   7.1263084  71.7233810   5.6940527   5.6325631  71.5167847
  34.4247246  50.4171600  81.9418182  34.1832008  50.9159241  81.1613464
  34.5858040  49.5305138  81.6191025  45.5287399  46.6264038  67.4656067
  45.5505180  47.5827408  67.4998932  45.5416603  46.4198914  66.5310364
  49.0952835  12.2867174  23.3207684  49.3760948  11.3716898  23.3308468
  49.7238808  12.7363977  23.8854656  18.1224976  30.3839283  17.2207851
  18.9438114  30.0400753  17.5721226  18.3920479  31.0659008  16.6055698
  30.0285435  42.9786606  28.2470093  30.1149921  43.9317513  28.2664719
  29.1025200  42.8259506  28.0588837  76.2124557  67.9654999  19.8517189
  75.9667206  68.2761917  20.7231064  75.9825287  67.0363312  19.8550720
  51.7808342  55.7832336  61.6548958  51.6551743  54.9738884  62.1502838
  51.1452370  55.7283936  60.9412842  59.3569260   4.3973241  47.1579208
  58.6662903   4.7043204  47.7452965  58.8961258   4.1445270  46.3579292
  54.7699127  12.7933521  34.9159393  54.3351059  13.6416044  34.8285141
  55.7042847  12.9988308  34.8849258  62.2089272  62.6650124  74.2026367
  61.5329628  62.0444946  74.4751511  61.7606506  63.2579651  73.5995712
  45.3186836  24.4398708  14.9947948  44.8327827  25.1798687  15.3588486
  45.1803513  23.7304783  15.6223764  62.0018311  70.6427612  86.6841125
  62.0444450  69.7345963  86.3846893  62.7746658  71.0577698  86.3010635
  55.3980179   8.4762154  45.6155853  55.9576759   8.9932909  46.1949348
  55.8097420   8.5516977  44.7547646  14.3400230  53.1373253  56.0315666
  13.6715956  53.4502182  56.6410980  15.1372070  53.0812569  56.5584297
  37.6928329  67.5745850  12.6664658  37.6368675  66.9115524  13.3545704
  36.7816849  67.7744217  12.4517450  54.1200676  42.9034081  55.9145546
  54.6235733  42.1325111  56.1761436  53.4755440  43.0168724  56.6130867
  27.4194584  26.3109531  74.8451462  28.0097866  27.0463467  74.6810074
  27.8751678  25.7789879  75.4975052  54.3784714  11.4873629   7.3046417
  54.3039780  10.5916414   7.6338301  55.0371513  11.4340391   6.6121607
   1.4297159  51.8736725  41.8804016   0.6545376  52.2675591  41.4801712
   1.8377028  52.5895386  42.3675461  10.8982973  38.7085266  74.2933197
  11.2824984  37.8320198  74.2742615  11.4245291  39.1868248  74.9340515
  28.8066444  46.9769630  17.3094482  29.7366848  46.8048744  17.4565639
  28.3827381  46.7175789  18.1275272  23.5123158  52.5199890  24.1007195
  22.9159184  52.1229324  23.4659863  23.0225220  53.2602005  24.4590816
  18.6596031  41.9487038  10.9676886  18.7136707  42.7361984  11.5091305
  19.1881123  42.1519127  10.1959286  33.6362724  41.1002045  85.4300613
  33.1940155  41.9392548  85.3010788  34.3499794  41.1051064  84.7922287
  66.5740585  64.4565811  52.8707085  65.6607895  64.5310516  53.1475410
  66.7686005  65.2980347  52.4579849   1.1603403  32.9512863  29.2878838
   1.3055024  32.1613884  29.8086777   0.5735585  32.6706734  28.5856190
  36.3022270  60.1884918  21.8861179  35.7972183  60.2398758  22.6976357
  36.5443802  59.2653389  21.8127556  33.5316582  61.6206360  86.0791702
  33.8899841  61.6056290  85.1916962  34.2987785  61.7020378  86.6458588
  53.7692223  31.7415733  43.0951309  52.8940544  32.0319710  42.8382568
  54.2336807  32.5484734  43.3174400  10.6344299   0.6635686   6.2542458
  10.9979620  -0.2015003   6.0652180   9.6877518   0.5247407   6.2817960
  84.2946854  48.7175903  24.8946209  83.5077896  48.2222900  24.6672325
  84.5760727  48.3489952  25.7319908   7.0620294  20.0359383  63.5230904
   7.4890990  19.7518501  62.7149200   7.6705289  20.6677265  63.9062386
   0.5538791  56.3697052  69.8176270   0.8526309  56.5686874  68.9302826
   0.9658724  57.0384674  70.3646698  36.3147430  55.5078621  53.0213890
  36.4333649  55.5425262  52.0722008  35.6189384  54.8637238  53.1524429
  67.1680069   2.1156070   3.7308111  67.3021851   1.8228290   2.8294177
  66.2609940   1.8805269   3.9264953  37.2731476  22.9272537  14.0917759
  37.1226845  22.1934662  14.6877193  37.0676079  23.7041569  14.6117811
  78.7608032  36.0934296  30.1914539  78.5505295  35.4670753  30.8840561
  79.2773285  36.7700691  30.6291733  49.0095139  58.4319000  44.6076546
  49.6367264  57.8325386  44.2031746  49.1734695  58.3518600  45.5473061
  24.3960133  46.6721191  88.3690567  24.1005745  45.7878685  88.5859680
  23.6336956  47.0870819  87.9654388  32.9414444  42.1872826  66.3470688
  33.2799339  43.0801353  66.4139557  33.6191406  41.7094040  65.8689499
  36.4819298  62.1206741  81.3667679  35.9532967  62.9178581  81.4025116
  37.1862717  62.3276901  80.7525330  62.9695435  40.1664696  14.8931074
  62.3103752  39.6605797  15.3682966  63.1536560  40.9140167  15.4618864
  78.4240112  35.1400146  37.6724968  77.7864761  34.6768761  38.2159004
  78.7606659  35.8350906  38.2379799  43.6032143  52.0617332  18.5500374
  44.1163750  52.7598686  18.1432209  42.7010880  52.2426224  18.2860622
  70.7476883  12.9443598  45.8323402  70.9140701  13.6200075  46.4896469
  71.0758514  13.3193207  45.0150642  52.3612213  67.4469757  87.4735413
  51.9873085  67.3385010  88.3479919  53.3036423  67.5215683  87.6235962
  24.9420509  69.6274414  14.9256935  24.2044048  70.2141037  15.0928459
  24.6705627  69.1116180  14.1664486  71.2807693   3.5159757  46.3063240
  71.0847702   3.0694275  47.1299820  70.4442215   3.5395989  45.8417168
  70.7306290  50.4285393  51.3222733  69.8604584  50.2527885  50.9643097
  70.5869598  50.5274200  52.2634506  30.5862598  16.8457546  84.1192474
  30.4887543  16.8517590  85.0714493  31.5308018  16.7871990  83.9755630
  54.5331841  15.1568975  65.6224747  53.8427963  15.4925375  65.0506897
  54.7247429  14.2839422  65.2797165  85.5587158  11.9530458  75.0090256
  85.5064926  12.0005188  75.9636230  86.4943161  12.0161142  74.8169098
  38.2336197  30.9899578  76.6018829  37.7393265  30.1733112  76.5312424
  37.9677963  31.3587246  77.4442520  62.7769699  10.9705276  74.0029297
  63.7318001  11.0064430  73.9459839  62.4872513  11.8370790  73.7176514
   7.3914199  59.1117172  82.0712891   7.0505786  58.8376846  82.9227371
   6.6324553  59.4753456  81.6152420  55.4802704  40.4800873  51.8327026
  55.2329865  41.2148895  51.2713242  56.2481613  40.1002846  51.4057045
  75.9611435  57.1091652  75.7164536  76.2695923  57.5832062  76.4887009
  76.7551880  56.9282570  75.2134628  85.4475479   2.5242336  77.9682007
  84.8030701   2.6214964  77.2671890  85.6266632   1.5844859  78.0001831
  37.8592987  57.6739960  39.2946892  37.3175011  56.9845085  38.9109039
  38.4122849  57.2185936  39.9295464  86.1509171  58.7780228  19.1890812
  86.2148743  58.1456490  18.4733677  85.2807007  58.6324768  19.5602455
  47.1009064  62.2825394  76.6865387  47.6426392  62.7592125  77.3154602
  46.2260590  62.2833443  77.0749588  33.7298164  46.0586586  56.4902115
  33.3031540  46.7731705  56.0172768  33.4875031  45.2709045  56.0034294
  33.2489700  36.5572014  61.0652657  32.8732758  37.1348495  60.4008827
  33.1718292  35.6796112  60.6909447  33.6364517  61.5837173  36.9263077
  34.4842682  61.9112129  37.2266083  33.6183357  61.7879257  35.9913177
  55.3192787  19.8366394   2.0426826  55.2633667  19.3523979   1.2189013
  56.1191788  20.3560410   1.9613767  22.0692272  61.6850357  89.5016098
  21.6065960  62.5048752  89.3282166  22.3142815  61.3604202  88.6351166
  82.9717865  39.2936592  22.1645203  83.5986481  39.8992500  21.7688751
  82.5959244  38.8195534  21.4227753  62.4869118  38.1878204  59.0091362
  61.8556213  37.4949417  59.2030907  62.4274330  38.7822533  59.7570267
  82.6029892  36.4943962   7.9989901  82.5145340  35.7363052   7.4213133
  83.5020065  36.7943001   7.8646364  47.0401573  53.6914177  77.0307312
  47.1811104  53.2056541  76.2180786  46.5880661  53.0726509  77.6042938
  46.8526115  48.3186188  56.9682388  47.3991241  48.3880577  56.1854630
  47.1327019  49.0478859  57.5213661  11.9778509   0.5999685  28.2912693
  11.3510513   0.9301732  27.6475945  11.4345732   0.2162496  28.9796314
  41.6368637  20.3527946  12.9215755  42.5039330  20.4647980  13.3112926
  41.2545776  21.2302837  12.9316587  20.4826241  33.5972672  13.4588394
  20.3580971  32.9512749  14.1541204  21.0639820  33.1660042  12.8325291
  56.7411995  47.9399796  86.0392456  56.6657600  47.7281189  86.9696503
  57.6616707  48.1743889  85.9208450  17.1208992  21.3080177   7.9946775
  16.2813644  21.7450714   8.1375017  16.8919716  20.3889732   7.8561802
  53.2835922  16.6494865  14.0834713  52.7256355  15.9121647  13.8359346
  53.2887688  17.2156219  13.3116589  51.8087807  44.5236053   0.6296117
  52.0943451  45.4212227   0.4594091  51.3318825  44.2700691  -0.1606534
  50.7384377   2.7805851  10.0455818  51.5911598   2.4679155  10.3478003
  50.7818108   2.7103567   9.0919476  81.0572815  52.5182686   8.3656969
  80.2231903  52.3318596   7.9346914  81.3542862  53.3370667   7.9687181
  80.3570328  37.8829498  69.5503998  80.6965866  36.9898224  69.6074142
  80.8700943  38.3755951  70.1909485  15.6665249  40.9348984  56.9426231
  15.8144026  41.5548668  56.2284775  16.5131321  40.8726311  57.3849030
  47.1478348  51.6370697  79.6921158  47.6372833  50.9668579  79.2151566
  46.2704659  51.6100769  79.3103714  74.3055496  68.2454453  21.9698772
  73.4135666  67.9579773  22.1647339  74.7651291  68.1846008  22.8073235
  67.3264236  49.4053688  73.2950439  67.9684906  50.0373230  73.6184998
  67.3026428  48.7232552  73.9661484   4.3698578  69.6630859  14.9658527
   4.5571060  69.9832840  15.8482609   3.7330554  68.9604187  15.0961456
  19.3323441  61.6928596  50.0202217  19.6094990  60.8133812  50.2769928
  18.4209557  61.5867233  49.7475700  28.3232498  50.6339569  87.1037064
  27.5951538  50.2272034  87.5734558  28.1996384  51.5736313  87.2377319
  72.6942825  45.0512085  78.4125977  73.4412842  45.6063461  78.6363068
  72.1018600  45.1342850  79.1598358  40.4149323  26.1203671  16.8877850
  40.4899483  25.5103321  16.1539860  40.6184845  26.9758911  16.5097942
  37.1877174  10.7108793  80.1097260  36.8978195  10.3435192  79.2747116
  36.3807755  10.8372879  80.6088257  72.7519760  12.3045979  84.2984924
  71.8519058  12.2608624  84.6212692  73.0734558  11.4052954  84.3628159
  46.0858307  29.2634258   9.2596464  45.8067818  29.6020832  10.1103373
  46.5218048  28.4358063   9.4626322  15.6579428  60.8114815  88.5108109
  16.2401657  60.3963585  87.8744812  16.1270962  60.7466736  89.3426361
  71.6495972  31.1148052  33.5232391  72.5985794  31.0412884  33.4219398
  71.4932709  30.9373589  34.4507675  45.2513847  70.1406860  67.6276474
  46.1839905  70.2842407  67.7884903  45.1986313  69.2378998  67.3139191
  61.8572197  67.2082672  29.6338673  61.6989365  66.7340393  30.4501324
  61.1465988  67.8478241  29.5867710  28.7802582  43.9440117  58.1169014
  28.4644451  44.0785904  57.2233772  28.9625072  43.0056953  58.1677361
  37.0555305   3.9842463  18.7502861  36.3704948   3.7147548  19.3621101
  37.3809700   4.8118162  19.1044731   0.0709424  16.4153976  77.2011719
  -0.5491288  17.1438255  77.2348557   0.8926353  16.8134193  76.9137115
  32.1942940  44.1317368  54.4513969  31.2429142  44.2366066  54.4409103
  32.3319969  43.2207909  54.7110939  47.0052071  70.7942429  38.9077034
  47.7167130  71.2110672  39.3937569  47.2308998  69.8640442  38.9033546
  63.4689789   4.3236666  88.0810318  63.2887917   3.7981887  87.3015213
  63.2875900   5.2236991  87.8103485  30.8772621  65.1314621   8.1693630
  30.1996593  65.4379349   8.7719898  31.4027061  64.5231705   8.6890993
  18.7594681  56.5330162  43.0208931  19.4239559  57.2200394  42.9690666
  18.2996101  56.5808601  42.1827583  60.3313789  14.8253078   8.3080320
  60.4932823  14.0653744   8.8670664  59.3978386  15.0073376   8.4157457
  76.9639511  50.1098289   3.9938498  77.7593842  49.5800056   3.9408703
  76.2852097  49.4955711   4.2735438  29.7591667  51.5192413   0.4741632
  29.5558243  51.7316818   1.3850706  28.9868145  51.0493622   0.1596517
  62.0207634   2.2310150  20.0527248  62.6528664   1.5123563  20.0670681
  62.5574188   3.0227792  20.0893669  30.4885139  67.1940842  79.2851181
  30.6534863  66.8948975  80.1792679  29.6151924  67.5843277  79.3204193
  60.7576599  60.1960793  12.7996597  60.2520561  59.3833160  12.7953320
  60.8272591  60.4299316  13.7252417  43.4423027  57.6173859  80.3240051
  43.5164490  56.8099403  80.8326950  42.5777054  57.9623642  80.5469208
  59.9045258  14.2799063  31.6259365  60.4594460  13.6495247  32.0851898
  60.0111389  15.0948687  32.1165504  48.7328644  32.4657364  83.8622284
  48.4953613  31.6144657  83.4945831  49.6321068  32.6111488  83.5682068
  41.6972313  39.8196754  86.6033020  40.8452988  40.2359962  86.7341385
  41.7181358  39.6048508  85.6707535  66.2463608   6.2616549  10.5455694
  65.6296234   5.9581761  11.2117281  66.6828918   5.4654045  10.2428141
  79.2649841  18.3292542  82.2462616  79.1456833  19.1019363  81.6940308
  80.2081146  18.1665363  82.2299881  53.8799706   5.8490853  41.1935158
  54.5326653   5.4182973  41.7454643  54.1937637   5.7115474  40.2997322
   4.2954588  68.8041534  46.5795517   3.9425991  69.5056610  46.0321846
   4.6426458  69.2533188  47.3502274   3.6359057  15.3875847  83.0955048
   2.8144262  15.7317066  83.4461975   4.2909756  16.0442924  83.3318329
  24.9835510  47.5940819  34.3127861  25.2331524  48.5152550  34.3860893
  24.8247986  47.4626007  33.3780441  45.0778809  51.7672997  55.5595512
  44.7573814  50.8852730  55.7480774  44.8360100  51.9198647  54.6460686
  25.6576996  51.5687943  26.0994473  24.8720245  52.0626678  25.8648510
  25.3265285  50.7911186  26.5486393   3.0852027  23.2755814  68.6681595
   3.8486111  22.7202663  68.8264771   3.3243194  23.7990932  67.9033127
  38.8488235  19.7182789  72.7355194  38.6201172  20.6431789  72.6434174
  38.1897850  19.2558765  72.2177582  26.0605373  38.3225746  77.4368591
  26.4295120  37.8043709  78.1520920  26.3384781  39.2194710  77.6227646
  52.2477913  14.1655712  75.1510315  51.9543915  14.5863237  74.3428802
  51.5503464  13.5460024  75.3653564  77.8198547  66.3523483  46.5238647
  77.8748398  67.0631104  45.8850899  77.5886002  65.5816956  46.0053673
   1.8349239  44.1668167  61.0125771   1.4687504  43.7619095  61.7988319
   2.4103279  43.4966202  60.6438293  16.2148876  35.5139236  88.1821136
  17.0828953  35.1441879  88.0205917  16.1345634  35.5287971  89.1358185
  46.0635147  25.8244438  29.7207775  46.6852379  25.9210186  30.4421425
  46.5199013  25.2755203  29.0831051  86.1888199  33.2504845  35.8787117
  86.8094482  32.5872765  35.5766945  85.8666916  33.6603165  35.0759010
  48.7089539  63.5749702  49.9780197  49.0571594  64.0829773  49.2452736
  49.3336182  62.8585587  50.0910606  44.5803452  56.3548508  40.3283463
  45.4120941  56.0711021  39.9489861  44.0651741  55.5516586  40.4039307
  51.3843575  18.6161957  74.4296799  51.5211525  18.9673882  75.3095551
  51.9816780  19.1187115  73.8756790  66.4104614   0.9418325  75.7628021
  66.8115997   0.1855814  76.1910629  65.5025482   0.6783950  75.6126862
  60.8895226  23.0811348  87.6635361  60.9428596  22.9347115  86.7191010
  61.5120735  23.7884922  87.8317795  86.0245743  63.2243805  46.6003914
  86.8797836  62.9234962  46.2932739  85.3988647  62.8241768  45.9966049
   2.6197331   1.1533653  71.7492828   2.7458415   1.1738540  70.8006516
   2.0069451   1.8674208  71.9249191  41.0858459  41.9782181  82.1960373
  40.6620445  41.3594551  81.6012650  41.7725220  41.4669113  82.6241455
  60.9119225  55.7174911  53.4781075  60.7556610  54.8484955  53.8477898
  60.0445366  56.1203346  53.4382515   8.9328718   1.2469888  11.0616989
   9.4137564   1.3133218  10.2367249   9.0116625   0.3263241  11.3114996
  54.9256859  61.9231606  11.1539488  55.4597664  62.6874008  11.3705654
  55.4943390  61.1746292  11.3344116  10.2093630  34.7702446  64.2183609
  10.0882807  35.6401329  64.5989685   9.9966469  34.1659164  64.9295349
  38.3863487   9.9845781  17.7082481  39.3121719  10.2049360  17.6056633
  38.3246231   9.0720634  17.4258671   7.2172823  20.3147812  79.8760605
   6.3546534  20.0414143  79.5640106   7.5291595  20.9284782  79.2109680
  61.1447754  69.6208572  77.5902863  60.7427826  70.2543564  76.9958878
  61.8116760  70.1222916  78.0593796  57.9146996  18.1423817  82.5011292
  58.2483978  17.3070717  82.1738129  57.1372070  17.9077244  83.0077591
  26.0774651  34.3918381  13.1560135  25.5857487  35.1436539  13.4865007
  26.9940529  34.6621284  13.2111816  58.1413460  22.9589710  66.6871948
  57.4266243  23.3937874  66.2220764  58.6811485  23.6756763  67.0206299
  86.6843185  48.4978065  27.1328793  86.2828293  48.7980499  27.9482899
  87.3507462  49.1564941  26.9373169  51.1319160  19.8387756  16.1762543
  52.0160294  19.9371948  16.5296535  51.2481728  19.3176613  15.3818016
   3.2849016  22.5168629  10.7972908   2.5273027  22.7141399  11.3480701
   3.9743576  22.2754784  11.4158506  24.7278576   4.5808268   2.4678373
  25.3013496   5.2983232   2.1985083  24.2174320   4.9414334   3.1928608
  34.8365402  52.3319740  86.2792969  35.1719055  51.5972099  86.7929916
  34.0718727  51.9776764  85.8254395  13.3516951  54.6932716  31.0135021
  12.8267279  54.8002319  30.2202816  12.7312651  54.3778000  31.6705990
  15.6365948  57.6675072  88.1023865  15.2577620  58.2445107  87.4392242
  16.2591228  58.2209282  88.5739899  48.9985619  14.4955759  17.0114670
  48.9513626  13.7575703  16.4037247  49.7875824  14.3306589  17.5276852
  39.6747398  61.5136566  78.3891602  38.7861099  61.4990196  78.7446213
  39.6023598  61.0683937  77.5449219  81.5963440   9.5417299  57.2003593
  81.9575653  10.2230368  56.6332855  80.9522095   9.9976368  57.7420845
  35.3943176   1.5899664  86.5655899  35.1745110   1.2069701  85.7163391
  34.5663261   1.9438877  86.8902435  50.6473808  19.7542419  25.4709053
  51.4043922  19.6194897  26.0410004  50.7516212  19.1036587  24.7765656
  19.1213436  15.8153677  66.6709290  19.0327110  16.6601906  66.2297363
  18.9991131  16.0157852  67.5988922  36.6142082  14.5722036  17.4458923
  36.9678383  14.1062403  18.2035580  37.1065826  14.2269630  16.7011719
  67.4810486  66.0202713  35.3659439  68.2235870  65.9576035  35.9667244
  66.7643356  66.3547897  35.9050674  10.7105684  26.5890961  32.6073303
  10.4073954  25.6947079  32.4511719  11.6065407  26.4857426  32.9279289
  72.6159286  64.6199646  10.7128296  73.1909409  64.8404922   9.9800568
  73.2079849  64.3029175  11.3948727  47.2424355   3.1485820  77.7684555
  48.1033325   3.0331461  77.3662567  46.6361237   3.1895812  77.0289001
  85.8237000  69.8433685  76.0081329  86.1832504  69.2150269  76.6343384
  85.3587112  70.4814758  76.5492783  49.6221352  46.3894768  13.2618179
  49.5158386  47.2733192  13.6136084  49.1825905  45.8243408  13.8971558
  44.1608086  27.4968300  79.1570282  44.1624489  28.2413177  78.5553894
  43.5865021  27.7686806  79.8729248  51.0523109   6.1746054  50.1797981
  50.9281120   5.3850980  50.7065697  50.1923409   6.3434391  49.7948608
  79.2839737  41.8038826  47.0633812  79.5419464  40.9940681  46.6230545
  80.0897064  42.1223984  47.4702950  16.8433533  10.1874895  63.4701118
  16.0857487  10.7515545  63.3148727  17.5448341  10.5802326  62.9505844
  39.6162224  18.1944771  19.4971275  39.8632278  18.9808102  19.0104008
  38.7558479  18.3996677  19.8630276  10.1933231  38.9815941  61.3442154
   9.8091774  39.5959969  61.9696503  10.7962236  38.4531021  61.8671303
  31.0515823  67.8896255  83.0461121  31.6672916  67.4512024  82.4588165
  30.5469398  67.1774673  83.4390488  12.9325666  36.7677994  52.7818336
  13.7156410  37.2958908  52.9372368  13.0828199  35.9643059  53.2798805
  19.3519249   8.0740528   4.6724072  20.0187302   7.5995750   5.1688676
  19.0296211   7.4370809   4.0347409  45.7159958  10.5269928  81.7427444
  44.9147835  10.0566549  81.9731064  46.4014206   9.8593311  81.7682877
  66.1895065  40.1726151  72.7405090  67.0749588  40.1227226  73.1006775
  65.6173172  40.1501312  73.5075378   7.3379412  54.9949799  27.0653152
   7.5918798  54.9634323  26.1429539   6.7416635  55.7414551  27.1241779
  36.2204361  35.8548012  66.6898727  35.6617622  35.1415596  66.3809967
  35.7405205  36.2330818  67.4266357  78.9914551  41.8592072  67.2160721
  78.0350189  41.8596268  67.1778030  79.2338562  40.9364548  67.1386032
  79.5312119  70.1619797  20.3005905  79.7006073  70.9336166  20.8410625
  80.0196457  69.4583588  20.7278862  82.6282806  30.6067009  76.2561417
  83.3994751  30.0753288  76.4539642  82.9763336  31.3744640  75.8026733
  42.6595039  20.7783241  71.0667038  43.2542229  20.1014156  70.7436905
  42.8832397  20.8717098  71.9926910  16.5668373  41.6098633  17.3923664
  16.9820595  40.7525558  17.4864044  15.6367426  41.4143372  17.2786751
  69.1638412  45.5455475  64.2751846  69.5470276  44.7979393  64.7339630
  69.0802307  45.2525177  63.3677864  67.3171539  53.0690346  43.1027527
  67.8813400  52.8478966  42.3617935  67.7829971  53.7708244  43.5574188
  41.0576897  61.3335114  56.5023117  40.2023964  61.5924721  56.8453064
  41.4370689  62.1457138  56.1667099  56.6786880  33.6487885  21.5457859
  56.0706482  33.9984245  20.8944225  57.4804420  33.4711571  21.0539818
  30.3134956  14.7177267   8.1479845  30.0353374  15.4650488   8.6774826
  29.5436096  14.4952917   7.6245050  40.8849907   2.4006670  54.9927826
  41.4330597   1.7545968  55.4382553  41.3420372   2.5760896  54.1702461
   0.3607718  62.0846024  56.4891281  -0.4629905  62.4417305  56.8209534
   0.9182252  62.8513985  56.3568382  63.0650826  58.1176758   4.4500785
  62.2231827  58.3878250   4.0833993  62.9706154  58.2541771   5.3927746
  33.4645195  20.5390644  85.4462204  33.4354553  19.9037285  86.1615829
  32.7995262  21.1883087  85.6753387  75.1339798   4.4966364   2.0430336
  74.8583069   3.6246967   2.3258016  74.6110916   5.0971575   2.5742464
  35.6916771  36.4319420  10.2054567  36.3757782  37.0921516  10.3166342
  35.1738243  36.4860229  11.0086603  59.2638168   0.0951267  76.8843689
  58.7418442  -0.1672101  77.6426239  59.1058769   1.0352999  76.7985687
  42.6158752   5.7029710  53.5944328  41.9545021   6.1392031  53.0572968
  42.4703217   4.7692389  53.4421501  80.6889877  52.6845856  21.4607182
  80.6476669  51.7729607  21.7496185  79.7778473  52.9233551  21.2902966
  39.2446976  63.8050346  72.8251190  39.2255287  62.8645248  72.6481857
  39.5233078  64.1986618  71.9982834   7.4623079  38.0740929  82.9128342
   7.4369259  37.6420555  82.0590591   7.3123407  37.3690147  83.5426025
  67.3705368  26.3419304  72.9108810  66.8555069  26.4083977  72.1067963
  68.2738495  26.2451286  72.6094055  28.7714291  54.4808464  43.0635796
  29.1548176  53.7676544  42.5530815  28.2801151  54.0413857  43.7576370
  35.5306969  39.6845055  41.1619530  36.4589348  39.7989120  41.3657074
  35.1678772  39.2498055  41.9337234  18.2813568  12.8564558   3.4393137
  18.8350620  12.0818472   3.5374124  18.0178604  13.0772104   4.3326607
  69.1444016  23.3721809  59.1148071  68.9098434  22.8388023  58.3553886
  68.3498840  23.8673134  59.3143425  66.8625641  15.0902481  72.2555923
  66.1842804  14.4474154  72.0484085  66.5781631  15.8897305  71.8126831
  50.3501167  57.9479752  59.7554741  50.9388275  57.3337555  60.1940918
  50.8653450  58.2950249  59.0272369   4.0536575  35.9355354  61.3069267
   3.3818457  36.6073151  61.4235878   3.8960459  35.5891724  60.4286156
  75.9281693  42.1196060  37.9260254  76.3348770  41.2544403  37.9741096
  75.0049744  41.9615822  38.1234360  12.3121948  27.3174191  65.0239563
  12.6511869  27.4265709  64.1354752  12.3991690  26.3805904  65.2000885
  40.5129852  52.5855408  47.1009216  40.1400185  51.7254143  46.9077682
  40.0155678  53.1911812  46.5513725  18.6006985  17.0432091  81.7911530
  19.0332127  16.5934086  82.5169907  19.3096828  17.4930973  81.3316193
  11.3964977  23.3574638  67.4342117  11.8426323  22.5118084  67.4796219
  10.6460161  23.2018528  66.8608017  23.1961288  44.1961212   9.5192566
  22.4182434  44.6161423   9.8862839  23.9042683  44.8191109   9.6825218
  53.5770607   0.2656139   0.6885594  53.5896072   0.8414597  -0.0759509
  53.6066856   0.8610576   1.4374259  66.0327225  48.1371460  37.4316750
  65.4328613  48.7825623  37.0577240  66.0355988  48.3280602  38.3696365
  47.6938133  38.6176186  75.7981949  48.1467857  38.0632668  76.4336014
  48.3954201  39.0858498  75.3457184  39.3300362  31.5038490  67.4211960
  38.6479492  31.5342579  66.7503281  38.9643021  30.9483528  68.1096039
  77.2932587  67.8456650  74.5616150  76.5214996  67.8544998  73.9954529
  77.6926422  68.7063828  74.4355698  19.3541031  42.5152817  81.7028961
  19.6359005  43.4014015  81.9300842  19.7419033  41.9598503  82.3791656
  63.9776535  67.8747635  65.4975891  64.0594940  67.2266464  66.1972122
  63.7185707  67.3662567  64.7291336  24.7000828  30.1159611  66.9786453
  25.1154041  30.8010540  66.4548264  24.5238895  30.5329781  67.8220215
  56.6781693  53.8806915  21.9399319  55.8482857  53.4394989  21.7586250
  56.4803963  54.4748383  22.6638851  85.4150391  50.0342293  66.9895172
  86.0434113  49.7819214  67.6660690  85.8018799  50.8080826  66.5799561
  23.5509720  51.3733635  42.4341316  23.8613167  51.3241196  41.5299759
  23.1483307  52.2390747  42.5023384  82.5998230  41.6750641  64.6288986
  82.8880844  41.4224472  63.7517891  81.6790848  41.4155426  64.6624222
   1.5769076   9.6005039  11.8452721   0.7495681  10.0640488  11.7153997
   2.1431408  10.2382908  12.2798281  59.3490753  46.6016197  31.1972237
  58.4718628  46.7107582  31.5644054  59.3506279  47.1508827  30.4132957
  60.3231812  40.7023926  53.1056633  61.1804199  40.4507484  52.7620773
  60.1702499  40.0992889  53.8330650  65.4541168  13.7039928  75.9142685
  64.9231644  14.3351765  76.3999939  66.1867142  14.2181711  75.5749207
  86.2693634  33.5635948  88.6227875  85.8623428  34.4299088  88.6310654
  85.5773392  32.9710197  88.9163895   1.5095224  16.2978020  58.0047302
   2.2216105  15.8533974  58.4648018   0.9377698  16.6192551  58.7018661
  44.2282486  45.8887405  54.3139000  45.1347198  45.6004410  54.2070236
  44.1589355  46.1229172  55.2394218  84.4211349  23.6643219  31.1370926
  83.6827393  24.2313271  30.9145737  85.1654587  24.0470009  30.6725845
  43.9507065  44.3779373  17.2021866  43.2082329  43.8920784  16.8431492
  44.4367256  43.7300720  17.7123718  78.9313507  61.1093025  66.1920624
  79.4813461  60.9353752  66.9559250  79.4061508  60.7151489  65.4603195
  48.1381721  26.1896667  77.4476318  48.3267670  26.7829914  78.1747055
  47.2459412  25.8847713  77.6125565  37.2859268   4.7334251  44.6254959
  37.3464127   3.7987711  44.8229675  38.0939560   5.1056376  44.9787369
  46.0889053  46.5023384  81.4328232  45.2414780  46.8814011  81.1995697
  46.0906296  46.4903221  82.3899460   0.7790783  29.9328461   8.0042458
   0.6900008  30.8424759   8.2886267   1.5282754  29.5997524   8.4981928
  11.9689255   1.4617028   2.1981013  11.6852169   0.8672743   1.5035541
  12.3834591   2.1900089   1.7355384  27.1690311  44.8378296  21.1054783
  27.1480064  44.3021545  20.3124828  27.8270226  45.5088692  20.9238510
   6.5828762  31.6774025  25.0088692   6.8381610  32.4683990  24.5341225
   5.7875681  31.3793049  24.5674477  72.1765671  28.6751900   6.6236296
  71.6838608  28.2697601   5.9101162  71.5842819  28.6386490   7.3746943
  78.9411011  23.2989197  12.2777033  79.1960526  24.2065811  12.1122255
  78.6734848  22.9653816  11.4213371  73.0713654  64.5377197  64.2635040
  73.6619339  63.9848251  64.7751312  73.6516800  65.1318588  63.7876167
  54.4384995  18.1643887  76.3287277  54.6643562  17.6300793  77.0901337
  55.2474899  18.6284599  76.1133118  78.8207703  27.5820618  35.4013252
  79.4304504  27.6697369  34.6686363  77.9541168  27.6587372  35.0022469
  22.7581272  10.4470654   5.4423857  23.2465591  11.2702370   5.4496555
  23.3773537   9.8041878   5.0967011  17.8697414   0.3029016  64.8560486
  18.4784603  -0.4154059  64.6836319  18.2263260   0.7384197  65.6302567
  77.4110031  61.2655716  20.9798508  78.1063080  60.6546249  21.2238178
  77.5271378  62.0091743  21.5712910   9.1609488  58.6202545  71.0712357
   8.6522055  57.8492203  70.8203964   8.6485453  59.3610535  70.7473679
  32.1527863  32.5300789  78.2244949  31.5856838  33.0124245  77.6228561
  32.4409943  31.7676449  77.7226334  82.1498718  29.3349419  59.3274384
  81.6671600  29.6373940  60.0966873  81.4800873  29.2242355  58.6526337
  59.6754189  40.8398972  80.9603043  60.3159981  40.9592438  81.6614761
  59.1672897  40.0741119  81.2278976  42.2063446  64.1407013  19.2765617
  42.4980202  63.5722809  18.5637798  41.9813805  63.5388680  19.9860840
  50.9345474  44.5190773  27.2701092  51.0773964  43.8343773  27.9235725
  51.7309837  44.5133629  26.7391796  17.7359085  64.6028671  88.7947693
  16.9755726  64.1207199  88.4697266  17.5453510  65.5179443  88.5884781
  84.7148895  47.2208290  49.5080376  84.8732986  47.2355499  48.5641518
  85.2327957  46.4814377  49.8263168  62.9590797  45.4005890  75.6780777
  62.9944496  45.0896683  74.7734756  62.3027420  46.0972328  75.6664124
  82.1164322   4.2704363  85.0699463  82.8596802   3.6990354  84.8767776
  82.4741211   4.9396892  85.6533813  35.3097458   4.9410071  13.0917940
  35.9427071   4.2246647  13.0423059  34.4842262   4.5156002  13.3236837
  25.5811272  70.3394165  11.1981001  24.8323631  70.6775360  10.7069168
  25.4406490  70.6497650  12.0926304  21.5349522  47.3247299  78.1857147
  21.4222374  47.9988708  77.5155945  22.1395283  47.7138596  78.8176117
   5.9817581  63.6197815  46.8888206   5.5430651  63.0203819  47.4925613
   5.3792558  63.6982346  46.1491814  21.7299614  59.7313919  16.9362907
  21.5614319  59.8129921  17.8749981  22.0849247  60.5831184  16.6817493
  40.4977608   2.2952075  39.3034935  40.3927841   2.2032251  40.2504616
  41.2769890   1.7788301  39.0976143  23.9497223  55.8073959  16.9069710
  23.9267483  55.2472649  16.1311111  24.1138649  55.2049942  17.6325054
  62.2728577  52.3093376  86.9262924  61.6902618  53.0014496  86.6135788
  62.7516479  52.0287323  86.1463928  36.5251083  21.6954136  16.4679947
  35.8115883  21.3568096  17.0087967  37.3179741  21.4982758  16.9667244
  48.2179222  54.9252815  44.7826691  47.6205902  54.4773140  44.1837120
  47.7261429  55.6889191  45.0847435  54.0210915  55.3336182  41.3149376
  54.7128830  55.9923363  41.2537308  54.3645096  54.5802803  40.8345413
  43.5720406  53.9192162  40.9445534  43.1514626  54.0048752  41.8001251
  44.0127754  53.0701866  40.9782486  23.7356586  14.4253092  46.3283272
  24.1909695  13.8715801  45.6940498  23.4356594  13.8179798  47.0046310
  54.0866127  47.4604454   2.2928369  54.3953094  46.9602432   1.5373652
  53.9466934  48.3445663   1.9537479  39.8122978  49.8431702  44.5466576
  38.9284134  49.9321404  44.9031143  40.1233139  49.0032463  44.8843307
  83.2091675  37.2645874  59.6570206  83.6108322  37.8702126  59.0340347
  83.9374695  36.7323112  59.9771538  29.0926456  25.7582684  19.2777023
  29.2111645  25.3527489  18.4187851  28.8721638  25.0297699  19.8581429
  30.8129692  21.1907635  79.1997070  31.4773254  21.2641525  78.5145187
  30.8478966  20.2731495  79.4698792  43.0899391  37.5446091  39.9350586
  42.6046028  38.3694229  39.9540825  43.7483139  37.6698189  39.2516136
  82.8988419   0.9752758  13.0434027  82.0660934   0.9245437  13.5126419
  83.5376358   1.2157751  13.7144747  63.5105247  35.5974884  15.9237928
  63.8211479  35.4362564  15.0328674  63.1423416  36.4805069  15.8929539
   8.9652119   1.3160549  72.7413177   9.4088497   2.1386957  72.9479065
   9.3234634   0.6869189  73.3674774   3.9972556  69.6634827  77.5279617
   4.0015287  70.3733063  78.1701202   3.4845209  70.0059433  76.7958069
  50.2240067  26.0950794  16.7762222  50.7432137  25.7085552  16.0710583
  50.0500717  25.3667622  17.3724880  22.8597164  57.7338676  75.0898361
  23.7281151  57.3312912  75.0970383  22.8825493  58.3654633  75.8087234
   6.1773529  63.6479034  72.8565292   6.8465066  64.2808075  73.1170959
   5.9324141  63.2092056  73.6712494  45.9811249  35.1346512  38.4614334
  45.4885826  35.4111252  37.6886520  45.4552841  34.4308739  38.8414650
  64.4368134  15.7507744  59.8700752  64.8452148  14.9230089  59.6166077
  65.1288452  16.4028625  59.7600365  84.7994843  66.1996918  14.4443111
  84.3633423  65.4497910  14.8488598  85.7201157  66.1009293  14.6870537
  80.4702454  59.2695007  80.9131699  79.6445694  59.1346474  81.3782654
  80.8729782  58.4016533  80.8835678  70.2240677  35.7812004  32.6381493
  70.6904449  35.2449379  33.2793579  70.8415985  35.8791733  31.9133854
   6.1023521  17.5066586  18.3940773   5.9501648  16.7803173  17.7895126
   6.9457917  17.8700905  18.1243362  67.8865662  41.3875923  82.1662750
  67.0190201  40.9963226  82.2687454  68.4583664  40.8489304  82.7132034
  49.7143631  44.6009903  46.9062233  48.9290428  44.5569916  47.4517250
  50.3442688  44.0305862  47.3467751  11.1821203   2.0561037  82.3513107
  10.5076771   1.3929220  82.2045135  11.9849749   1.6604017  82.0120773
  21.1391068  69.7772217  64.9360123  20.2833538  69.3857269  64.7609406
  21.1348629  70.5947342  64.4381256  73.4565964  61.3640213  33.4071045
  72.5764847  61.4116135  33.7804298  73.6690216  62.2689018  33.1784172
  49.3564301  57.1206169  47.0730324  49.8169937  57.6967621  47.6830902
  49.8838615  56.3220863  47.0531921  45.9515114  43.7834320  80.9538193
  45.9944839  44.7370949  81.0238953  45.9624214  43.6117325  80.0122070
   7.8026037  11.8545485  78.1143570   7.7631807  12.4237223  78.8829422
   8.6031780  11.3439627  78.2352448  61.6304131  17.5328751  38.4909172
  62.3335495  17.5639439  39.1396599  60.8469582  17.3176270  38.9969826
  23.6893559  57.7875671   2.7707624  24.2169456  58.3825378   2.2379475
  24.3294144  57.2243767   3.2059357  11.0451412   6.8865304  11.4454861
  10.3916368   7.3010888  12.0087852  11.1819944   7.5138555  10.7355795
  29.0858746  26.8336620  69.6717758  28.9164124  26.2775040  68.9113770
  28.5497875  27.6125851  69.5230408  60.0222855  47.6545601  19.6857433
  59.1951828  47.4263687  19.2614079  60.6020584  47.8991203  18.9644337
  32.1895905  53.2507172  12.9707966  31.7188988  52.8678780  12.2304487
  32.8640862  52.6061745  13.1849327  52.6354904  18.7931004  58.4107590
  52.1041183  18.6409855  57.6292648  53.5266914  18.5706940  58.1414452
  58.2379150  55.5714340  83.9390259  58.4129906  54.6835251  83.6272583
  57.9362717  55.4538689  84.8398209  57.0996628  56.1600304   5.0912857
  56.1749573  56.3582611   5.2391305  57.4830589  56.9941483   4.8202019
  59.8116722  35.2771988  42.7882385  60.5515785  35.7299843  42.3835754
  59.0994644  35.9163971  42.7677650  39.3377495  30.5780907  63.7056160
  38.6523094  30.7725811  63.0664215  38.8655128  30.2501144  64.4709015
  45.4727097  64.4625854  66.6874619  45.7999001  63.6729012  67.1182480
  46.2558975  64.9878540  66.5233154   7.5723338  21.0651550  10.3066053
   8.3228893  21.0732231  10.9006033   7.8723083  20.5637608   9.5484161
  10.4037485  51.4950294  56.1719551   9.5043182  51.1791344  56.2583847
  10.5193787  52.0934944  56.9099922  31.2546349  71.7395096  80.6341476
  31.4483681  71.0457687  80.0037308  30.7520657  71.3040009  81.3226242
  24.5323143  39.6449738  11.3242807  23.7652626  40.0471153  10.9166718
  24.1772232  38.9225769  11.8422461  71.6838760  -0.0579712  42.6427345
  71.9853210   0.5700850  41.9862976  71.0286865   0.4214473  43.1498032
  29.0912933  37.1970253   0.8497370  29.6779003  36.7351913   1.4487643
  28.2680855  37.2735252   1.3321347  83.0184097   0.8347971  23.6652565
  82.8571091   0.3967046  22.8296204  83.7571945   0.3599276  24.0459595
  77.5012589  60.6214371   0.4178577  77.9792175  61.2297249   0.9815756
  78.0828171  59.8658676   0.3333939   5.4171906  51.2147217  18.4726791
   4.6037607  51.7037430  18.3484955   5.9944043  51.8231850  18.9340134
  11.3169594  12.9459600   8.7328997  11.8779964  12.2885666   8.3214340
  11.8438158  13.7451172   8.7316504  82.2795029  64.5339966  11.1479454
  82.1184998  64.8199387  12.0471373  81.5052338  64.0204849  10.9176426
  59.2208138  59.7981224  79.8653488  59.0833435  60.3711777  80.6196289
  58.4811363  59.1909943  79.8878479  32.5964012   4.8430281   0.1252382
  33.4787598   4.8871784  -0.2431722  32.5707207   5.5494118   0.7706789
   1.4936606  57.3557434  57.2785339   1.1966188  58.0494576  57.8673973
   2.0159981  57.8100586  56.6174812   5.2150578  34.1232529  26.2776966
   4.5901275  33.4612579  26.5734253   5.2999325  34.7211990  27.0203209
  37.3436432  52.0453453  23.5273209  36.5246773  52.2700043  23.0856724
  38.0281525  52.3697281  22.9421234  14.1790876  61.0167809  48.1022644
  13.7170343  60.7340775  47.3130760  13.8345327  61.8917351  48.2810707
  74.8248291  31.6083813  11.3917770  74.3469009  31.9686394  12.1387901
  74.1616440  31.1362724  10.8882580  71.0848541  11.2274170   6.7005553
  71.8409805  11.5956049   7.1576662  71.0828018  10.3025799   6.9473424
  80.0750122  68.4925613  36.8250999  79.4783630  67.7445526  36.7981300
  80.9422150  68.1123962  36.6848564  51.7077293   4.5460358  53.5957832
  51.2555733   4.1219034  52.8664703  51.6706276   5.4801025  53.3899307
  71.5850601   3.6830199  39.5465546  71.1364822   3.4033902  40.3445587
  72.0265503   4.4959903  39.7923088   3.3323071  63.9435043  45.8993950
   2.4871714  63.5200539  45.7488327   3.1114838  64.7800674  46.3088226
  34.9934158  66.8494034  54.0007935  34.7276115  66.8776550  53.0816727
  34.1787415  66.9667206  54.4894371  10.8089170   3.7711933  12.2776709
  10.9033985   4.6107683  11.8277607   9.8632069   3.6497641  12.3620434
  44.7959709  62.2926559  24.6934948  43.9597931  62.6960602  24.9265308
  45.1106987  61.9049644  25.5101185  68.1486511  28.9498177  81.6938705
  68.0996170  28.7886810  80.7516022  68.0367737  28.0859776  82.0907211
  35.2452049  33.1897697  81.0233459  36.0113258  32.6276398  81.1386566
  35.3504410  33.5613861  80.1475296  69.5589142  15.6232128  71.8299789
  69.5010147  16.1785202  71.0524750  68.6558914  15.3558321  72.0011215
  41.5743637  22.0388508  74.7609329  41.3000259  21.1419544  74.5697556
  42.1616440  21.9547157  75.5121078  48.2206497  36.3706894  16.7604351
  49.1560860  36.2660103  16.5865612  47.7901192  35.9153824  16.0368538
  86.5407944  39.3382950  46.6436920  86.0111771  38.7462425  46.1096420
  86.1079407  40.1879501  46.5603065  78.0488281  41.6579933  58.3916817
  78.9834137  41.8373528  58.4947090  77.6170273  42.4586296  58.6896133
  22.0326653  10.3294334  11.1311455  21.5234394  10.2321949  11.9357977
  21.4232903  10.0926781  10.4319725  16.9879894  55.5284119  16.0829086
  17.0588303  56.4304810  16.3951378  17.6541004  55.0508232  16.5773163
  62.3631248  65.6516418   8.0952702  63.2829399  65.7262421   8.3494530
  62.1683502  64.7176361   8.1722889  77.9524994  37.6139565   6.5120730
  78.7653732  38.1007462   6.6481133  77.9566498  37.3965721   5.5798941
  62.4514046   4.4766788  31.0026894  61.8376312   4.4121718  31.7343674
  62.3732452   5.3826065  30.7036591  50.6610222  21.5994778  65.0649261
  50.7509918  22.0750008  65.8907623  49.8389473  21.9189262  64.6929321
  76.7279739  24.0817375  21.9721470  77.5149536  24.5117397  21.6374836
  76.0345688  24.7324677  21.8627300  58.2848358  24.1309814  84.2118988
  58.3939018  24.8142376  83.5504608  59.1134338  23.6519012  84.2002563
  42.2488327  62.8854942  25.7887974  41.3516426  62.7542915  25.4820900
  42.1543427  63.3893089  26.5971737  60.3446159  42.2602577  67.2676315
  60.5704994  41.8301735  66.4428711  59.6716499  41.6996002  67.6536484
  66.6111755  56.7136574  21.7146149  65.7406006  56.5906372  22.0930233
  67.1092987  55.9501915  22.0065498  50.3123283  12.5546598  39.1573257
  49.4350815  12.5102291  38.7769356  50.4741859  13.4903965  39.2774544
  51.0520744  24.3531456  30.6424809  50.8731728  24.9886799  29.9494286
  51.6094131  24.8245296  31.2616730  18.4975700  65.6050262  61.9285469
  19.0445309  65.2071152  61.2512474  19.1062851  65.8097839  62.6383171
  65.5569992  36.8581696  66.4085083  65.7024384  37.7681427  66.6673965
  65.1821289  36.9161720  65.5296783  82.4191895  15.4947653  80.9900208
  82.6391525  14.7029266  80.4992676  81.5199966  15.6954298  80.7303696
   0.9962071  46.1987953  59.5930138   1.5384104  45.5511131  60.0432968
   1.3035645  47.0418015  59.9263382  71.6119385  60.1605301  80.5359726
  71.2370758  59.7818031  81.3311234  72.0849762  59.4364929  80.1257935
  51.5824699  20.7922230  55.3055115  50.8836861  21.2456760  55.7770119
  51.7714729  21.3570423  54.5561867  49.3421593   1.0403357  62.1837540
  48.6354179   0.5325042  61.7851906  49.3745613   1.8484833  61.6718178
  68.1319046  26.3840923  82.8907700  68.2431030  26.3132038  83.8388443
  67.2328796  26.0959091  82.7328568  52.4786148  41.4890289  78.9198685
  53.4303513  41.5896950  78.9371872  52.1444778  42.3075409  79.2867813
  11.9600172  32.8686714  12.6955709  11.0198784  32.6899071  12.7159290
  12.3627062  32.0729446  13.0432711   3.5652041  65.6245346  49.3350067
   2.7664981  65.1832886  49.6241493   3.3863130  65.8737793  48.4283066
  32.0093575  60.9881477  10.9352293  31.4299278  60.7822495  10.2016773
  32.0213966  61.9446487  10.9697723  16.5232296  17.4002666  31.3909473
  16.3463764  18.1493530  31.9600048  17.3432198  17.0351982  31.7234726
  80.6152496  18.4791126  73.3369598  80.9689865  19.3415260  73.5545502
  81.3792114  17.9666653  73.0724030  74.6339874  58.0990677  59.1018600
  75.1391525  57.5497322  59.7012520  73.7717590  58.1703529  59.5113831
  26.1478062  21.6391296  78.7950134  26.2401295  21.1114712  78.0017395
  25.5867615  22.3691235  78.5331573  75.3318939  19.3945198  25.4626617
  75.9555511  19.0052319  24.8496819  75.8356247  19.5255089  26.2659855
  29.2822208   9.8468723  87.4108734  28.6536636   9.4045544  87.9813995
  30.0857697   9.3338461  87.4965744  77.9760056   8.9488440  64.8979721
  78.2273407   8.4958582  65.7028732  77.0786591   8.6604919  64.7310638
  40.2327080  67.1397171  71.8849487  40.1272354  67.9974442  71.4733582
  40.7283592  66.6269836  71.2464600  65.3973923  58.8127327  36.4773750
  64.5664825  58.3855133  36.6854591  65.1452255  59.6446648  36.0767174
   5.9776030   7.5876498  23.3643761   6.0765648   7.3005323  24.2721214
   5.8934641   8.5394001  23.4220238  76.7950821  28.6132488  51.0463867
  76.6663742  29.5447845  50.8677521  77.7311020  28.4696941  50.9067688
  77.7818451   4.5287004  34.0939255  77.5112076   4.0408792  34.8717537
  78.5626068   5.0079241  34.3713913  67.7750244  66.7485504  76.4460297
  68.7034454  66.8727036  76.6431580  67.5719681  67.4329300  75.8083572
  53.8440742  13.8868828  43.4652939  53.3163033  13.4257078  44.1172218
  54.5497971  14.2905521  43.9705048  85.7842941  15.8883076   3.9410586
  86.7277145  15.9333172   3.7855988  85.4814529  15.1799927   3.3728962
  55.4658890  56.6186638  76.1736145  55.0373344  55.8315239  75.8374786
  54.7806511  57.2869415  76.1643753   1.9751714  68.2921295  67.1498947
   1.5009534  69.1129990  67.0175323   1.9626683  67.8673172  66.2922211
  28.5228577  58.0204430  38.6876221  28.3908768  57.4851341  39.4700928
  27.8186569  57.7566566  38.0953827  40.1866951  55.0318680  69.6636810
  40.2766571  55.8498039  70.1526794  40.2994156  54.3458328  70.3216171
  69.9353485  56.2802048  66.9778290  69.2539520  56.4041138  67.6385651
  70.2147141  57.1675797  66.7525330  44.5263405  67.3633881   5.5669522
  44.1216774  68.0277863   5.0092254  43.9248810  66.6197433   5.5285344
  39.6313820  14.7849092  79.6439438  39.6365967  15.6413898  80.0713120
  39.7564240  14.9799013  78.7151947  68.5213318  14.3460340  63.0313072
  68.4827423  13.6712723  63.7091255  67.9902573  13.9970846  62.3154678
  50.8885651  64.6346512  88.2285233  50.7584724  64.5065002  87.2889023
  50.7947083  65.5785675  88.3567734  14.0741968  50.5449562  14.3485603
  14.9783287  50.4787788  14.0413170  14.1522436  50.7537308  15.2794485
  38.7070847  42.0426521  16.8790665  39.4760818  41.4921417  17.0267639
  38.4097595  41.8079338  16.0000114  63.7369423  39.8512535  77.9115677
  64.1267014  39.4436340  77.1381531  64.2967682  40.6063843  78.0921249
  47.8782959  56.8887329  72.0312576  47.7877769  56.8716736  71.0785065
  48.0880814  57.8000259  72.2356415  46.4430542  42.9473915  78.2896957
  45.9125061  43.1473503  77.5184860  46.5786247  42.0007477  78.2482605
  73.4819641  61.7767715   8.4208422  73.9494705  61.2674713   7.7588139
  74.0313339  61.7154274   9.2022896  47.8453712  65.0221786  58.7663879
  48.3961792  64.2400665  58.8003235  47.4984550  65.0322876  57.8743248
  69.6675034  28.0462418  21.4628372  69.3901825  28.2170792  22.3629150
  70.4430847  28.5942974  21.3430634  32.9763527  11.9923077  74.0595551
  32.3319893  11.4288206  73.6311722  32.5975151  12.8699598  74.0101166
  65.8403091  67.7328339  49.9456100  65.6321716  67.1862183  49.1879044
  66.3183365  68.4771423  49.5799255  77.0492172  34.1870613  63.2689247
  77.0521698  35.0950203  62.9658852  77.8992615  34.0737228  63.6941490
  85.2182236  57.6502342  88.6707153  85.3509674  57.1909332  87.8414612
  86.0938339  57.9399147  88.9268951  85.9725571  36.3151474  60.2657356
  86.6164780  37.0181656  60.3514977  86.3603210  35.7111206  59.6324730
   2.4075229  41.3288002   3.2134461   2.8160760  40.4735947   3.0795128
   2.7092907  41.8568039   2.4742682  30.8895798  30.9826107  74.3600693
  31.2133217  30.7296867  73.4955215  30.3898716  31.7839069  74.2037048
  57.6894646   4.6631012  23.4179535  58.3800659   4.4727736  24.0528393
  57.1551247   3.8691287  23.4000607   7.2651234  21.7413788  77.2796021
   8.0060644  21.8069324  76.6771545   7.4897761  22.3296986  78.0004654
  51.5131226  26.1032619  59.9656868  52.4074020  25.7791939  60.0727997
  51.1126900  25.9906330  60.8277779  86.8481216  61.1859436  61.0616531
  86.1264420  61.0439568  60.4490738  87.2927017  60.3395424  61.1083336
  53.3883133  23.3387470  13.2848473  53.4343529  23.3874474  12.3299971
  52.5682449  22.8779087  13.4619036  16.7117195  53.4540787  89.1799622
  17.4444466  54.0498466  89.3361664  16.9430122  52.9967728  88.3714981
  15.9933786  65.1532593  21.7723503  15.8303585  65.4770050  20.8864365
  16.3272705  64.2652359  21.6451721  83.8245468   3.4103932  64.8795776
  84.6608887   2.9576211  64.7711029  84.0535660   4.3397927  64.8794861
  72.0746689  27.5559807  65.4888916  71.4209747  28.1960716  65.7703171
  71.9240417  27.4573174  64.5487823  65.3855209  46.5385551  54.1494064
  65.5561981  46.4845200  55.0897179  66.1926651  46.2254448  53.7410965
  28.9555073  58.9494553  73.3078232  28.8295288  59.2991982  72.4257507
  28.4594784  58.1308289  73.3139877  45.7988625  70.6485977  26.1701393
  45.4581337  70.0756683  26.8570766  45.0976944  71.2819138  26.0168190
  10.2064219  45.2884293  17.1400642  10.0747366  44.8795700  17.9954739
   9.7525043  44.7110519  16.5262032  64.4042053  51.4014320   4.5739522
  63.5396805  51.7860985   4.4295359  65.0183411  52.0902748   4.3198576
  20.9037571  47.0178566   7.4769411  21.1288853  47.6329117   6.7789059
  21.0860329  47.4962807   8.2857170  78.0998917  29.8513184  22.6314240
  78.2577209  29.5137634  21.7497330  78.6729813  30.6147671  22.7017498
  61.2563362  51.1348495  82.5605621  60.9076233  51.3784752  81.7030716
  61.2650566  50.1777229  82.5524368  78.7066650   1.7785993  30.9308643
  78.2297134   2.5238352  31.2960701  78.0283813   1.1312428  30.7382755
  37.2164268  28.4026299  76.0894928  37.8587265  27.7139626  75.9179688
  36.4121819  27.9312935  76.3068924  72.2462845  68.6214981  52.1720963
  71.8556442  67.7846680  51.9204140  71.5140991  69.2380447  52.1694374
  49.0006943  32.5989952  16.7053185  48.0724792  32.5048523  16.4913387
  49.3858147  31.7525425  16.4785404  64.3951492   3.6677914  74.3996658
  64.7395477   4.1393394  75.1581268  64.1962814   4.3530736  73.7616425
  74.2127609  46.7743492  44.7984886  74.2049408  47.6316681  44.3728485
  73.7043381  46.2121086  44.2140007  85.1069794   4.8395424   4.6645966
  85.1419601   5.7325563   4.3217630  85.4902649   4.3017859   3.9716718
  12.2600641  61.9864502   2.4764535  12.3754349  61.7741127   3.4026473
  12.0955210  61.1424599   2.0559301  43.1749458  69.4103012  59.9649773
  42.4316063  69.3214569  59.3684998  42.8908424  68.9742584  60.7683334
   7.8077688  53.9541435  71.8212357   7.3211703  54.6927071  72.1872635
   7.5703621  53.2118721  72.3770294  49.3255272   6.2848945  82.7161942
  49.4291344   6.0551596  81.7927704  50.1503487   6.7099061  82.9512711
   1.3231179  53.3232803  24.7848644   0.7127048  52.7437096  25.2406349
   1.1862533  54.1803780  25.1884518  26.0794640  51.6405373   7.5810766
  26.8279133  51.7229004   6.9900842  26.3017273  50.9016304   8.1475086
  85.4065781  38.6764679  52.8380241  85.0355225  39.5276833  52.6056976
  86.3233337  38.8622169  53.0412178  38.3888016   5.2712164  21.8451195
  37.9254074   5.8666835  21.2561226  39.1067085   5.7956805  22.1997700
  71.8585129  50.8382797  44.8280830  71.7292023  49.8900414  44.8469810
  71.0238571  51.1998177  45.1261787  38.0961266  54.6963081  55.1583710
  37.5945549  55.1673279  54.4929428  39.0108986  54.8683929  54.9351959
  17.7556591   9.4310627  23.5822315  16.9991837   9.7670794  23.1015339
  17.6737766   8.4792328  23.5226727  82.0526733  45.0676155  57.3819313
  82.3817444  44.3607292  56.8267250  81.1003113  44.9804611  57.3413696
  35.2882729  20.3804932   5.9627857  34.7711868  21.1859894   5.9574103
  36.1103477  20.6264305   6.3869767  62.3974304  48.6038017  41.8090706
  61.5195084  48.7195702  41.4456367  62.3473892  47.7832527  42.2994003
  83.5040588  20.4016094  70.4406052  82.7825241  20.9861755  70.6727829
  83.3659134  20.2070980  69.5136108   6.9445243  34.6130447  23.9991016
   6.3402452  34.6395111  24.7409763   6.4210014  34.9059334  23.2531986
  29.8991337   2.7900569  79.1086121  30.0055275   3.2889693  78.2986755
  30.5406113   3.1691597  79.7094574  49.0183640   3.8898325  11.7683010
  49.5320244   4.2891021  12.4704180  49.6629219   3.4255536  11.2342405
  57.5069122   5.9518652  63.0281563  57.1398087   5.0857525  63.2051201
  56.9981575   6.2807832  62.2870674  44.4895706  46.3217506  36.7885208
  43.9911156  46.9405022  36.2547417  44.1054573  46.3954582  37.6621666
  51.9767990  30.7291183  64.1641998  51.0665359  30.4619961  64.0365219
  52.3837662  30.6107960  63.3059387  40.6090202  12.8309441  37.1896591
  40.1834984  11.9925203  37.3691254  39.9470711  13.4870405  37.4078178
  52.6930199  33.8326111  14.8039217  53.4412766  34.3925514  15.0108204
  52.8188553  33.0544014  15.3468628  39.6984825  61.7810631  24.8359127
  39.2071800  62.4577370  24.3701210  39.9727478  61.1704178  24.1517143
   6.9410667  58.6699867  61.8563690   6.6297488  58.3771973  62.7128639
   6.3218246  58.2894211  61.2335167  64.0191040   8.8994608  10.2738228
  64.0688705   9.1823750  11.1869030  64.9157410   8.6487083  10.0515623
  78.4495010  29.0545559  82.2090530  78.8530273  29.3814793  83.0131149
  77.6264648  29.5384007  82.1402512  52.8357124  60.3715591  69.7806854
  53.6712379  60.6557045  70.1513443  52.5897827  61.0736351  69.1783218
  44.5045509  52.4606781  29.5531998  44.2013588  52.0288391  28.7545605
  44.8688965  53.2929688  29.2519112  53.3587036   2.4766288  28.9399796
  52.8919106   2.2653108  28.1314735  52.6779633   2.7930372  29.5338707
   6.5849619  57.0706367  36.1013374   7.5103154  56.8257980  36.0986366
   6.1749654  56.4642563  35.4845428   3.0033474  32.6786919  73.8288345
   3.3603251  32.3631020  72.9986496   2.0652006  32.7749634  73.6649933
  56.7607765  26.6502762  85.9270859  56.6791306  26.6200714  84.9738541
  56.0262375  26.1265659  86.2471085  49.2115555  16.9436131  57.6285591
  48.6282234  17.6972618  57.5392723  49.9712791  17.1635742  57.0894241
  57.2074890  18.3439198  53.5040894  58.1321831  18.1645031  53.6743317
  56.9044304  17.5857620  53.0045052  66.8683853  63.9282265   3.4134126
  66.8341599  63.6280556   2.5051398  66.6242218  64.8527222   3.3694985
  68.6880188  38.8402596   0.7439972  69.5379028  38.4096642   0.8362733
  68.3764038  38.9501572   1.6423571  84.2540817   2.4237998  35.4493256
  83.7665100   3.2475147  35.4506760  84.2768250   2.1604421  34.5293503
  59.3982239   4.8815064  70.2992020  58.7497444   5.5657649  70.1333771
  60.2393188   5.2980437  70.1113434  63.9507866  45.7184181  21.0118370
  64.0319748  44.7694435  21.1071644  64.6493835  45.9586334  20.4031582
  50.3453445  65.9891205  45.0873032  50.1894226  66.8744431  44.7584877
  49.6953011  65.4488449  44.6380997  20.0183372  29.1227875  14.4819555
  20.7790489  28.7249775  14.0585222  19.5081711  29.4912395  13.7607031
  11.7825193  32.9755821  55.1011925  12.2758045  32.8308525  55.9086304
  10.8731337  32.7972260  55.3408546  83.7294846   9.1186399  43.3672142
  83.0076294   8.5856991  43.0338402  83.5614700   9.9942532  43.0189247
  82.4175873  49.1323967  10.9227848  82.4903183  48.7541504  11.7990665
  82.1695175  50.0442238  11.0753345   6.7980742  14.2748938  55.6556396
   7.2408776  15.1233740  55.6710663   6.7466731  14.0147943  56.5753860
  74.5988770   2.9153357  87.1603622  75.2034683   2.1771703  87.0840683
  75.0893478   3.6629448  86.8186646  73.9319611  12.6257792  81.6295776
  73.8175888  11.6770496  81.6849136  73.3243179  12.9785995  82.2795944
  63.8465309  32.3415260  84.3190994  64.4520264  32.1064568  83.6159897
  64.3976898  32.4029350  85.0992813  52.9959679   5.5659394  43.8233986
  53.3831100   5.7329421  44.6827354  53.6610222   5.8583732  43.2001648
   2.6635423  20.1946545  66.2023773   3.0475829  19.6975021  66.9245834
   1.9151202  20.6455288  66.5932846  69.5912704  36.9021912  41.1394234
  69.6211472  36.1795349  41.7664032  70.1897507  36.6379509  40.4406815
  69.7597733  23.3962021  82.4661407  70.5775452  23.0077095  82.1554108
  70.0367737  24.1183529  83.0300598  83.6399689  42.2070236  30.9733429
  83.4773026  43.0760384  31.3402004  83.9476395  42.3766785  30.0829563
  79.5748138  41.3271103  39.6077042  78.8553085  41.3803902  38.9786453
  80.3592148  41.2340050  39.0670853  72.4342270  46.9647560  16.2212543
  72.9765625  46.1843147  16.1071777  72.6608505  47.5245438  15.4786148
  53.0242119   7.5038691  64.8014832  53.7273140   8.1485214  64.7221146
  52.7446594   7.5655856  65.7148666  25.2119102  32.4604950   9.0462074
  25.4956055  32.3240776   9.9501648  26.0230637  32.6105118   8.5606585
  81.9663544   6.7042718  36.6902542  81.7792358   6.7272182  37.6287079
  81.9317627   7.6208820  36.4166489   0.2817451  65.4189682  36.5356026
   0.9315928  64.7834473  36.2355461  -0.4951113  65.2346191  36.0076447
  26.6888847  49.5881653  48.3600693  26.6694450  49.9825783  49.2320137
  27.6203079  49.4963264  48.1594467  40.2393494  37.2133942   8.5158081
  40.2255478  36.2851448   8.7490301  39.8829460  37.2425957   7.6279149
   3.7729661  30.0282612  67.5473251   3.6632013  30.9636230  67.3762131
   3.4565599  29.6004677  66.7516403  31.9129868  16.2326317   1.4419268
  32.8260803  16.4964008   1.5555712  31.8282948  15.4329481   1.9611238
  74.0248260   1.8786687  17.3180122  74.9546738   1.8914957  17.0911980
  73.5744553   1.7938938  16.4776497  73.3617249  70.8573685  31.3940372
  73.8951874  70.6884232  32.1706352  73.5875702  71.7516785  31.1382408
  34.1393852  70.7916641  30.1973000  34.0468102  69.8562927  30.0163555
  33.4722977  70.9748077  30.8588791  84.6416473  58.8535423  68.3114319
  85.5704193  59.0848999  68.3023605  84.6216660  57.9325981  68.0512543
  58.2441635  36.1656189  48.8142891  58.5100021  36.9467392  48.3290977
  59.0464172  35.8636742  49.2402611  82.3080597  26.3031349  83.4061203
  82.4569550  26.2364902  84.3493195  82.7406693  27.1184177  83.1523666
  68.7377701  47.1871185  78.1716690  68.2549667  47.7502251  78.7766800
  68.7130737  46.3212357  78.5789413  80.7212296  55.7449913  25.8775635
  80.2135925  54.9784470  26.1439304  80.2815628  56.0609360  25.0881901
   5.4252839  19.7129459  11.2015715   6.1386085  20.2735386  10.8963871
   5.8526444  18.8906574  11.4412289  72.5038528  33.3172607  41.8109970
  72.2603683  33.5442924  42.7084427  72.5114136  32.3601570  41.7997131
  79.6850891   1.4266047  51.5377235  80.5218048   1.8668202  51.6872063
  79.9156570   0.6297122  51.0601997  71.6125107  17.7623672  43.5039597
  70.7726059  17.3439865  43.6930656  71.9968948  17.2254639  42.8109894
   5.5145998  12.9745369  17.3733921   5.0945807  12.6970978  16.5592403
   5.3290749  12.2676716  17.9915771  42.2483215   1.7429819  70.4817123
  42.4353256   1.1353699  71.1973038  42.3496399   2.6111119  70.8719940
  32.4611320  40.0970612  11.3374691  31.8525391  40.8275414  11.4481468
  33.1662407  40.2764282  11.9594660  75.4509735  49.4706116  25.1854630
  75.5081177  48.7938995  24.5109100  75.5348663  50.2946663  24.7057476
  72.4981155  18.8903332   0.1778755  72.3367004  18.0129395  -0.1690508
  73.4501572  18.9863605   0.1528873  73.6503830  48.2433281   7.1690869
  74.0107651  48.4547577   8.0302811  73.4829483  47.3015404   7.2041574
  54.1692162  50.0864754   1.5332626  54.9962616  50.5651093   1.5892618
  53.6083717  50.6401443   0.9900001   8.2339640   9.0581255  22.1928673
   8.1406631   8.6339016  21.3398952   8.0951662   8.3544807  22.8267841
  59.4083099  63.4579277  35.0701752  59.0892677  64.0386276  34.3793526
  59.7610168  62.7007713  34.6026955  43.4593315  66.3181763  49.6680298
  43.3920174  66.0422516  48.7539368  42.5804787  66.1858826  50.0234909
  67.1015549  20.9882755  88.9669800  66.6443710  20.6064529  89.7162628
  67.3736496  20.2348042  88.4430695   1.7627861   5.1286392  78.8364487
   2.3528392   5.4404888  79.5226135   2.1853793   5.3923531  78.0190735
  55.2667580  69.9218826  65.5416260  56.0111046  70.2599792  65.0437546
  55.1077003  70.5842361  66.2141037  12.6388254  41.5326691  70.0964203
  13.0080223  41.0514717  69.3558960  13.2476406  42.2574959  70.2385483
  39.9040222  23.2699223  83.0101318  39.9745636  24.0469265  83.5646744
  39.0788689  23.3859596  82.5390854  50.3869019  14.3476057  62.1938858
  50.3832436  14.9248924  61.4303665  49.7867889  13.6390791  61.9613228
  12.4047298  32.2058220  89.1106720  12.0862112  31.3435116  89.3774948
  13.1139956  32.0193558  88.4955215  38.9297218  55.3590660  30.6272583
  39.5698204  54.7959061  30.1921101  38.9042282  55.0401192  31.5293980
   4.5952153  56.6756783  62.8625221   4.9055524  56.7576294  61.9607430
   4.1575708  57.5078850  63.0417747  77.1670990  60.1725960  30.4957542
  76.4335938  59.5615005  30.4266472  76.9856186  60.6758194  31.2895184
  51.9448051  20.0139370  76.7850189  52.8820763  19.8210411  76.8084717
  51.7846985  20.5212479  77.5807800  53.6430168  53.7722740  63.4115028
  54.4368820  54.2910919  63.5412560  53.8374023  52.9300804  63.8227921
  23.5340195  58.2505951  15.4976721  23.5129623  57.4231300  15.9783926
  22.9431419  58.8253632  15.9842300  76.5029831  21.9184513  44.8924789
  75.5871429  22.0774117  45.1209450  76.4647446  21.2819233  44.1786156
  60.0643463  65.2560959  37.7196083  59.1803093  65.5563812  37.9306488
  60.1215172  65.3304214  36.7670097  79.6479340  50.3560410  24.4414444
  79.7413177  49.4273911  24.6538715  78.7522659  50.4379196  24.1138649
  64.1085510   3.6301215   5.3469653  63.6065674   4.0858488   4.6712747
  64.4914093   2.8783369   4.8947811  55.8625641  60.1694527  30.8955936
  56.2731667  60.9705162  31.2210712  55.6679306  59.6626930  31.6839752
  66.1583939   3.4526105  44.2134743  65.2563477   3.3466845  44.5156708
  66.5046005   2.5610127  44.1757240  13.3773565  33.4131622  16.9190235
  13.3528633  34.0718269  16.2249088  13.0785341  33.8777695  17.7007370
  71.5501556   7.0697184  85.5360184  71.0663147   6.8843207  84.7311859
  71.0108261   7.7121816  85.9971008  14.2457685  30.2144642  83.9511490
  13.5388670  29.6777287  84.3095322  13.9059067  30.5301456  83.1138535
  25.2918015   6.7437115  19.7845669  24.5996284   6.8251233  20.4406929
  24.8580532   6.9373546  18.9535446   0.7772365  25.9487572  71.5494080
   0.7535819  25.5166016  72.4031754   1.4972825  26.5756855  71.6181641
  74.5960236  60.2850342  36.0228653  73.6550751  60.1120110  35.9927979
  74.9810638  59.6140709  35.4591408  54.0874557  31.9025993  85.4425964
  53.8649330  32.7632980  85.0877457  53.4173241  31.7363033  86.1055450
  38.5024834  48.4655571  75.9973831  38.2543488  48.6660728  75.0949097
  39.3636856  48.8694305  76.1043701  65.8112793  31.3180676   3.7061009
  66.6333618  31.0504780   4.1169648  65.1567154  31.2271137   4.3985615
  23.8526592  21.4657383  13.1566362  23.5065956  22.2380085  13.6039295
  24.2572174  21.8110847  12.3608341  55.6906929  14.7400570  54.8216171
  55.8409233  13.7968893  54.8856201  54.8130836  14.8677883  55.1817818
  60.0959358  69.4353790  29.0317860  60.6199570  70.2098999  28.8274479
  59.2867393  69.7852325  29.4046612  75.3273468  70.3016968  33.2832184
  74.9097900  69.8460617  34.0141563  76.2657013  70.2104111  33.4487038
  11.7281876  48.5913696  60.0656204  11.3329878  48.6994095  60.9307060
  11.1484261  49.0730171  59.4756012  74.0739822  15.1702642   1.8010629
  74.7492523  14.7984247   1.2336377  73.4703827  15.6073551   1.2003500
  12.4137611  54.6883392  26.3317070  12.0738888  55.0484657  25.5125446
  13.0505753  55.3366432  26.6323776  48.5344696  46.7690659  60.3335648
  48.6424370  47.0099258  59.4134750  48.4654541  45.8143997  60.3247299
  68.6659546  18.5951729  78.7945862  69.3667297  18.4533119  78.1581726
  69.0494003  19.1822224  79.4461823  79.8437042  11.6643572  57.9944572
  79.3242264  12.3664627  57.6027718  79.3626099  11.4235373  58.7861557
  60.1761131  19.1766014   3.4150360  59.6981621  18.7121811   2.7279348
  59.5651855  19.2098808   4.1511698  62.5068741  25.2985268  55.2493668
  61.6377869  25.2177353  55.6422958  62.8157425  24.3965969  55.1636162
  63.6077080  44.0966034  43.5111122  62.9746284  43.4007645  43.6878929
  64.3527679  43.8917389  44.0760460  56.7968178  46.4366951  21.6357250
  56.9043922  47.3758926  21.4855022  57.6461487  46.1488419  21.9704018
  76.0216599   9.7779455  32.9148712  75.9013443  10.6988096  33.1467438
  75.2023163   9.3565817  33.1744003  32.3853264  63.8489418  10.5650434
  33.1506157  63.4030342  10.9279900  32.2010994  64.5529938  11.1868181
  55.8364182  65.7390747   8.1889839  56.0626411  64.8203659   8.0439720
  56.3587112  66.2187195   7.5460324  41.4256210  35.7074394  82.2934341
  40.7126541  35.7072639  82.9321136  41.6617966  36.6301613  82.1983795
  35.9556770  42.8482323   6.9440432  35.9641762  42.8551788   5.9869061
  35.0328865  42.9522743   7.1761322   7.4548492  31.0402679  79.9575653
   7.2311516  31.9638233  79.8425217   6.7210307  30.5656471  79.5670853
  82.9184952   7.0004077  41.3411598  83.7287140   6.7632117  40.8900375
  82.8758469   6.4022899  42.0872612  70.0085526  42.5635262  24.2144127
  69.2459183  41.9986000  24.3387928  70.0420456  43.0987129  25.0073109
   5.8986745  50.7694054  24.4678192   6.0437045  51.1216736  25.3459454
   5.9946208  51.5248260  23.8878498  25.0334854  59.3695717  18.7522335
  25.6003132  58.7261887  18.3267937  24.9088535  60.0521355  18.0928345
  26.6509399  45.3588676  56.6284409  26.8052406  44.4206314  56.5182953
  25.6978149  45.4435806  56.6530609  21.8308487  54.4953041  69.5555801
  22.5571461  55.1184349  69.5764008  21.0478115  55.0367355  69.6552658
  36.0773659  39.1558037   3.4795425  36.5084915  40.0099602   3.4516416
  35.7877960  39.0041695   2.5798829  25.8316975  47.3851738  39.5008926
  26.4725113  47.9486504  39.9345779  26.2985897  46.5632477  39.3502884
  79.6488037  41.5757294  53.7401581  79.6196365  40.8478889  54.3611450
  79.5844574  41.1597977  52.8804512  41.1981163  54.4068527  76.5915298
  41.7366829  54.3901863  77.3826675  40.9195786  55.3190460  76.5105743
  59.3075943  59.0700188  60.9771500  59.2591324  58.1146049  61.0098267
  59.3735809  59.2747269  60.0444260  80.3815079  34.7111473  71.8336334
  80.7790604  35.0369377  71.0261459  80.9466782  35.0447693  72.5304184
  47.7979393  38.2072792  20.3535442  48.3549805  37.4297752  20.3913116
  47.0464897  37.9381104  19.8252430  30.2562847  44.8697815  84.6654129
  30.4639988  45.7789993  84.8808441  31.0590229  44.3873749  84.8632126
  50.5218544   7.0001745  26.6275501  50.8165627   7.7837515  27.0916462
  51.1794853   6.3366818  26.8361855   5.0463185   4.7199793  34.2656326
   5.5339971   3.9133253  34.0991669   4.3022366   4.4439101  34.8007584
  65.3657684  20.0080681  39.0489616  65.6310883  20.8592911  39.3971748
  64.8929901  20.2157936  38.2430077  82.3947525  53.1019287  51.0893936
  83.1817627  53.2480965  51.6142616  81.7967987  52.6407547  51.6776161
  73.2409058  42.2469292  38.8693390  72.3851318  42.0691490  38.4791145
  73.3551788  43.1926270  38.7753906  46.5905151  67.3530731  44.1712570
  46.8038788  66.8610306  43.3784103  46.3717575  68.2303848  43.8570862
  33.2810936  65.7735291  56.0146942  32.6128654  66.1912537  56.5580292
  33.5309715  64.9891510  56.5030975  13.4611874  21.3858662  79.2546158
  14.2704887  21.5981655  78.7896500  13.5342064  21.8518391  80.0875473
  42.8858261  15.8949223  47.7172394  42.3256416  16.5331573  47.2755585
  43.7604294  16.2827568  47.6874657  63.3535690  15.8967390  66.8893280
  63.2092857  16.4257755  66.1047668  63.4058075  14.9974756  66.5655518
  84.4414597  41.6014481  76.7418823  84.6388855  40.9047050  76.1159439
  83.6833267  42.0510292  76.3685913  20.2934208   7.8554506  76.7456665
  21.0824127   7.6449084  76.2462692  20.3382626   8.8026400  76.8762589
  44.3110924  68.4978790  55.1495171  45.0570831  68.7169266  54.5911713
  43.9918709  67.6633301  54.8062096  64.5741577  71.2040024  85.6721344
  65.2178040  71.9065399  85.7637253  65.0988388  70.4134674  85.5456543
   2.4148159  64.4862671  85.4745331   2.3383260  65.2255173  86.0777664
   1.5114954  64.2753830  85.2383728  21.6948814   3.0834043  72.8377686
  22.1228828   2.2457483  73.0149078  20.7675076   2.8641675  72.7475128
  79.4909134  58.8801804  15.2221060  79.3628693  58.4738541  16.0792732
  78.6296997  59.2282028  14.9909725  56.6588783  29.3326263  47.7283554
  56.3230057  29.7897358  46.9573364  56.5006294  29.9374294  48.4532051
  77.6735306  71.2922745  41.7766838  76.8013611  71.5911789  42.0339775
  78.2012405  71.3820038  42.5702248   8.6217709  42.0962410   1.2380272
   9.1808558  42.8126945   0.9374461   7.8023453  42.5216560   1.4906076
  49.9737968  13.0536976  71.2893753  50.1415863  13.0714025  70.3471603
  49.1245689  12.6201115  71.3733139  75.0890198  29.0658073  86.6192703
  74.7695847  28.3085613  87.1099548  74.2965851  29.5415287  86.3703308
  61.3498001  63.2834740  38.8499985  60.8846169  64.0108490  38.4367638
  62.2648621  63.4114532  38.5999641  10.8273783  48.3950653  62.6322021
  10.0390892  48.9325333  62.7094078  10.6209879  47.5961189  63.1172981
  22.9071579  47.2052345  39.9437065  22.6663151  46.3020363  39.7376366
  23.8029327  47.2944374  39.6183472  80.0148926  46.1770172  32.7924194
  80.2075882  45.3793564  33.2852020  80.8111038  46.3455009  32.2885513
  53.0569801  27.1727943  54.2780342  52.9323540  28.0812645  54.0034790
  52.1718559  26.8502827  54.4476776  77.4010544  67.7350845  80.1725082
  77.3156891  68.4490814  79.5407257  78.1256561  68.0013809  80.7384338
  80.6886520  42.9848747  69.6489029  80.1717682  42.4324074  69.0625229
  80.4005051  42.7370110  70.5274048  78.5440292  70.3931580  84.8977966
  78.7585373  70.5167694  85.8224258  77.7989349  69.7922897  84.9030380
   8.4038677  38.5081863  68.5006561   7.9495912  38.1587639  67.7339935
   7.7140913  38.6294670  69.1531372   6.1395249  55.8284721  73.1620560
   6.0771761  56.7721291  73.3098984   5.5217428  55.4469872  73.7857971
  57.1904869  47.1306381  32.8436470  56.8163834  47.7027626  33.5136871
  57.1794586  46.2591743  33.2394447  73.8875580  50.1254692  34.8845978
  74.3307190  50.6789055  34.2415199  73.9401398  50.6196709  35.7026596
  67.4538422  18.7981777  40.6630058  68.0740662  19.4998093  40.8611870
  66.9348373  19.1363297  39.9332733  58.4200096  42.6011772  10.2802267
  58.7343292  42.0666695   9.5510254  59.0280609  42.4125252  10.9950104
  26.3740883   2.5494339  76.1256714  26.0938110   3.4474432  75.9488754
  27.2134037   2.4669583  75.6729202  71.3309708  13.8361263  64.0886383
  72.1270218  14.0952358  64.5527420  70.7726440  14.6130524  64.1185532
  82.1205978  63.0855179  53.5307350  81.5239334  62.3622360  53.7232933
  81.7347031  63.5180435  52.7690048  41.7723160  54.6294136  79.5256882
  41.0196495  54.0383492  79.5448685  41.7495346  55.0738029  80.3731689
  41.3521881  48.5178032  18.8253059  41.4278717  49.0185699  19.6375504
  42.0795479  47.8964462  18.8583603  57.1340408  32.9278450  73.1957550
  57.5781479  33.7444344  73.4241943  56.4552460  32.8294754  73.8634338
  17.9031277  49.1876411  24.8584404  18.2562160  48.3122787  25.0175037
  18.3519001  49.4868736  24.0676861  72.9418030  48.2642136  47.3694420
  72.9585648  48.9328880  48.0541534  72.3370667  47.5993156  47.6987381
  56.8743744  70.7183151  44.9215775  56.4544601  69.8643799  45.0250130
  57.5190544  70.5855865  44.2265892  72.5934448  46.2978134  81.4985504
  72.0460205  45.8335686  82.1318283  72.3720245  47.2208595  81.6217957
  59.3524933  24.1718731  12.1851931  58.4846458  24.2137165  12.5868444
  59.7710838  24.9962635  12.4329681  71.8403244  24.9186306  77.9683838
  71.0629578  24.7483501  78.5003128  72.5310440  25.1014481  78.6053391
  67.1981354  13.7102051  68.9524612  66.5945206  14.1890888  68.3845215
  66.6857224  13.5164871  69.7373962   1.2717466  32.4432793   9.3881636
   2.0673919  32.9115639   9.6409330   1.1724180  31.7629776  10.0541611
  35.1038895  28.1946545  70.0666885  35.4856186  29.0085850  70.3953705
  34.8915367  28.3818264  69.1523056   4.5679517  25.9561920   4.8088508
   3.9654856  26.5365295   5.2741194   3.9988775  25.3384533   4.3497357
  53.4475861  43.3222809  75.8199463  53.3615990  44.1357880  76.3169861
  54.0239258  43.5475693  75.0896683  55.3116608  19.0109024  46.2162323
  55.7919998  18.9913120  45.3885117  54.6559639  18.3190212  46.1290779
  24.3998928  32.1386147  68.7497635  24.9239464  32.9034424  68.9877625
  23.6372204  32.1819572  69.3265533  66.0650711  39.0795975  67.7894897
  65.7147446  39.9553986  67.6267776  66.4662933  39.1393929  68.6564789
  12.6247597  34.3841782  73.8841705  13.3369398  34.0615959  73.3319244
  12.1342573  33.5984917  74.1256943  62.8285027  58.1323128  73.1354141
  62.3305550  58.6773262  72.5261230  63.7230072  58.4687653  73.0816040
  63.7837257  19.3279381  81.9135818  63.0619240  19.8739090  81.6018982
  64.5632248  19.7063866  81.5068970  27.8854046  32.6948166   8.1804333
  27.5704956  33.3545837   8.7983084  28.4754066  33.1738930   7.5985284
   8.6047106  63.9652901  66.4608917   8.7889786  64.8744049  66.6970901
   7.7163768  63.8098106  66.7817078  46.4519997  49.0194397  76.0431595
  45.6501083  49.1063576  76.5585632  46.5643501  48.0753365  75.9323578
  21.6436996   4.3742709  80.2916107  20.7706032   4.7644720  80.2506561
  21.4919147   3.4355762  80.1818619  75.1349792  60.7074432   6.4980130
  75.1390839  60.5559769   5.5528817  76.0606842  60.7502518   6.7377405
  53.4320068  48.1086998  37.8756676  52.9314461  47.8446159  37.1037025
  52.7690849  48.2728882  38.5463409  40.5247192  68.9220657   1.9909093
  40.4397163  68.0711823   2.4210248  40.0046158  68.8394241   1.1916021
   1.6834066  63.4740334  73.5038528   2.3783607  63.3605957  72.8554688
   2.0575340  64.0680923  74.1545029  55.0764275  55.0767403  43.8891602
  55.0365944  54.1433525  44.0975761  54.5185699  55.1738434  43.1174088
  48.6434937  41.6239738   5.7908254  49.3729019  41.9389038   5.2569547
  48.5835876  42.2532463   6.5096159  34.5908279   1.3401095  36.0708122
  34.2999725   0.5459169  35.6226006  33.9781570   2.0163300  35.7816811
  85.8230515  69.4351730  42.0762138  85.2958298  68.8268890  42.5941582
  86.5644684  68.9112015  41.7729187  60.7663498  19.7510262  10.0726185
  60.6433220  19.6820412   9.1258669  60.6791039  20.6860447  10.2579813
   6.2199554  23.6138210  74.3201599   6.0869594  23.5711231  73.3732071
   7.1134868  23.2964973  74.4510727  73.2041321  24.6923103  18.7421398
  72.6713104  25.4621983  18.9411583  73.1553726  24.1561813  19.5336094
  72.7546463  44.9684219  12.9941521  73.0229340  45.8746834  12.8426561
  73.2617035  44.6930122  13.7578764  19.5066681  38.6757622  71.2353439
  18.9655285  37.8917122  71.3284378  19.5962086  39.0122337  72.1269760
  67.9828491  36.4709358  11.2913418  67.8043137  35.5345535  11.2044630
  68.3139877  36.5698166  12.1839771  75.3447647  43.4613495  10.3686295
  76.0072937  44.1365738  10.5147991  74.5396118  43.9492569  10.1957245
   1.5564970  26.8423805   0.0503643   2.2194970  26.5720081   0.6856294
   1.1277264  26.0271530  -0.2100006  42.3738403  60.2470284  46.0490417
  41.4349060  60.1611862  46.2141647  42.7679443  59.5126839  46.5198364
   8.5856838  16.0182705  79.7675171   8.2474642  15.5201454  79.0233994
   9.2583523  15.4534626  80.1479645  48.4837151  27.3271446  82.2581635
  47.7058067  26.8205147  82.4914398  49.2173042  26.7467461  82.4611740
  56.9786148  60.7437630  27.1933212  57.3929787  61.4101219  27.7414989
  56.4899406  61.2423210  26.5384407  35.4461861  70.7944565  37.6678276
  35.5000534  71.2310104  38.5179749  35.6886406  71.4708710  37.0354462
  66.5486755  69.9862137   6.2874198  66.0996323  69.3337021   5.7499971
  65.9557724  70.7376175   6.2970939  32.7314835  59.0397644  82.6642151
  33.0231094  59.8799438  82.3102570  31.8543129  59.2149239  83.0049896
  10.5998249  62.0979309  65.9900208  10.5799170  61.4171448  66.6626053
   9.8991842  62.7008400  66.2386780  16.1063786  60.1800461  68.2967377
  15.7615185  59.8131714  67.4826736  16.4333611  61.0451584  68.0499649
  27.6566963  70.4165955  36.0874405  27.4239578  71.1068878  35.4664993
  28.4446335  70.7418289  36.5228806  46.4629211  23.5126495  40.1457062
  47.3218460  23.9264317  40.2309494  46.1027756  23.8731060  39.3353996
  74.2749405  68.3844910  17.7333336  74.2448044  67.7056656  17.0591526
  74.9586029  68.0928497  18.3364792  66.9396896  50.4555092  83.0683060
  67.6592941  51.0527649  82.8641281  67.3678970  49.6209793  83.2591705
  23.7255669  56.7575150  68.9307022  23.9038696  56.7953568  67.9910202
  22.9441566  57.2977333  69.0481644  53.7011528  42.7458878  62.0604782
  53.0889359  42.9782715  62.7586327  53.2278290  42.1045380  61.5305099
  38.4610138   3.4235365  83.1055374  38.5930138   4.3484936  82.8975449
  39.3458633   3.0685844  83.1908569  16.3586273  14.4554701   5.4097905
  16.2683067  14.5745935   4.4643364  16.6908875  13.5631876   5.5081124
  43.3135300  46.2163086  50.2024536  43.0426064  45.3176994  50.3904343
  43.2468147  46.2924347  49.2506180  33.9907074   2.3745532   8.0917034
  33.6704140   1.6422898   8.6184235  34.2614059   3.0309720   8.7336273
   4.2467308  33.5544357  52.6955948   5.1146469  33.5750542  53.0987434
   4.1415653  34.4236946  52.3088646  63.0498085  66.2819138  63.5047913
  62.4515533  65.6000748  63.1991463  63.3207321  66.7376785  62.7078552
  21.1009293  24.3338451   2.6582544  21.6843166  23.6621857   3.0114753
  21.0300884  24.1239319   1.7270455  48.4073982  12.7309361  61.8707733
  48.3107147  11.8872108  62.3123741  47.6439247  13.2362871  62.1499901
   6.9331245  67.5806122  47.1258698   7.4303985  66.8175812  46.8313751
   6.0170331  67.3302383  47.0062103  78.9768982  13.6780777  54.0353928
  79.2538376  12.8468227  53.6499710  78.0456085  13.7418270  53.8235588
  81.4241104  11.8475342  15.7431841  81.8123398  11.0167265  16.0175266
  81.9204865  12.0981674  14.9640684  68.5115738  21.1246433   6.3998208
  69.4686279  21.1180058   6.3847246  68.2561417  20.7187271   5.5714364
  36.4068451  49.7751732  11.1217489  36.2954788  49.7984505  10.1713343
  35.9416771  50.5502892  11.4364614  29.5900040   4.9963937  82.1028290
  29.2483597   4.7756467  82.9693069  28.8105221   5.0960779  81.5562897
  46.7076225  47.9067841  87.6044083  47.3969917  47.9059181  88.2684937
  46.7145233  47.0172997  87.2508545  49.3635788   9.2562056  74.8494110
  49.9959259   9.4964619  74.1721725  49.1467323   8.3430252  74.6614990
  66.8960800   4.9532022  35.4248352  66.4468842   4.7314243  36.2404747
  66.8750916   4.1449728  34.9124336   6.1368728  58.8032417  72.9777679
   6.5821242  59.5008812  73.4586868   5.2446580  59.1278877  72.8561554
  27.6590576  58.4168396  10.1133451  27.8855381  58.3165092  11.0379381
  26.7042828  58.4845924  10.1066122  49.6969795  28.1286850  53.5757599
  50.4150047  28.7581787  53.6421280  48.9915733  28.6141968  53.1480751
  67.4965210  52.8664894  55.0395508  68.3244171  52.9956436  55.5022926
  66.8618164  53.3838348  55.5352745  25.5149593   8.4835033  79.8187943
  24.7906818   8.1842184  80.3684158  25.1158924   9.1137228  79.2189636
  71.4422073  14.6900501  13.9110641  71.0682602  15.4835882  13.5280581
  71.3026962  14.7899132  14.8527622  77.5153961  57.6244926  18.5498886
  77.8204117  56.9115829  17.9886837  76.6409607  57.3525848  18.8285561
   0.3128849  27.6221161  78.1187820   0.8905670  28.3294792  78.4054108
   0.0174209  27.2102871  78.9307785  42.6490936   7.6954145  28.6190357
  43.4676552   7.2032018  28.5564938  42.0789413   7.1448226  29.1557007
   3.0453472  17.5474815  71.1225357   3.9812973  17.3479042  71.1425095
   2.9664783  18.3740158  71.5988312  27.5763512  58.3686829   3.1006896
  26.8064899  58.0296097   3.5573888  27.2212830  58.8177071   2.3335292
  79.9813843  39.4782524  45.8162804  79.9073257  38.5312500  45.9343224
  80.4520035  39.5804253  44.9890518  84.9437332  31.5973091   0.5522268
  85.0470657  30.7166348   0.1917148  84.0289612  31.6360168   0.8314002
  48.3284798  59.0168610  82.2815018  48.0296173  59.5822487  81.5692825
  48.6296082  58.2201958  81.8446121  57.5993500  70.6313858  23.1275959
  57.0632172  70.9343414  22.3947868  57.9299240  71.4342575  23.5305252
  12.2773170  12.1663637  15.9818535  13.1869516  12.4608870  16.0271645
  11.7887049  12.9401846  15.7013340  44.8434715   2.8213580  14.5620823
  44.3235207   3.2744105  13.8982878  45.4961739   2.3314817  14.0618477
  66.8369064  15.2219963  17.0696507  67.6639557  15.2096596  17.5513744
  66.2596359  15.7723303  17.5989208  71.6127930  47.8980141  25.5007038
  70.7955017  47.5552101  25.8623047  71.4530182  47.9539413  24.5585899
  47.0709534  61.5910645  10.6873388  47.0588837  62.2777901  10.0206347
  47.2114487  62.0588760  11.5105295  44.4582253  26.7790337  15.9156647
  44.0877533  26.7064934  16.7952785  45.1995125  27.3761597  16.0164833
  69.3685303  70.3384247  27.5998802  70.0057755  70.8442764  27.0956421
  68.9040604  70.9917603  28.1229954  78.2875290  55.8221512  74.2649841
  78.8258896  55.0822830  74.5460358  78.8737564  56.3541985  73.7269363
  70.9679260  48.7956314  40.8345032  71.4226913  48.2641869  40.1810608
  71.1509705  48.3600807  41.6669807  42.4172554  70.3867340  74.6347809
  42.5855865  71.2251129  74.2046509  41.6139832  70.5311508  75.1349106
  77.1563644  24.3673000  65.4339981  76.5767212  25.1247234  65.3530426
  76.5644073  23.6164856  65.4797287  68.3817596  19.6877384  12.2178631
  67.8193817  19.7221584  12.9916706  68.9279251  20.4710674  12.2836761
  55.8029785  63.9702415  23.0104313  55.8738518  64.2106552  23.9342308
  56.3651543  64.5975800  22.5558643  73.0494308  60.3943863  64.8022995
  72.2053375  59.9469566  64.8618393  73.5626831  59.8581047  64.1979752
   2.8252225  17.7813263  34.1695328   2.7053523  17.6004372  33.2372551
   2.6486244  16.9450359  34.6004181  45.2807770   6.2973843  25.0655575
  45.1724396   5.4738631  25.5412750  46.2183495   6.4828954  25.1182938
   2.1969256  19.2504711   5.2262287   3.1240833  19.0157375   5.2651043
   1.7713957  18.6473026   5.8356090   1.5559384  11.8672924  74.1179047
   1.5610412  12.2747231  73.2517624   1.6332173  10.9295816  73.9419556
  58.5399132  41.7372055  70.4955292  59.3487930  41.6305733  70.9961014
  58.3829803  40.8762741  70.1077194  46.7277908  15.0517998  65.5545197
  47.1989365  14.2573528  65.3033066  47.3873978  15.7442818  65.5142822
  18.4376812   2.9329307  18.0956898  18.1962109   3.1491809  17.1950455
  19.3514824   2.6538270  18.0382290  47.6591187  38.3756638  12.2678576
  47.3119049  37.6061325  11.8167524  48.5274658  38.1062775  12.5672560
   3.6887820  59.0281487  49.8575859   2.7695894  59.1496811  50.0953827
   4.0553122  59.9123917  49.8583755  76.8721237  27.0519142  27.1807632
  77.1697006  27.1044636  26.2725163  76.0451126  27.5337944  27.1900997
  42.1183968  34.5994301   7.3211722  42.1208305  34.0339546   6.5488596
  41.3502388  34.3207321   7.8196592  50.9635887  26.5839996   5.3869476
  50.8101540  26.9721756   6.2483473  51.8954201  26.3650951   5.3854270
  26.1659107  68.6341629  17.7619801  26.9522133  68.3247147  17.3123112
  25.6061897  68.9700928  17.0619106  68.8362122  29.8056259   3.2671859
  69.5704041  30.3875275   3.0707541  68.4326401  30.1844540   4.0481133
  38.3125153  48.1536942  53.3869133  37.4333534  48.3168640  53.0453262
  38.5695190  47.3179550  52.9973984  17.9421253  26.5970745  31.8513565
  17.2727623  26.1228561  32.3446159  17.4716301  27.3282528  31.4510517
  38.3181801  42.4413795  78.5553970  38.9241524  42.7104912  77.8650284
  37.9872627  43.2633629  78.9174347  23.5186386  14.6273727  86.8889313
  23.4150314  13.6879005  86.7376404  22.6244888  14.9537354  86.9900131
  62.8902054  54.3026657  30.4346733  63.6545219  54.3352432  29.8593559
  62.1411285  54.3522034  29.8408146  18.7102776  47.9202919  36.9656830
  17.9022942  47.6765022  36.5140610  19.2471962  47.1282654  36.9402771
   4.8732553   8.0226889  28.9262142   4.8443713   8.3247805  29.8340359
   5.6046181   8.5023785  28.5373211   0.4368525  21.8174152  85.5322418
   0.2134899  21.3726025  86.3498535   1.3913120  21.7639217  85.4834824
  64.9893799  22.7612400  13.9079256  64.3503799  23.4552803  13.7459965
  64.8030853  22.4674492  14.7996731  84.6828766   6.0143137  52.6491051
  83.9065094   6.5535302  52.4983253  85.3532639   6.3958888  52.0823555
  33.2981415  45.6679306  52.2847824  32.6706810  44.9747467  52.4897614
  33.7889442  45.7945061  53.0967674  16.9445572  46.1874123  88.5160828
  17.7389908  46.3426437  88.0051880  17.2000160  46.3754463  89.4191971
  52.7386017  40.6171837  74.1974487  53.0303955  40.5594330  75.1072617
  53.3505630  41.2288170  73.7880173  56.4039001  63.6703300  51.3073044
  57.0723305  64.2913208  51.0178146  56.5355186  62.9010963  50.7530594
  80.7073364  67.3065720  65.7172699  80.4400406  66.4193344  65.4772568
  81.6299362  67.2219391  65.9578476  49.7612267  23.8756485  77.1270218
  49.0854912  24.5535870  77.1234589  50.4524536  24.2293949  77.6867523
  23.3593864  43.1091194  32.4684868  22.8335037  42.8182716  31.7234440
  23.5001488  42.3164597  32.9862785  57.1783295  42.1281357  77.4783249
  57.4300842  41.3829041  76.9329071  57.0994263  42.8583603  76.8645020
  83.3373795  34.0195618  11.4345274  82.8892822  34.8275337  11.6847763
  84.2681046  34.2394447  11.4750204  15.7360592  68.2913437  18.7111988
  16.1217957  69.0600052  19.1314316  16.0192585  68.3498230  17.7987232
  80.5685730  48.9336014   8.4010553  81.0528336  49.3812065   7.7072458
  79.6708984  49.2535324   8.3113375   7.6273041  52.9670906  68.7618027
   8.5134001  52.6463013  68.9296188   7.1806626  52.8890419  69.6048050
  60.3857803  43.8420486   7.0152779  60.1040039  42.9809341   7.3240080
  60.1222458  44.4440422   7.7112565  56.4464111  65.7655182  20.9003448
  56.6579247  66.6458359  20.5896301  55.5237503  65.6471405  20.6747074
  44.6100235  27.3554344   2.7235935  43.7621422  27.7949772   2.7878637
  44.5743256  26.6677628   3.3884737  24.1667385  23.0310020  77.8488388
  23.4004345  22.4755096  77.7058716  24.1221504  23.6847973  77.1511307
  16.6927681  56.5932884   2.7035518  16.0094090  55.9310913   2.8072233
  16.2424145  57.4262009   2.8437986  38.4887199  38.5488853  17.2005367
  39.3038292  38.1122398  16.9532070  38.0793037  38.7816772  16.3672199
  50.6014175  28.9899254  74.0276031  49.6457214  28.9918041  74.0812225
  50.8917580  28.8659554  74.9312439   2.9419546  57.5987129  33.5650597
   2.2382920  57.0499687  33.9114304   3.2711427  58.0753708  34.3270721
  20.8878899  22.2553520  80.7934570  20.8694477  23.1345463  81.1714935
  20.2080307  21.7764988  81.2675095  54.4840622  53.0344772  72.0096817
  54.3598633  52.4176750  71.2883224  55.3720551  53.3702850  71.8874817
  32.1971855   8.3132782  13.5753126  31.5382195   7.6617599  13.8151445
  32.6873245   7.9064183  12.8608475  56.0273590  24.9601612  39.1225510
  55.4097099  24.3147087  38.7788429  56.4317055  24.5278587  39.8747787
  85.3718491  61.2950363  36.8055649  85.8285446  60.6805534  36.2310486
  85.4359589  62.1370926  36.3549423  83.0521088  13.2151871  79.4021378
  82.1778336  12.9549160  79.1120911  83.5717087  13.2458506  78.5988235
  53.2677307  29.9212151  74.6916580  52.9393616  30.2892380  75.5120010
  52.5416031  30.0222359  74.0762177  48.3634682   6.4746261  74.4492188
  48.6793060   5.5920281  74.2555771  47.6256866   6.3398709  75.0439911
  60.1396484   7.5358543   2.3808239  59.2337837   7.4102254   2.6634159
  60.3018341   8.4709835   2.5051668  25.9157372  24.4182644  69.3424835
  25.8461742  23.8557835  70.1138535  26.8245583  24.3227768  69.0576019
  84.6219788  21.4308929   9.4927645  83.6682053  21.4599552   9.5682678
  84.8044739  20.5828629   9.0880785  43.2418137  11.4954853  73.0445557
  42.6224213  11.0133047  72.4967575  43.4493141  12.2804155  72.5375443
  39.2647781   6.0442300  77.4321976  40.1841660   6.1795111  77.2027283
  38.7891197   6.1973295  76.6157761  24.4738178  35.2390862  56.9352264
  24.1484394  34.6557503  57.6208534  23.9558735  35.0129776  56.1626701
  80.5628815  22.4676304   8.5985622  81.3896561  22.8158989   8.2648325
  80.0829544  23.2385845   8.9011049  14.9991484  69.1884918   2.5684123
  15.3472242  69.9181900   2.0559521  15.5380011  68.4391327   2.3147709
  81.1732788  54.9572601  22.9936161  81.0223312  54.0457993  22.7432480
  81.5328140  55.3655815  22.2060623  12.5384483  62.8456726  42.2471771
  12.2950296  63.7020378  42.5987663  13.0506897  62.4370804  42.9449577
  36.9556732  66.6761246   4.1711769  37.5798912  67.2095261   4.6631761
  36.2014542  66.5909958   4.7543917  25.0747318  71.4175110  48.6622849
  24.5939999  71.3571777  47.8367615  24.4940739  71.9103165  49.2421227
   9.5281296   6.2572660   6.1510983   8.6596317   6.0851779   5.7873278
   9.5988340   7.2118001   6.1609678  28.3588142  71.2682266  17.7409897
  29.1683903  71.7655411  17.8571568  28.5346260  70.4239883  18.1564178
  26.3550186  55.5272217  70.1389084  25.4278488  55.7623520  70.1028366
  26.3900089  54.6366158  69.7898636  36.8959541  60.8098450  78.3587418
  36.3939705  61.4785118  77.8927765  36.6405144  60.9139519  79.2753372
  11.1817474   5.7669177  81.1118393  11.0077066   6.0030823  80.2007065
  12.1084146   5.5274115  81.1243744  34.7388535  10.8238993  81.7881927
  34.3231621  10.6515913  82.6330185  34.0100098  10.8854666  81.1707535
  77.1894455  32.7908058  85.5043716  77.9127197  32.3083305  85.9047699
  76.8420486  32.1946373  84.8409500  61.3686066  26.9769535  72.2744370
  60.9304276  26.2993603  72.7893143  61.5860748  26.5464249  71.4476471
  12.2764130  20.7762489  67.3398819  11.7225962  20.3069382  67.9637985
  13.0970297  20.2835751  67.3302612  26.3363533  25.1008205   4.3884010
  26.2068272  24.4370537   3.7110031  26.6126537  24.6054363   5.1594286
   8.9456806  40.1135139  84.4461288   8.9079599  40.9192162  83.9307098
   8.6991739  39.4234543  83.8302689  71.3407516  22.3684120  84.9047089
  71.5438461  22.4950829  83.9779205  72.0437546  21.8056450  85.2292252
  39.7307434  34.1685638   0.3221156  39.7167015  34.0561180  -0.6283529
  39.0748253  33.5512543   0.6460472  50.3271942  10.2162066  72.5108185
  50.6349411   9.9828491  71.6349945  49.4133644  10.4710646  72.3835754
  84.2083740  34.4123497  61.6714058  84.6315155  35.2509766  61.4873161
  84.7725143  33.9975891  62.3240509  37.8750153   0.7166336  19.7518368
  37.9807243   1.3785052  20.4351978  36.9417725   0.5043184  19.7663498
   2.0693870  67.1667938  37.9755325   1.5296400  66.5145340  37.5289192
   2.3956854  66.7152786  38.7539291  72.3975754  12.1164398   2.5053833
  71.6026764  12.0012884   3.0260589  72.4871292  13.0648088   2.4115326
  24.5887280  67.8921432  57.1657524  23.8109608  68.3134003  56.7998924
  24.3612537  67.7217560  58.0797844  42.6480789  14.8468342   4.1040249
  42.5630417  15.1524019   5.0071464  42.1757584  14.0144482   4.0873327
  59.3984261  47.9779778  11.1027393  60.3481178  48.0347214  11.2080774
  59.0543785  48.6867905  11.6462927   3.1549380  62.4405212   5.5766830
   2.8727837  62.8916664   6.3723526   2.6846867  61.6069870   5.5944052
  67.1344528  11.8265810  48.6457977  67.5072556  11.8644218  47.7649918
  67.6550674  11.1626682  49.0979156  61.4537239  19.1575031  68.0977707
  60.6523132  18.6600685  67.9348831  61.7007561  19.5014973  67.2393570
  11.5612679  45.9860039  32.0471611  11.4859200  45.4707031  31.2440300
  10.7876110  46.5496292  32.0435753  69.6630173  49.6604919  82.5339127
  69.2037430  48.9934807  82.0236282  70.0624237  49.1763153  83.2566071
  86.8692398  19.9649906  87.6316071  87.1050186  19.3289051  86.9562988
  86.3129349  19.4757252  88.2377167  79.8406601   6.4873552  46.4274292
  80.5501099   6.6346731  45.8019562  79.9606857   5.5829673  46.7170982
  72.5602646  36.2724953  22.8196373  73.4952927  36.2570457  22.6153774
  72.1833038  36.8674469  22.1714382  60.6726646  34.5359306  49.2088585
  60.9180756  34.5532722  48.2838135  60.1505280  33.7392502  49.3032379
  58.5234756  60.2602692  24.7905884  58.0886574  60.4613533  25.6192799
  58.9216766  61.0882263  24.5219688  11.8696728  54.1001167  69.1075134
  11.5198650  54.2649155  69.9831314  11.1931448  53.5805855  68.6731949
  59.0818520  30.2036362  29.0402851  59.0984344  30.6468601  29.8885250
  60.0005875  30.0117626  28.8523026  62.8719139  13.3617821  40.0234222
  63.5657616  13.3040991  40.6802940  62.0665703  13.4513912  40.5329552
  82.4323730  55.9919090  76.2925491  82.6973419  56.0938568  75.3784180
  82.1712189  56.8713417  76.5657272  70.1383667   4.0229397  71.3632050
  69.5996857   4.8048987  71.4839859  69.7030411   3.3491869  71.8854904
  54.1175613  13.8002071  23.7239838  54.9281006  13.6811523  23.2289257
  54.4067726  13.9572868  24.6228237  29.4055462   8.8386040  69.5301285
  29.1076469   7.9325962  69.4486618  28.6648941   9.2997818  69.9238052
  28.9847412  67.3831787  64.6357880  28.7690029  67.2180252  65.5536194
  29.6338310  66.7141724  64.4181976  67.0671921  49.6168709  46.5295296
  67.9351730  49.7146225  46.1379967  66.5376282  49.2150917  45.8407860
  46.5864906  26.8802185  43.2364120  46.5595665  27.1014709  44.1673012
  46.1986237  27.6380348  42.7987976  65.0524979  11.0195084  28.9959335
  65.8504868  10.9025831  29.5114632  64.4764557  10.3106241  29.2821007
  64.5622101  20.7829971  68.2887421  63.7088051  20.8869839  67.8678741
  65.1714401  21.2438869  67.7119827  18.9875183  64.0918884  27.7393379
  18.1470356  64.5122375  27.5573368  19.5929451  64.4847946  27.1105976
  32.7201157  32.5234528   7.4832268  32.2575951  32.5275726   8.3212547
  33.0992012  33.3997002   7.4145718  39.8634071  69.8613815  53.6465759
  40.2227745  70.6096420  53.1699333  39.0465088  70.1877136  54.0239601
  23.0724525  37.5126038  73.1161880  22.3496361  37.1495018  73.6279755
  23.8024540  37.5608215  73.7334518  58.8214569  12.2179708  38.5744019
  58.1936760  12.8931532  38.3170052  59.6714211  12.6571474  38.5440826
  67.6018295  30.7494774  22.5042400  68.1363754  30.2272758  23.1024055
  66.7710342  30.8660183  22.9651394  72.8195343  30.0282478  12.4098177
  73.2991333  30.3537445  13.1715746  73.2607574  29.2103214  12.1805658
  21.0359688   4.4898500  50.2343292  20.5852795   3.8439538  49.6903381
  21.6742001   3.9795873  50.7328529  10.5743647  44.1738510  19.8511162
   9.7400017  43.7064629  19.8108845  11.0688543  43.7227249  20.5353642
   3.7872617   3.6664374  21.9612961   2.8563788   3.4722350  21.8518677
   3.8183942   4.2878819  22.6886673  53.4137001  14.6487160   1.7366445
  54.0874748  14.8283463   2.3923826  52.9424553  15.4767570   1.6443992
  82.4651642  20.8206902  66.4042969  82.9437332  20.1868286  66.9385529
  83.1453934  21.3806667  66.0302200  58.3134727  28.1180229  41.6201248
  58.9556808  27.6160812  41.1182671  58.2982864  28.9771156  41.1982727
  85.8093796   4.7241712  28.5327129  85.7033920   4.9992027  27.6220226
  86.3006744   3.9043832  28.4797001   4.3745217  39.4370651  10.2631378
   3.6977422  39.1305885   9.6595879   3.8965917  39.9362564  10.9254255
  64.9536514  29.7377186  16.5772419  65.8011398  29.3852024  16.8487644
  64.3656082  28.9825191  16.5878563  75.6644135  62.3796768  41.6567917
  74.9592819  61.9211121  42.1136627  75.3489227  62.4687767  40.7574806
  25.1869278  45.8401947  67.4608383  24.4359322  45.5471992  66.9447098
  25.7096310  45.0493507  67.5934219  37.3940239  17.2890148  65.9593735
  38.3135262  17.2613220  66.2239151  37.2894325  18.1459885  65.5459900
  74.5274429  45.9294128  41.1478157  73.9595108  45.6120300  40.4457092
  75.3485031  46.1525764  40.7093124  41.8616638   6.4956412   5.3001223
  41.4708061   6.2457175   4.4628644  42.7928238   6.2988038   5.1980076
  43.5717735  25.9461327  85.1727066  43.6405754  24.9924450  85.1282272
  42.9424515  26.1083508  85.8754654  15.5868559  49.3388481  26.0319595
  16.3860950  49.2819557  25.5083065  14.9530067  49.7662086  25.4559097
  40.1400909  44.8346367  73.7300415  39.3115463  44.5937614  73.3156433
  40.5970421  44.0026283  73.8532715   7.0512376  58.7231064  58.2232513
   6.9169793  59.5341492  57.7329292   7.9480634  58.4622459  58.0137634
   8.8659859  44.7074852  83.8219223   9.3019476  45.0162888  83.0276871
   8.3623104  43.9448013  83.5375748  64.1597137  36.6216621  29.3568764
  63.6238441  36.4511833  28.5822735  63.5344925  36.6395264  30.0814495
   3.5038199  18.9331589  58.4865456   2.7679703  18.5369339  58.9531975
   3.5615838  19.8208179  58.8400383   1.1271505  18.2353935  60.0895920
   1.2166759  19.0009308  60.6571960   0.6037197  17.6181507  60.6007309
  73.1268616  24.6428261  80.3208084  73.1018982  24.6899033  81.2765198
  73.9603119  24.2153168  80.1237564  33.1453667  66.9000092  15.3421793
  33.5222511  67.7286911  15.6379309  33.3543587  66.2792053  16.0401459
  69.6664963  16.5889587  49.7967339  68.7820663  16.8866673  49.5836830
  69.6078339  16.2952080  50.7058563  28.3571053   4.2684736  84.3273392
  27.4035053   4.1868405  84.3420334  28.6449585   3.8614213  85.1444550
  86.2582092  32.2275124  31.8429623  87.1488113  32.1108017  31.5121384
  85.7197723  32.3132477  31.0562172  65.1342392  68.2472382  31.5431824
  65.0596771  68.2805481  30.5894737  64.3309402  68.6596375  31.8607807
   9.6059771  31.0080070  78.3190231   8.9490547  30.8894062  79.0050430
   9.5569868  31.9382267  78.0987396  48.8868523   7.2727981  49.1309357
  48.7674217   8.1275063  49.5449905  48.9101295   7.4622159  48.1929512
  53.5244026   2.7715862  21.9519787  53.1123466   2.7362716  22.8152237
  52.9069176   3.2647152  21.4118233  30.9787407   3.2872128   8.8093605
  31.5847511   3.6074815   8.1412210  30.4682064   2.6103666   8.3649893
  84.2885132  13.0168352  84.3776550  83.6384735  13.7194347  84.3715973
  84.5429535  12.9180212  83.4601974   7.4952464  29.4882679  31.0568466
   7.6264219  30.1457996  31.7399826   8.2109585  29.6384659  30.4392471
  56.2943306  60.1003532  54.2285233  56.9915810  60.0395164  53.5755463
  55.7747650  60.8560982  53.9544182  57.1929855  34.0999069  31.8463879
  57.2171974  33.1460876  31.7697468  56.5130653  34.2706375  32.4981499
  75.0095139  23.7419796  11.7332916  75.1315231  22.8027306  11.5948811
  74.2623138  23.8012829  12.3286133  37.0528145  66.0603561  22.9003086
  36.4481735  66.0668488  22.1582851  37.6470642  66.7915115  22.7314472
  33.4994850  31.3066730  83.6903763  32.9441338  30.8276711  84.3055038
  33.0130081  31.2908707  82.8661652  45.5819321  14.0618057   9.9993181
  44.7368240  14.5072527   9.9393044  45.5022888  13.3159256   9.4047165
  44.2497444  44.3417130   3.2044146  43.4967270  44.1601105   2.6420836
  44.2525177  43.6256752   3.8396385  76.2747650  32.9927292  49.1954842
  76.9688416  32.7158279  48.5973091  75.4732285  32.9349632  48.6754456
  81.4558105  33.5752258  13.9408417  81.3609543  33.7723427  14.8727112
  81.6767426  34.4156837  13.5395279  16.5633755  48.5413742  33.5592461
  16.4907551  47.6053543  33.3726349  15.6578875  48.8499756  33.5922585
   9.7229958  56.2200165  41.9683876   9.9338236  56.4901772  41.0746346
  10.3744707  56.6626205  42.5123672  40.8325195  49.7426414  76.9338303
  40.9446220  50.4722061  76.3244095  40.4832535  50.1459274  77.7285690
  30.1029816  49.7423973  72.9093857  30.4317856  49.5345345  73.7839813
  29.1598740  49.8546257  73.0284882  69.9536591  28.0884628  59.5832176
  69.0940628  28.3359070  59.2424889  70.5671387  28.6637802  59.1261826
  61.0086937   3.7707453  56.5221977  60.6635323   4.4841876  57.0589409
  60.5650101   2.9883626  56.8496933  82.0374222  54.9567070  31.0499878
  82.4517288  55.3804131  31.8016891  81.7200928  54.1205788  31.3911915
  56.9572144  54.5031471  47.0445938  57.1802330  55.2677536  47.5755119
  57.7605247  54.3024788  46.5643272  63.4977989  27.2156925   5.7765727
  63.3823280  27.6334896   6.6300039  62.9488373  27.7279549   5.1828880
  69.7096024  43.4675865  54.0607109  69.9188232  42.9295692  53.2971687
  70.4125900  43.2830734  54.6836090  47.7329903  48.1629181   6.6536436
  47.7411690  47.4276352   7.2664428  47.4017410  48.8993683   7.1675944
  43.3491974  18.8007393  82.8529739  43.6071358  19.7110958  82.9977112
  43.1401062  18.4692974  83.7262726   3.0373068  65.6206741  82.7652893
   3.5681148  66.4160309  82.7218399   3.0443850  65.3782806  83.6912613
  25.8127689  36.2522202  72.7136154  25.1445255  35.7721329  72.2245407
  26.4847240  36.4568748  72.0633698  54.5169334  35.8830223  80.0607758
  54.0675087  36.1785202  79.2689896  53.8134155  35.7220154  80.6895599
  40.5161858  64.2612915  70.2579041  41.3477097  63.8500290  70.4938278
  40.4344711  64.1130829  69.3157806  50.8152504  35.6452370  45.4152908
  50.5134964  35.1424065  44.6587639  51.7652397  35.6925430  45.3079720
   1.5406671  28.6432228   2.7525125   1.8420715  29.5442657   2.6362729
   1.7681601  28.2067757   1.9315419  35.0322914   5.3534298  88.2180023
  35.6564293   4.6379662  88.0963745  35.1869011   5.9352512  87.4738159
  64.3121948  38.6869850  18.6521454  63.5727386  39.0876236  18.1950569
  64.8789597  39.4232597  18.8821678  14.7895327  47.2741165  69.9633408
  15.4086866  46.5655098  69.7879791  15.3359489  48.0563927  70.0388947
  41.1523743  65.1439362  77.8190994  40.8257523  65.9822388  77.4923019
  40.5467911  64.4948959  77.4609833  72.9549789  25.1640511  40.8749123
  73.3068619  25.8460159  41.4470444  73.5283890  24.4112473  41.0188560
  31.4525242  55.8740273   2.4273987  30.5542583  56.0426750   2.1429524
  31.8753567  55.4799118   1.6644328   7.6659923   9.7179308  84.4833984
   6.9555411   9.3759546  85.0261230   8.3767176   9.0862513  84.5933228
  72.6189651  25.3599682  70.6230698  72.9194489  25.0269146  71.4686508
  72.7148972  26.3098526  70.6919861  34.2714729  47.8188248  26.6165600
  34.5235710  47.2110138  25.9214020  35.0931091  48.2303391  26.8845119
  30.1208992  23.1672421  10.9076653  30.3428078  23.9971886  11.3297758
  30.6614037  22.5177574  11.3573942  52.7278633  12.8860054  14.7479486
  52.2773361  13.6680994  14.4292240  53.6545830  13.1256266  14.7452946
  21.7444553  24.1403313  87.4316330  20.8759079  23.7601089  87.5631256
  21.6956730  24.5572186  86.5713654  77.2101288  50.6731949  74.2950668
  77.3632126  51.5906563  74.0690918  76.8600693  50.2843018  73.4935379
  86.1436310  52.3016815  33.1313705  85.7295761  52.6636581  33.9147987
  86.4513779  53.0679855  32.6473160  73.4286728  11.3217888  60.5274734
  73.0839844  10.5604105  60.0608597  73.0276031  11.2726755  61.3952065
   0.7775520  42.9082756  10.2354565   0.3863463  43.2526970  11.0383043
   1.0656818  43.6855431   9.7568474  65.3225403  67.9366837   9.1724520
  65.0747070  67.5966339  10.0322075  65.0733261  67.2444229   8.5601578
  26.5490417  18.0097370   5.8416810  25.9613743  18.5921593   5.3603654
  27.1668148  17.6943264   5.1820574  57.2959633   0.7898097  49.1979828
  57.2423782   0.5889356  50.1323318  57.1140213   1.7280000  49.1438789
  16.5804195  57.7668419  34.4427948  16.8463898  56.9150810  34.7891998
  16.7045536  58.3720932  35.1738853  77.8060608  25.7940826  37.4740143
  78.3993301  26.4428921  37.0954399  78.3624344  25.2661400  38.0466919
   8.1156826  49.5488091  56.1149330   7.4350104  48.8858871  55.9989548
   8.9182549  49.0461731  56.2544518  68.7541351  59.7988243  79.3948593
  69.7098312  59.7990036  79.4485474  68.5489807  60.4980736  78.7742233
  71.1666412  10.3202934  43.2361107  70.5957031  11.0847187  43.1591949
  70.7761307   9.7993126  43.9377594  66.2601318  33.7583847  41.5905609
  66.7574844  34.0356293  40.8211403  66.0298080  34.5748825  42.0338554
  76.7659607  47.8970604  52.6115112  76.8489990  46.9720840  52.8433609
  76.0148315  48.2046585  53.1188698  64.0990067  29.1906872   8.4779387
  64.9264603  29.1198788   8.0019865  63.6679344  29.9554482   8.0964260
  61.2575874  50.3184013  73.9230423  61.4020996  50.3441582  72.9771652
  61.2417183  51.2380524  74.1880341  63.0924454  51.4204979  21.4925537
  63.4854927  52.2580719  21.7379456  62.2082558  51.4547462  21.8576088
  82.7049484  55.6833611   0.3369626  81.8316116  55.8839455   0.6735222
  83.0656891  56.5334854   0.0851976  49.8473091  62.1883430  80.3751221
  49.8721008  62.5709991  79.4980850  49.3522339  61.3761292  80.2681580
  54.8763771  44.8898621  57.7970161  54.3683968  45.5339432  57.3037148
  54.8719215  44.1077499  57.2451859  26.0813274  17.7655029   2.3168604
  26.8298264  18.3501530   2.4358745  25.3281021  18.2778645   2.6107469
  59.2258987   9.5447550  77.9147491  59.9622269   9.7711134  78.4829254
  59.5245628   8.7746868  77.4309845  48.4062691   1.8949850  59.7081451
  48.2866669   0.9521545  59.8221550  48.8431969   1.9802529  58.8607674
  56.7631264  16.5582619   6.9208031  57.2859230  16.4121571   6.1324067
  55.8712273  16.6840038   6.5968628   3.3937790  40.8857384  15.0069695
   2.6270652  40.7603722  14.4478045   4.1058154  41.0793190  14.3972464
  17.7251568  -0.1320888  12.3199081  16.8324642  -0.1119392  12.6647682
  17.7199802   0.5038964  11.6045561  63.2408371  28.4331627  56.8150177
  62.3031006  28.3512917  56.6413002  63.6187057  28.6900711  55.9739189
   2.4280791  50.7691841  87.0795593   2.6354654  50.1411209  86.3876343
   2.1034493  51.5399475  86.6139679  49.9821930   9.0436773  84.7726593
  50.6006508   9.7285557  85.0269852  49.5725365   9.3755360  83.9737320
  46.5879211   3.8462555  85.8274231  46.6970634   4.5601678  85.1992188
  46.1200943   3.1679790  85.3402786  75.6996613  44.9756432   7.0174332
  74.8143768  44.8848610   6.6649232  75.5789871  45.4206963   7.8562398
  33.7147102  69.1915131  11.3588047  32.8804626  69.3648682  11.7949343
  34.0407639  68.3931351  11.7741585  11.5366201  11.1690989  73.3454361
  11.9842596  11.9470806  73.0128784  11.4817133  10.5832720  72.5904388
   7.8336277  36.2909164   1.5102699   7.4551973  35.6959915   0.8628988
   8.4597902  35.7519569   1.9936706  47.3070717  54.7740097  65.8861237
  48.0093498  54.9194946  66.5200577  47.3212776  55.5529366  65.3299713
  32.4941254  49.8181152  12.3691998  33.2594528  50.1137695  12.8622446
  32.6805038  50.0690002  11.4644613  29.9066124  28.2747765   2.3430994
  30.1493454  27.4058800   2.6629908  29.2336903  28.5754852   2.9538226
  85.1467743  53.0921707  58.4094009  85.0820312  52.8836021  57.4774437
  85.8466797  52.5253868  58.7336235  60.5588074  62.4531708  58.4519768
  61.2800713  62.2536354  57.8551521  60.1171570  61.6141014  58.5829010
  65.6450577  23.3885345  79.4070511  66.4071426  22.8555813  79.6338120
  65.6783142  23.4603748  78.4531250  57.3515778  19.8734207  19.9721394
  57.3721581  19.2365093  20.6863880  57.2753639  20.7214222  20.4095364
  13.4886932  54.6736946  67.1754990  14.3797140  54.3284912  67.2316055
  13.0057573  54.2015495  67.8537903  48.4365768  23.6473389  10.5623150
  47.6664200  23.6903725   9.9955339  48.0791054  23.5585938  11.4458141
  28.4721870  59.6985321  44.1215134  28.3161354  60.3643303  43.4517441
  29.3078346  59.9473763  44.5164833   2.2951102  37.1134872  12.9165058
   1.8880353  37.9647408  13.0774002   1.8012686  36.7466125  12.1831875
  60.9249458  66.4968338  83.0404434  60.8960457  65.6333084  83.4524155
  60.0144539  66.6836624  82.8116913  30.9312420  71.0806885  28.7054291
  30.4570122  70.4151306  28.2070637  30.9411640  70.7464828  29.6023350
  24.0072365   0.8794659  72.2003326  23.7524891   0.9698769  73.1185684
  24.9449806   0.6896847  72.2294998  66.6814041  62.3530884  48.3125877
  67.3744049  61.8564224  48.7476845  65.8978195  62.1778259  48.8336563
  33.9214096   4.2492533   3.5195799  34.7788963   4.1309299   3.9281733
  33.3024979   3.8830519   4.1513047  83.2906189   3.6600523  79.3380737
  83.2141190   4.6053658  79.4675369  84.1336288   3.5458460  78.8992996
   1.8698351  71.4836273  50.8877869   1.9513360  71.1591797  49.9909439
   1.9243685  70.6983871  51.4324455  45.3020325  57.8115959  50.7644920
  45.2923775  57.7998734  49.8074112  44.8144989  57.0280151  51.0185471
  57.7373238  33.9659691  80.9159393  58.6894646  33.8934937  80.9823151
  57.4935112  34.5691948  81.6180115  50.0016861  54.2158699  47.2007217
  49.3504410  54.1837349  46.4999504  50.3009262  53.3111687  47.2912712
  31.4622841  38.3061218  83.7649002  30.6136894  38.1665115  83.3446274
  31.2472343  38.6697235  84.6238403   6.7254710  23.7380238   1.4772360
   5.8802490  23.2998714   1.3779650   6.6626692  24.5098839   0.9146351
  51.4286156  50.1951599  83.7310410  50.9871712  49.4896278  83.2582016
  51.8580132  50.7095490  83.0474854  28.8309612  14.8697166   3.0655572
  27.8961964  14.8460360   2.8608994  29.2338886  14.2986841   2.4114904
  39.9590492  34.4189873  86.8956985  40.2888756  35.2089462  86.4674301
  39.2106361  34.1519356  86.3620453  18.3089409  62.1709290  60.3226204
  17.8485203  61.3571320  60.5274963  18.6805325  62.4528465  61.1584892
  43.4057884  40.8330536  83.0244598  44.1273994  40.6977081  82.4103012
  43.8252029  41.1693497  83.8164368  82.9696579  49.0685463  76.5003281
  82.9823608  48.1263161  76.6684799  83.2512817  49.1530952  75.5894089
  33.8164215  51.7258797  64.2962189  34.5121803  52.3731842  64.4108887
  34.1441612  50.9414902  64.7361603  11.0137205   3.3925061  17.1733952
  11.5084171   4.1740470  17.4197693  11.3793716   2.6958537  17.7185612
  64.4188461  50.7955589  81.9690094  65.2186127  50.8385773  82.4931793
  64.5872955  50.1016426  81.3315659  41.9818001  40.3513527  71.8927536
  42.4710503  41.0648766  72.3023300  41.2675171  40.7868347  71.4275818
  56.7080002  28.8529530  27.9863644  57.3584518  28.5444317  28.6172028
  56.8242226  29.8028870  27.9676876  -0.1382288  51.9521103  65.3574295
  -0.1256939  52.2181244  64.4380188   0.7794206  51.9823647  65.6280518
  77.5955353  57.1088104  32.8143921  78.1831055  57.1924057  32.0633888
  77.2341003  56.2257195  32.7385864  54.3260460  24.9905167   8.1827154
  54.2180786  24.1020927   8.5222435  55.2037086  24.9959278   7.8007317
   3.2925606  69.2650375  42.4661636   3.8309252  69.9923325  42.1540146
   2.5139570  69.6837006  42.8332253  76.4674606  11.8571873  25.7505741
  75.9595490  12.3284578  26.4110031  76.7709122  12.5385160  25.1506252
  84.3488388  26.2090683   9.9294662  84.4334564  26.3551006  10.8716688
  85.1598282  26.5576401   9.5592861   2.0823352   4.2591476  13.9913349
   2.9182479   4.0318670  14.3985510   1.4430596   4.1864719  14.7000494
  62.6122818  30.1753826  12.8711491  62.3358688  30.0045013  13.7714968
  63.4878731  29.7930641  12.8127642  13.7038593  54.5312767  36.1809235
  14.1332922  53.7656670  35.7992706  13.3619184  55.0140419  35.4284325
  54.1463242  69.4832306  63.1314354  54.4167747  69.5196609  64.0489120
  53.2644653  69.8554306  63.1267242  69.5875320  65.7263412  37.0697556
  69.8424301  64.8705673  36.7249107  69.8390808  65.6971893  37.9928551
  60.5118065  64.2529297   0.1944137  61.3566628  63.8685913  -0.0395420
  60.5845184  65.1700821  -0.0697467   4.8558087  25.8070068  29.4943447
   4.8066559  26.5753193  30.0631275   4.1491909  25.2377720  29.7991314
  79.6072159  18.3676014  38.2707100  79.5094376  18.2560539  39.2163467
  78.7343445  18.6173592  37.9674797  33.0887642  45.9064407   0.4611596
  32.5346413  46.6220551   0.7727256  32.7541237  45.7076912  -0.4133374
  20.2866249  47.0955734  22.8852577  21.0097885  47.5689468  22.4739380
  20.5051842  47.0870934  23.8171329   5.8467045  53.2832909  23.1380634
   4.9082355  53.4603004  23.2026863   6.2560654  54.1480713  23.1665363
  26.3545361   0.7178990  61.4892540  25.8291912   1.4607137  61.7866936
  25.9392967  -0.0452699  61.8909760  80.6041718  32.0389214  70.9955444
  80.7830658  32.7984657  71.5499115  81.4676514  31.7470436  70.7032471
  68.4089890  49.0274506  20.3993549  69.2991714  48.7741280  20.1551552
  68.2990341  49.9031944  20.0289230  48.1387711  17.8170700  44.1684875
  48.9874001  17.8302650  43.7258949  48.3034973  17.3514919  44.9884453
  83.3058472  19.1971302   4.2926073  83.3323288  18.3364697   3.8745227
  83.1247940  19.0104465   5.2138023  45.6194000   6.0142808  76.0316467
  45.7416382   6.2469826  76.9520493  45.3462906   6.8303490  75.6125107
  24.6978130  64.3804626  87.7871780  24.3322544  65.0218430  87.1778946
  24.4659500  63.5320473  87.4094620  84.6198196  28.7030792  52.6624527
  84.5678024  29.5623779  53.0809402  84.0395126  28.1476421  53.1829948
  64.3220825  70.5721283  51.2683868  64.0137024  69.6749115  51.1413383
  64.5572128  70.6155930  52.1952400  38.9409142  47.6582870  60.3976898
  38.4150734  46.9229584  60.7123566  39.2431946  47.3834763  59.5320473
  21.2494831  54.1266632  63.7505417  21.7298679  53.7166672  63.0312576
  21.8660870  54.7580528  64.1211853  11.9393883  21.7500267  88.4355087
  12.1332779  21.7293320  89.3726425  12.7033138  22.1718102  88.0421295
  79.2765045  70.3562698  66.0652390  79.9980621  70.4609528  65.4450531
  79.5585556  70.8360214  66.8440323  35.4269676  57.6764107  65.0073318
  35.1076660  56.8457603  64.6547699  35.7344360  58.1597137  64.2404480
  63.6726723   7.3218837  88.3715897  62.7780800   7.4571643  88.0591202
  63.5936050   7.3074346  89.3254089  71.0647430  52.0883141  35.5353584
  70.3897400  51.9851761  36.2061539  71.1818390  53.0350876  35.4569893
  15.0241213  12.5307980  85.2428513  15.3634701  11.8559580  85.8307800
  14.1462975  12.2273941  85.0113220  70.5928726  25.3437614  24.6645432
  70.9861984  25.3199787  23.7922134  70.8583374  26.1902657  25.0239735
  14.3238087   1.9999201  26.9838638  13.6854486   1.3972239  27.3652897
  15.1214590   1.8580800  27.4936352   4.5218558  10.1579676  78.1329498
   4.0444012   9.3580036  77.9131241   3.8740456  10.7112846  78.5693207
  23.0160503  12.4389219  77.9729538  23.1944141  13.1601496  77.3694229
  23.5976486  12.5991144  78.7161331   0.6226726  27.8975697  65.1346588
   0.5507907  27.1376781  65.7122650   1.5143691  28.2180443  65.2703247
  68.4008102  44.7786789  56.6364784  68.5136719  44.1908531  55.8895149
  67.5385742  45.1724319  56.5032578  79.6460724  26.5058136  81.7781906
  80.3469467  26.5210514  82.4299316  79.2929077  27.3954506  81.7854156
  62.6809311  18.6157932   2.4715271  63.2131081  19.4014702   2.5969479
  62.0889549  18.6049023   3.2236440  26.2970505  50.2694664  34.1328125
  26.5168324  50.3261185  33.2029076  25.3946896  50.5844650  34.1852722
  37.4475937  68.8567047  15.3440590  37.8910103  68.1367950  15.7927694
  37.6095314  68.6955338  14.4145250  58.4540367  66.0287781  13.0335112
  59.1037560  65.8171234  13.7038116  58.8378296  65.7068863  12.2178383
  15.1196785  38.4514236  85.7184067  14.7826138  38.8345490  86.5282364
  14.5140104  37.7369080  85.5212479  68.5153427  48.9617767  42.4124680
  68.6402969  49.5305786  43.1721268  69.3796310  48.9146347  42.0038033
  84.5882034  53.5141411  53.5325851  85.1761093  54.1470070  53.9449883
  85.1059418  53.1330605  52.8233910  25.1254292  41.3822441  29.6242847
  24.4572372  40.6968613  29.6240883  24.7556553  42.0774002  29.0799904
  10.6829100  35.9294319  37.4321213   9.9221239  35.5754509  36.9715385
  11.4259529  35.4407883  37.0780754  62.5297203  37.6506767  41.5964165
  62.0870628  37.7659683  40.7555885  63.3948555  38.0392685  41.4669037
  34.1378822  70.5555344  15.4902906  33.3373489  71.0086899  15.2256632
  34.8459625  71.1271515  15.1934547  67.6615067  31.2869186  27.0401688
  67.7342911  31.7372837  27.8816586  66.9058304  31.6931152  26.6156864
  36.3439369  37.2261276  15.3951082  36.2927246  36.2856369  15.2245560
  37.1880226  37.4903030  15.0290976   8.4730225  30.5669479  10.5008402
   8.5447826  29.7249222  10.0513134   8.9781618  31.1721382   9.9578753
  50.9986496  40.3598633  41.9789925  50.2488365  40.0248566  42.4707031
  51.7520943  40.1859360  42.5431786  61.5596504  46.0138474  33.0330658
  61.0491638  45.9963951  33.8425903  61.0268669  45.5281334  32.4034157
  53.3114815  65.7769318  53.5335579  53.1764259  66.6334076  53.9390793
  52.9688568  65.1524658  54.1729889  28.7292786  29.2086544   0.2915229
  29.2239189  28.8345661   1.0206467  28.8198528  28.5674210  -0.4133511
  83.2472992  25.5767212  85.8537445  82.6873169  24.8820248  85.5072632
  83.3541946  25.3587723  86.7796478   9.3562698  31.0645561  28.7393723
  10.1120968  30.7678986  28.2324696   8.6094751  30.6199074  28.3383522
  71.7031631   0.5075259  22.3023891  71.8229065   1.4446592  22.4562511
  71.7160950   0.1177140  23.1765232   7.0954089  45.4926682  61.1354218
   7.1593075  45.9430389  61.9776306   7.7433028  44.7901573  61.1897202
  59.8298416   4.2749381  59.1879158  58.9825516   4.6827507  59.3668404
  60.4672699   4.8534598  59.6065216  67.4124908  53.4382057  84.0274200
  66.5758667  53.9024734  84.0549927  67.9415512  53.9348526  83.4031906
  21.0620708  12.8484735  25.3007488  21.7686138  13.4897575  25.2246838
  21.4032841  12.1863403  25.9019012  16.3536320  57.0396996  19.5065079
  15.4802074  57.3056641  19.2190685  16.9245148  57.2555504  18.7691231
  73.2590866  33.5707512  53.1793671  72.6885147  33.3888969  52.4326324
  73.0854568  32.8568535  53.7929077  47.4608459  20.2569504  19.8508492
  47.2202644  20.2047863  20.7758541  47.8171234  21.1390972  19.7454109
  41.3488503  51.5478096  89.0139389  41.1089745  51.9573288  88.1826859
  40.6138039  51.7395554  89.5963211  64.7487106  23.8202229   9.6318865
  65.3103714  23.1458015  10.0138788  64.6623001  23.5675621   8.7126865
  80.1191864  64.6111603  57.5937996  80.1349487  65.2170486  58.3346596
  79.3817520  64.0288162  57.7762909  84.6580887  34.1971169   3.6597784
  85.1194916  34.5813408   4.4052377  85.1196899  33.3759880   3.4897554
  72.2322159  58.4920883  60.3015709  72.0188828  59.1641960  59.6542740
  71.4508514  58.4323463  60.8512383   7.5105591  51.5422096  29.6632137
   7.6007566  51.4097252  28.7195263   8.3837872  51.3674355  30.0141544
   4.6066937  70.9097214  38.0117302   5.5093942  71.0722733  38.2854805
   4.3309035  70.1549683  38.5318451  51.1075935  13.6726761  65.1075821
  51.7773018  14.0044231  64.5095291  51.0320854  12.7433891  64.8908844
  26.6651783  35.6071663   1.5321435  25.9090996  36.1644173   1.7166551
  26.5151329  35.2866516   0.6427678  13.0817232  42.8576546  26.3641262
  13.9552031  42.8119240  26.7529373  12.8253374  41.9434319  26.2429295
  55.9626274  71.6133652  81.7583389  56.3114471  72.2399902  81.1243896
  56.0473671  70.7633591  81.3264313  41.5306473   1.9677677  15.5436974
  42.1626320   1.3764182  15.9525185  41.5242805   1.7111493  14.6215601
  42.4692574  68.3007812  80.4658203  41.8379478  67.6999664  80.8616791
  43.3175392  67.8769226  80.5961761  56.1520271  11.3499336  31.7413616
  56.3908730  10.4970522  31.3783493  56.2935104  11.2573547  32.6835098
  64.2679749  64.4920731  72.2589111  63.4883156  65.0099564  72.4593048
  63.9482651  63.5919647  72.1971436  65.3913040  43.5808144  15.0923443
  64.9074249  43.1441154  15.7933359  65.7414627  42.8654900  14.5613699
   1.5584900  27.7217655  10.4721947   1.4702133  26.7785015  10.6089029
   2.3907580  27.9471664  10.8878345   5.8891840  47.4411049  26.0163898
   5.3408217  47.8246613  25.3319817   6.7858868  47.5909576  25.7168903
  29.5063324   0.2207754  71.2393494  29.2251568   1.1120209  71.4463577
  30.4591064   0.2434263  71.3284683  82.1697159  41.4720383  82.1431808
  82.3002930  41.4873695  81.1950531  82.1254883  40.5416718  82.3638458
  72.1705551  39.6456871  81.1769180  71.3692398  40.1398773  81.0040207
  72.3194427  39.1430092  80.3760529  57.0885391  55.7262878  19.9916630
  56.6411324  54.9622116  20.3553181  57.7504539  55.9501228  20.6458817
  85.3274155  32.0461082  17.7964935  86.1864929  32.3578186  18.0811920
  85.3900452  32.0097656  16.8420353  61.0995522   6.3666158  67.0299759
  60.2308731   6.3041835  66.6328201  61.6422119   5.7703328  66.5140305
  36.2664986  55.2584114  59.2236977  36.7943077  55.7318878  59.8667145
  35.7660408  54.6282120  59.7419891  14.2348738  22.6914101  87.6201096
  14.5467196  23.0386066  86.7843857  15.0133619  22.6716290  88.1767044
   1.8428826   9.5974808   3.5589662   2.0409434   9.7052355   2.6287012
   2.3351450  10.2954750   3.9910696   3.4162934  69.9215164  18.3180332
   4.1596589  69.6572571  18.8600712   3.0174487  69.0969620  18.0400620
  60.3238678  44.8128929  11.4422798  60.2048492  43.8787384  11.2707634
  59.6744957  45.0175171  12.1150942  67.0483093  40.1072998  46.0071945
  67.4576416  40.7300606  46.6078987  67.6590347  40.0462418  45.2726746
  80.0268555  34.9053192  66.9491043  79.5216522  34.6828041  67.7310867
  80.8950958  34.5367355  67.1119690  23.2929859  46.5252571  13.5112629
  23.9279919  45.8871651  13.8365927  22.8167973  46.8086014  14.2917709
   0.8872531  31.0890770  35.0152817   1.7762898  30.8890324  34.7223167
   0.3247642  30.5507126  34.4584999  30.1956120  58.6585541  62.9761238
  29.6862297  59.4543114  62.8227158  30.5974178  58.7931213  63.8344193
  64.4249268  56.3114204  79.1869736  63.7080231  56.7722626  78.7511978
  64.3694382  56.5915337  80.1005859   4.5047126  22.6373119   0.7353833
   4.2945404  22.7904358  -0.1858184   3.8595016  21.9919205   1.0241814
  38.6415176  22.8863277   2.9684091  38.9836693  23.2276440   2.1421723
  39.2543640  23.2047138   3.6311939  79.4245148  24.6212578  46.3066559
  79.1978455  24.3939819  45.4048805  79.3538284  23.7961082  46.7866211
  24.6842480  19.5976753   4.7219386  24.3490829  19.6585941   3.8274081
  23.9025860  19.4895744   5.2637439  46.8019257  32.1724815  14.2580738
  46.2436638  32.6079483  13.6139116  46.6905785  32.6864014  15.0578985
  58.6384201  50.1129303  87.2204132  58.9350052  49.3335953  86.7504044
  58.3274002  50.7028542  86.5337601  80.4481049  70.9921265  49.5393906
  80.2655334  70.1861191  50.0223465  79.6682968  71.1311951  49.0019875
  68.3822021  55.0639687  69.4739990  68.7743454  54.3138962  69.9210434
  68.0924683  55.6398468  70.1815643  58.4323807  35.5408363   9.9482689
  57.7101250  35.0295525  10.3131847  59.1886597  34.9561691   9.9976931
  42.8484306  67.6493454  42.7822609  42.5904999  67.4136124  41.8911209
  43.6627922  68.1405716  42.6738739  43.8354568   5.1228261  70.6260452
  44.7031403   5.5092783  70.5076523  44.0073090   4.1979651  70.8030548
   8.2671537  45.9147873  58.4287262   8.3232584  45.9350281  59.3840637
   9.1082087  45.5549545  58.1469803  29.5097733  70.3052139  82.2763824
  29.8552876  69.4251404  82.4257660  28.7982693  70.3940201  82.9104996
  80.6633453  55.6502266  37.5166359  79.9674911  55.9159126  38.1178322
  80.8743744  54.7533073  37.7759285   9.3300066  19.5352020  74.3026886
   9.0884247  19.2074547  75.1689682   9.2659492  18.7703094  73.7307892
  29.0613842  66.4435196  25.0945435  29.9081917  66.0802307  24.8353748
  28.5890827  66.5616226  24.2703991  86.5658112  41.9662933  88.0561218
  86.2030487  42.6190567  87.4573441  85.8158951  41.4253807  88.3036499
  79.4272690  14.1485853  75.0984573  79.1469269  14.1271152  74.1834793
  80.2931747  14.5558348  75.0741577   0.6048905  32.5293503  26.4479885
   0.1304847  31.7122574  26.6013775  -0.0519694  33.1230164  26.0842190
  47.6970482  26.9141159  32.2658043  46.9164124  27.2088184  32.7348404
  48.4140167  27.0491543  32.8854446  44.3206825  59.1810379  74.2700348
  44.7959633  58.3530121  74.2014008  43.6106529  58.9993324  74.8857269
  40.8836975  61.4173813  49.8778114  41.3375397  62.2157593  50.1477203
  41.5745163  60.8570900  49.5241470  19.5873814  13.3828259  82.9233170
  18.9078350  14.0386848  83.0791931  19.4616394  12.7376184  83.6191101
   1.4966108   4.5899415   5.0405416   2.1018839   4.8865409   4.3609056
   0.6720517   4.4400072   4.5780983   9.8905687  59.4269524  15.5877075
   9.4011593  60.1148148  16.0388813   9.9322891  59.7203331  14.6775322
  63.1371346  38.0439339  49.4818954  62.4975090  38.7441216  49.3520775
  62.7882195  37.5332069  50.2124062  66.3307495  45.6212692  60.7689056
  66.6248856  44.8134880  60.3479500  65.9665909  45.3358154  61.6068382
  81.4607773   1.9174927  43.9747849  80.7116623   2.4077275  43.6360664
  81.3801193   1.0510591  43.5760117  58.1988869  51.2465553  45.4802246
  58.3508377  52.1788940  45.3256721  57.5281754  51.0041351  44.8417854
  68.7080765  23.6280804  55.3304443  68.8932724  23.2489643  54.4712524
  68.9911499  24.5394459  55.2561493  78.6656494  55.5393181   3.5108654
  78.0976257  54.8057976   3.7465000  78.0750275  56.2902489   3.4517431
  15.8800621  52.5281487  82.8745956  14.9960661  52.6776848  83.2098846
  15.7866840  51.7881317  82.2746811   7.0923758  23.9127235  79.1430130
   7.8737822  24.4517708  79.0202789   6.6152072  23.9910374  78.3169327
   4.6303864  61.5744667  88.5793228   4.6007152  61.9087791  89.4757538
   4.7820597  62.3501129  88.0393295  67.5292969  58.6543465  81.8673859
  67.8393326  58.9053268  80.9972610  66.8854752  57.9654198  81.7027512
  20.2606544  58.5356140  23.3283062  19.6815662  59.2972717  23.3006496
  19.6878948  57.8079338  23.5705090  25.2699547  23.3004169  43.8664169
  25.5485649  23.2026749  44.7769394  25.7212162  22.5961914  43.4009476
  70.2546082  36.3429337  56.3343391  69.4737396  35.7950554  56.2549057
  69.9160156  37.2369308  56.3828697  23.0844803  69.7927780  73.6763000
  23.3739281  69.0585709  73.1346283  23.5435905  69.6727371  74.5075836
  56.0432167  59.8354797  37.6954269  56.5314560  59.0763054  37.3768272
  55.1243439  59.6014977  37.5644379  27.6613045  69.4768295  66.4979172
  27.5389366  69.5312042  67.4457016  28.5286884  69.8522491  66.3464737
  37.0720482  49.2663574  31.0025482  36.8097954  49.2679672  30.0819759
  36.2903900  48.9779129  31.4737625  68.7523804  39.0201530  27.8486309
  69.4958038  39.3239250  27.3277931  69.1289368  38.8084030  28.7027950
  49.3266640  53.6298714  86.9762802  48.4186974  53.7718086  86.7085419
  49.5140305  52.7272377  86.7186432  81.4731369  13.5044479  11.3662777
  81.9029312  13.0088654  12.0633478  81.5554428  14.4189310  11.6367903
  13.6960659   6.2438064  83.6290131  13.5487213   5.5401335  82.9970551
  13.3064699   5.9213347  84.4416962  35.5656509  67.5360184  69.9603806
  34.8733292  66.9478531  70.2620163  36.3195992  66.9642563  69.8159027
  73.4564972  68.7823181   5.2867036  72.9157791  69.4114609   5.7642374
  74.1868362  69.3013077   4.9498305  29.3720608  16.3908730  16.5123444
  29.9056549  16.5521622  17.2904797  29.8681202  15.7430811  16.0118217
  54.3786659  43.8620491  70.2211838  53.7350273  44.1398773  69.5694351
  55.2058182  43.8261986  69.7407990   4.7264066  35.4148140  19.1751480
   4.7728710  35.7185898  18.2686195   3.9217916  34.8977547  19.2135429
  56.8584557  19.5285664  50.3134270  57.4097214  19.6617966  51.0845222
  56.0104752  19.2618599  50.6684265   3.3256230  36.1376381   2.6280041
   2.9419060  35.5078239   2.0178196   4.1962380  35.7877731   2.8173597
  48.4395370   5.8033652  15.2503605  47.6575241   5.5311775  14.7701530
  48.1901474   5.7360849  16.1720486  54.1545067  29.4943123  28.4570122
  53.5951271  29.5868340  27.6858044  55.0278397  29.3303261  28.1011600
  38.0773010  25.6280079   9.9058294  38.3865395  26.4299583  10.3271151
  38.8728828  25.1219120   9.7410498  19.6535702  14.7059727  45.4959259
  20.4163990  15.1474199  45.1225014  19.0298691  14.6518869  44.7718391
  37.9901428  38.8518562  88.4814987  38.6159096  38.1326866  88.5677795
  37.1561356  38.4792747  88.7675934  10.3452539  54.6176262  79.9937820
  10.1055269  55.5024376  80.2692337   9.6450863  54.3548050  79.3963547
  76.4812088  59.0139236   9.5986595  75.8164062  59.2083664  10.2593126
  76.0009308  58.5721703   8.8983612  16.8167915  12.5090694  59.6087799
  16.3369770  13.1934872  59.1423187  17.7357292  12.6748953  59.3983345
  56.5781631  67.4682617   1.4663690  57.3682518  66.9498138   1.3140464
  55.8584251  66.8828201   1.2308595   4.4481421  71.1948090  27.8821239
   4.5891972  71.5141602  26.9908619   3.9988964  71.9141083  28.3259945
  36.7926636  12.9303493  13.5741854  35.8388748  12.9542999  13.4970884
  36.9539032  12.7746630  14.5047750  48.0726242  68.0806503  27.8147030
  48.7990685  68.3108826  27.2354794  47.3866997  67.7667389  27.2254658
  79.4686203   8.9217701  76.5100021  79.4264832   7.9655690  76.4983063
  80.3958435   9.1222382  76.3823318  22.2166519  20.6738453  48.3338013
  22.7391090  20.0496521  47.8301620  22.1021900  20.2564564  49.1875648
  64.4384842  11.2420549   4.0685902  65.0434952  10.5186434   4.2324991
  64.6298141  11.8756666   4.7600808  69.6023407   0.2624757  86.3589554
  70.4666824   0.5431362  86.6595917  69.6006317  -0.6861362  86.4868774
  85.2121811  61.0537834  72.5378265  84.6094208  61.4265022  73.1812439
  84.6494980  60.7775002  71.8144379  30.9143791  35.9384193   2.3136029
  30.7096653  35.0197487   2.4878721  31.4127579  36.2222900   3.0799377
  11.8357201  68.1712189  84.5690308  11.2236071  67.4932632  84.8552628
  11.4295053  68.5462418  83.7876358  48.7996216  67.4441681  71.5861053
  49.3226547  67.9700394  72.1911850  48.9351997  67.8555374  70.7325058
  40.8771667  32.5059090  49.4224205  41.3872757  31.6962585  49.4444122
  41.5310631  33.1984711  49.3274918  51.0879669  47.9597816  36.1930923
  50.9382362  48.8159103  36.5941696  51.4211693  48.1600456  35.3183899
  37.0871239  38.3852539  83.5144196  36.3705826  39.0183296  83.4694977
  36.9875793  37.9712791  84.3717117  24.5466061  62.1987419  28.5847359
  24.2166138  61.4441872  28.0968990  25.0783272  62.6799355  27.9507351
   6.6467562  40.3472023  65.1066208   5.6940475  40.3501282  65.0140533
   6.8347068  39.5642166  65.6241531  64.7634201  54.1088867  49.3948479
  65.4042130  53.4957809  49.0346909  64.6740723  54.7843628  48.7225494
  52.2711678  26.8636417  31.2545681  52.3170815  27.8027134  31.0749397
  52.6837959  26.4538956  30.4942532  70.9572983   0.5249511  78.2607422
  71.9027176   0.4605016  78.1255722  70.7922668   1.4630690  78.3552475
  17.0824356  41.2376785  30.8541565  16.1518764  41.4166946  30.9892273
  17.2517834  40.4487724  31.3691158  60.9265823  15.5029459  62.8018570
  60.0121231  15.7840796  62.8327599  60.9907722  14.8225737  63.4720840
  82.3535538  38.4922600  15.7369432  82.0223160  39.1210594  15.0957527
  81.6059418  38.3163910  16.3082409  45.9761925  57.4240952  83.1796417
  46.5394211  56.6561165  83.2756042  46.5845337  58.1588173  83.1000137
  17.9685307  63.5581818  44.9522018  18.6552277  62.9039764  44.8229828
  18.2192249  64.2845154  44.3813934  18.0126495  62.0485382  54.5061722
  18.2540359  62.8625298  54.9481926  17.6544933  61.4958839  55.2008133
  53.1693344  13.7696505  52.7982635  53.5521355  12.8931351  52.8358879
  53.0634499  14.0243111  53.7148705  86.4109955  71.6744843   0.0277346
  86.2812576  70.8033371  -0.3471019  85.7613297  71.7329865   0.7282618
  72.5495987  39.6576462  47.6653633  72.3109665  38.9541092  48.2689552
  73.1804428  40.1875839  48.1526375  82.5650177  62.7335510  29.9849091
  83.2772598  62.1016731  30.0832748  82.2680817  62.6211014  29.0819073
  44.5272179  24.6803436  74.6824570  45.3031197  24.4156017  74.1883698
  44.6493073  24.2894630  75.5476379  48.6031723  56.6929626  18.1565094
  48.9700737  57.5267334  18.4505196  48.4927979  56.1834793  18.9593010
  71.8698120  55.5146637  50.0572166  71.1086349  55.9077454  50.4842033
  71.6845856  55.5895958  49.1211014  15.5189066  54.9113388  22.8206348
  15.6604319  55.0084915  23.7623158  15.0179033  55.6882324  22.5723190
  70.3350677  24.5767918  37.3403625  70.3437500  24.3492870  36.4106293
  69.4278412  24.8252430  37.5176849  22.0964909  11.2361984  47.9572220
  22.0316410  11.0331650  47.0240517  22.4577141  10.4418545  48.3506279
  36.6261635  15.9937534  20.0289497  36.6801376  16.9494152  20.0342216
  36.2895164  15.7776661  19.1593475  76.8564148   8.6901217  56.7791901
  76.7064972   8.9277754  57.6942177  77.1093369   7.7674446  56.8097191
  36.2723312   2.6862695  11.9397354  37.0779076   2.2295265  11.6975298
  35.6459084   1.9861267  12.1231174  59.6343422  54.0801506  65.5814133
  60.5686378  54.1044998  65.7881165  59.2508507  53.5366058  66.2696838
  20.5456886  54.9493446  20.1823826  20.0652828  54.9819527  21.0096550
  21.4387856  55.2043762  20.4138336   8.8354836  34.5479393  32.9018631
   7.9193592  34.7180710  32.6827698   9.0779257  33.8010292  32.3545227
  44.8089790  57.0096130  59.5492439  45.4012070  57.7243500  59.3154678
  44.4516258  56.7113762  58.7128296  21.5004025  63.5264091  83.5854797
  20.8287697  62.8444176  83.5803528  21.0918503  64.2682648  83.1394272
  60.0072975  39.6228065  25.7266121  59.9643517  39.0729485  26.5089436
  59.9638863  40.5187035  26.0608559  12.9151545  26.3214626  18.9656105
  13.4815168  26.7087841  19.6330280  12.0654039  26.7412300  19.0995903
  51.3442841   0.8957803  80.2743835  52.1313095   1.2544389  79.8642654
  51.5819130   0.7882214  81.1953583  14.1842747  53.7264290  20.6633186
  14.6639328  54.1834526  21.3541794  14.7921829  53.7039413  19.9242821
  60.0397949  58.8754196  36.0886841  60.1019402  58.3194771  35.3119621
  59.2439728  58.5804558  36.5312920  15.9160776   8.0427141  73.2232361
  15.5037069   8.2370987  74.0649033  16.0483532   7.0947657  73.2345886
  75.4115372  65.6219635  66.1549530  75.0873566  65.8712540  65.2895126
  74.7575760  65.0073013  66.4877625  85.4738007  18.1996994  48.4899101
  85.4837570  19.0098133  47.9801559  86.3819504  18.0804596  48.7678986
  30.6221123  71.3852844  34.5503807  30.2567272  71.2033768  35.4161949
  30.6786251  72.3399658  34.5100174  46.0102348   8.0705090  85.6733856
  45.9076691   7.7145691  86.5560074  46.5258293   8.8677492  85.7950592
   4.2875571  31.1398983  31.5350914   5.0713735  30.9950161  32.0650673
   4.6166301  31.5156116  30.7185249  73.5069427   2.5892107  35.6675720
  73.5454865   2.6718283  34.7147217  74.4232330   2.5755239  35.9440613
  71.3673325  58.6845436  29.4073944  72.0751190  58.8139000  28.7760925
  71.5755463  57.8531609  29.8336334  85.3281097  47.7265244  16.7072811
  84.8707962  47.6666298  17.5460339  86.2291489  47.4726791  16.9070950
  32.8028679  34.4993095  85.2087173  33.6411667  34.8709145  84.9341354
  32.1985703  35.2416267  85.2033615  47.5860176  65.3495560  19.1783581
  46.6709900  65.1347427  19.3594952  47.8172722  64.8002014  18.4293861
  12.3940477  61.5786858  75.4322815  13.3409824  61.6194954  75.5660019
  12.1964951  60.6425705  75.4024506  56.9372902  16.2706089  12.0729923
  56.2016106  15.6949129  12.2817602  57.2875023  16.5303192  12.9251270
  84.1507416  67.6641998   0.7752897  84.1632996  68.1606979  -0.0429781
  83.5397568  66.9460602   0.6103456  21.7319298   5.5221357  73.6528244
  20.8586063   5.8738861  73.4801636  21.7244911   4.6540084  73.2496719
  35.7896194  42.0226822  63.6494141  36.4054527  42.7028885  63.9219894
  36.2766075  41.2047005  63.7493134  81.3705826   6.5190663  29.1067600
  81.1671295   6.1621013  28.2422276  80.8473740   5.9935899  29.7120380
  29.6657028  22.0587463  87.3650513  30.3659687  22.1047211  86.7140961
  29.6457157  21.1393948  87.6308136  75.7132111  57.4793396  40.3341637
  75.2434845  57.2679825  41.1409569  76.1720276  58.2960091  40.5310745
  44.7829094  38.7501144  49.9700584  44.7274055  37.7957840  49.9210434
  43.9841270  39.0587692  49.5423737  69.6568832  25.7277660  71.6538315
  70.2245255  25.3710804  70.9706039  70.1939316  25.7079372  72.4459229
  31.9938259  59.6637268  30.8242779  31.8298264  59.5474129  31.7601223
  32.8790207  60.0251694  30.7793465  24.4168606  51.0293465  39.8616676
  25.2948685  51.1266289  40.2302704  24.5574017  50.9884605  38.9157257
  78.7255936  30.2911816  72.5635529  78.4704971  30.8627090  73.2877884
  79.4844437  30.7242050  72.1725693  30.8968258  33.8571854  75.9953842
  30.8402157  34.7992249  76.1553421  31.6307945  33.7609673  75.3885345
  23.5769081  65.0497513  24.7628574  23.3538074  65.9616623  24.5760803
  23.5777493  64.9942780  25.7184486  25.5258865  21.3161716  10.5391436
  26.2950687  21.8309841  10.2950945  24.9822178  21.3096867   9.7513533
  48.1546478  19.5478802  65.1247787  48.6755600  19.3684921  65.9075317
  48.7452545  20.0354404  64.5505829  39.4962044  40.6223068   6.1121640
  40.3705025  40.3837471   6.4202542  38.9823875  40.7333183   6.9121013
  53.4161949   9.4050999  43.9502068  53.6802521  10.2487259  43.5830536
  54.0833244   9.2110853  44.6086388  34.2161026  71.5155411  74.3639832
  34.2595558  72.3226395  73.8512115  34.7347298  70.8856125  73.8635254
  39.6807060  44.9286957  11.6423111  39.5028152  45.8377838  11.4011889
  39.9343643  44.5082169  10.8206739   3.8442011  44.0692673  57.8908501
   3.4999192  44.9618645  57.8596344   4.4796314  44.0825424  58.6065903
  30.7708664  48.7493172  49.5949326  31.4845695  48.1194267  49.6954269
  31.2008038  49.6042023  49.6185722  56.2629509  10.7087946   0.0359892
  56.8924904  11.3545151  -0.2848843  56.8012657   9.9698830   0.3196455
  14.8491287  63.4134064  40.6945152  14.0128002  63.0015411  40.9116669
  14.8791428  63.4046974  39.7378235  26.8745327  32.4460983  75.5215454
  26.8335171  31.4949150  75.6205673  26.5233498  32.6111794  74.6465302
  83.3341980  12.8655958  88.3453903  83.3398743  13.6944408  87.8666306
  83.0656586  12.2157030  87.6959686  16.2282906  65.1821442  52.5849686
  17.0099735  65.4719162  53.0553284  15.5053091  65.6326218  53.0215492
  82.3625641  38.6682014   3.9224291  82.1134491  38.4082756   4.8093410
  82.3181000  37.8583488   3.4141061  39.5545387  60.5560760  42.4440536
  40.1951180  60.6589317  41.7402725  39.4127693  59.6112480  42.5026855
  54.9870224  71.5677643  54.0596733  54.5575676  70.8550873  53.5865021
  54.8923721  72.3277359  53.4854622  23.6236248  30.2944794  21.3145046
  22.9612160  30.5165081  20.6601753  24.4187012  30.1350880  20.8059006
  45.6843643  33.1828308  11.4018555  45.5586891  32.2442589  11.5415497
  44.8504410  33.4852295  11.0421886  72.6348267  21.5469742  81.6589127
  73.5621643  21.7726612  81.7320557  72.4317017  21.6664696  80.7311783
  80.1363297  45.4444275  14.7660904  80.5298538  46.2889366  14.9855843
  79.3031158  45.6688805  14.3518324  14.9681215  50.6555672  81.0797729
  14.1653395  51.0407104  80.7284317  14.6972904  49.8003311  81.4136124
  42.3814011  60.3133240  78.1236725  43.2026291  60.8023071  78.1757355
  41.7103233  60.9846497  78.0003586  75.1272125  66.9040604  73.0699158
  74.3807220  67.3684464  72.6913300  74.8378067  65.9935989  73.1293259
  65.7116013  22.8139515  87.6866150  66.1507721  22.0925770  88.1371460
  66.0138016  22.7499237  86.7806320  72.8395081  20.8235378  31.1238594
  73.0270920  21.5285931  31.7434902  73.6788406  20.3787575  31.0058746
  19.2409000  66.5446091  37.0763893  18.8675709  66.6384964  36.2000084
  20.1533890  66.8166275  36.9784241  53.0689163  29.8241959  54.0028877
  53.6566620  29.9646549  53.2605515  52.8130341  30.7052498  54.2758331
   7.0184956   5.7023249  15.2038488   7.1383481   6.3561945  15.8925600
   7.9002166   5.3724337  15.0307264  73.3209915  41.1786728  68.7495041
  73.5944214  40.3074036  69.0364761  74.1128922  41.5682716  68.3789062
  37.7097359   2.6295621  41.1139603  38.4005737   1.9982909  41.3151321
  38.1368141   3.4831488  41.1862373  55.2562370  61.5632362   6.0475535
  55.7670021  61.1185265   5.3711047  54.6850700  60.8822556   6.4028926
  80.8979874  47.6801071  29.8863659  80.8399429  46.7457809  29.6866207
  81.6996460  47.7653503  30.4024220   1.8684343  47.4787941  36.9478226
   2.8045568  47.4021416  36.7633476   1.7101820  48.4216042  36.9957886
  27.6403503  67.5677490  54.1442261  28.4099255  67.7964172  54.6654739
  27.9913349  67.0753555  53.4022102  56.5173416   0.3716598  21.0811119
  57.0491219   0.2776486  20.2907925  55.6802979  -0.0346002  20.8563042
  64.4486465   1.2356323  39.8173485  64.1837158   2.0827937  39.4590759
  65.3992462   1.3009048  39.9086494  67.4060059  36.4790802   4.4640365
  66.4771194  36.4388084   4.2364988  67.4774933  37.2357941   5.0458460
  18.1801243  44.7973671  38.4077454  17.5449619  44.1226349  38.1678810
  18.3190880  45.2931824  37.6008492  20.5649300  51.6407967  33.2671051
  20.4534416  52.5903358  33.3137589  20.3124733  51.3270454  34.1354713
  84.4442978  23.5403557  70.1516037  84.3821335  24.4631653  70.3981628
  83.5567627  23.3041782  69.8819275  74.8664398  12.6332169  46.9291687
  74.3399048  12.2043505  46.2545815  74.2756271  12.7156458  47.6777573
  60.1502647  16.7761116  78.6215515  60.8371086  17.0288658  78.0046310
  59.3791695  16.6281338  78.0740585   2.6776705  24.7055893  21.4962215
   3.1330397  24.2073650  22.1749268   3.3629193  25.2331905  21.0859737
  82.5128403  40.0979424  38.2887383  83.2699585  40.2723656  38.8478279
  82.2591248  40.9580383  37.9539337  22.9211197  69.3752441   0.1097899
  22.6536846  68.8785858   0.8831219  23.0590801  68.7110519  -0.5655224
  13.4686155  33.9607315  67.1132584  12.6203337  33.5676117  67.3184662
  14.1036224  33.4170990  67.5795898  74.1000748  42.6649742  86.3010483
  73.8471756  41.9352875  85.7355118  73.9469833  43.4452400  85.7681503
  27.9359856  67.5005569  15.6657763  28.4237766  68.1055832  15.1069946
  27.4406853  66.9559250  15.0539846  52.9747734  63.1155357   4.7777934
  53.1269569  64.0569992   4.8597269  53.6393280  62.7157745   5.3388562
  38.6871300  40.0564728  12.1286993  38.5897064  40.8822517  11.6545420
  39.4647560  39.6505928  11.7455626  64.4300232  60.1615372  33.0092697
  64.3254700  59.4705200  32.3552055  65.3367233  60.4513626  32.9086494
   1.8329228   9.3124962  73.8711548   2.0662117   8.7271261  73.1506271
   2.4952576   9.1433792  74.5411835  55.1811905   6.5851135  51.6985664
  55.9129219   7.1139278  52.0166206  55.1763725   5.8157473  52.2680244
  82.2243576  30.1666908  10.6405096  81.7000351  29.5332146  10.1505804
  83.0482025  30.2212505  10.1562328  34.6310692  51.7062607  13.2205572
  35.1679764  52.4391441  12.9191513  34.9411545  51.5317192  14.1091585
  60.7333679  52.4646416   3.0628967  61.2471733  52.3097649   3.8555176
  60.2072525  51.6716728   2.9597547   7.5410933  59.7751427  77.0471497
   8.3102283  59.3009300  76.7312622   7.1696701  60.1787415  76.2626801
  57.8525696  37.3519936  52.4711914  58.6109047  36.8751945  52.8085632
  57.2258453  37.3479576  53.1946754  37.9798508  38.7058411  62.9157715
  37.8224983  37.8143768  63.2268410  37.5420685  38.7435493  62.0653839
  63.1948242  46.0590897  82.3498459  62.6184883  46.0378647  83.1137924
  62.7954102  45.4473228  81.7314301  13.4684200  14.5566721   5.9294019
  12.9421997  14.9621334   5.2402539  14.3719158  14.6510506   5.6277094
  43.1495171  16.1461163  77.0171509  42.6131821  15.4596014  76.6205750
  43.8584518  15.6739502  77.4538498  84.2912903  11.8550730  81.6887741
  83.9835129  12.3864269  80.9544983  84.8499985  11.1904392  81.2858582
  15.9945793  28.4090004  64.8319473  15.9817858  27.6742077  64.2186432
  15.5407867  29.1141663  64.3703842  81.7152939  32.8806190  34.4425964
  81.5922699  33.5809097  33.8017464  81.6308060  32.0736580  33.9347458
  32.1388931  57.4118919  51.9895515  31.2902603  57.3616257  52.4294662
  31.9362392  57.7456245  51.1156006  39.4384308  12.3397694  46.2087517
  38.6247711  12.3431492  45.7045898  39.9476166  11.6195736  45.8368912
   6.8129921  29.0432205   4.5688667   7.2465620  28.5892544   5.2914758
   6.2302237  29.6711998   4.9957800  19.2143707  63.0607758  24.5354881
  18.8800316  62.3795319  23.9520874  19.7028427  63.6499252  23.9605694
  15.2535219  63.7877388  56.4808960  16.1147118  63.3774300  56.4019547
  14.6446686  63.1351242  56.1350327  18.1443882  67.3415909  39.4129753
  18.5666180  66.6342316  39.9004211  18.3918648  67.1853943  38.5016098
  43.0704117  63.5839920  75.9679718  42.5821877  63.1625366  75.2606888
  42.4312744  64.1565628  76.3921127  69.8059158  12.6280556  42.6373024
  68.9491959  13.0482483  42.5618324  69.9269409  12.1789351  41.8007164
  38.1815071  46.9386864  27.7409229  37.5512505  46.2184258  27.7257462
  38.7369156  46.7550240  28.4985657  20.8139286  48.2688293  43.3529549
  21.7129574  48.0202637  43.1380234  20.2726326  47.6117859  42.9153214
  64.4084015  33.2342911   7.5264320  65.2268829  32.8021545   7.2823372
  64.5532303  34.1571236   7.3175368  82.6813278  56.8495331  33.4083748
  82.5577316  57.1311188  34.3148308  83.5846176  56.5344353  33.3765030
  71.5536499  29.0940990  43.3726425  71.6353073  28.1450901  43.4672432
  70.6103668  29.2560158  43.3876839  45.4794769  22.9047394  21.9327011
  45.4572868  22.2251282  22.6063995  44.8321991  23.5485058  22.2204971
  46.6298294  52.6643219  67.3098373  46.8657913  53.4009132  66.7459335
  47.3074036  52.0089149  67.1438141   2.6186440  69.2689896  39.6563606
   2.3982217  68.6916275  38.9253998   2.2528384  70.1183624  39.4094162
  80.8704147  35.7790794  60.2825737  81.6203613  36.2894707  59.9771080
  80.1765594  36.4259453  60.4104424  71.4143906  66.6448517  81.1490860
  70.7810364  67.3606567  81.2012787  71.2858582  66.2745132  80.2758408
  13.3590527  62.1693153  55.1958046  12.9951286  61.3374939  55.4988899
  13.9362841  61.9283867  54.4712448   7.7733636  60.9073792  70.8595276
   6.8171864  60.9381943  70.8277893   8.0372238  60.7258606  69.9574966
  58.1559982  19.3654900   5.4633856  58.4769325  18.9176350   6.2461109
  58.0409889  20.2751694   5.7381363  46.3162804  39.8047142  40.6270790
  46.7789993  38.9981270  40.4000587  46.7626076  40.4863853  40.1247330
  71.0809555  25.0992393  52.6928749  70.7935715  25.7108517  52.0149574
  72.0249634  25.2425938  52.7602043  80.0831985  62.2057076  31.2004700
  80.3415451  62.0401878  32.1071625  80.8875656  62.4980316  30.7717896
   7.6786599  25.9944534  29.1162682   6.7233706  25.9716377  29.0602932
   7.8596935  26.2315788  30.0257893  77.1176453  45.3091583  47.8705368
  76.8403244  45.9691200  48.5059738  77.2106094  45.7917290  47.0491257
  10.5842113  53.7339211  88.8312225   9.9369125  53.7063332  88.1266098
  10.3573513  52.9936028  89.3939819   7.5876498  40.7659950  39.5470695
   7.9637513  39.9553070  39.8899422   8.2966890  41.1641884  39.0421524
  19.6477528   6.7072449  53.5368500  19.6485748   5.7513518  53.5868492
  20.1629505   6.9871020  54.2934761  30.1280880  59.6283150  15.1677952
  29.8170910  60.5238190  15.0351925  31.0692616  59.6742439  14.9995279
  37.8234711  52.0321922  88.5716400  38.3933067  52.0005913  89.3400955
  36.9494209  52.1912308  88.9279785  25.1103020  68.3887482  70.2431107
  25.9534168  68.8243866  70.1181793  24.7420635  68.3224869  69.3620682
  86.7361298  40.0309830  63.1492119  86.9329834  40.9654922  63.2138062
  86.0564423  39.9752617  62.4775276   2.1169953  62.7762718  38.1002693
   2.7120786  62.0340004  38.2058029   2.4219058  63.2168045  37.3070526
  60.9715805   6.5759940  46.8078194  60.4586220   5.7794118  46.9440689
  61.0102234   6.6762271  45.8566666  78.9931946  56.8596954  30.4930172
  79.9259033  56.7990341  30.2866154  78.5956497  57.2214699  29.7009869
  68.8410873  31.0029144  36.8155594  69.3054886  31.8149796  36.6127892
  69.3838959  30.5756226  37.4781418  42.4727554   0.7945174  29.0615215
  41.9332085   0.7043257  28.2760353  41.8689651   1.1156319  29.7312622
   2.8008606  34.9198303  14.5369225   2.6414590  35.8265152  14.2747288
   3.2026916  34.9880714  15.4030094  50.0812149  39.7356644  74.9246292
  50.6978149  40.2787666  74.4336395  50.5819931  39.4280090  75.6801453
  68.2519226  52.9850159  11.7998867  67.6143646  52.3179893  12.0544987
  68.3167725  52.9035263  10.8483686  80.7499237   0.1524108  27.4450626
  79.9415283  -0.2930888  27.6985416  80.6664200   1.0303262  27.8172493
  64.4148254   6.0307527  73.0032730  64.8888550   6.2283921  73.8110275
  63.7284393   6.6964722  72.9593735  30.0252113  25.7165585  13.7774878
  30.4350319  26.0294285  12.9710188  29.2952824  25.1734104  13.4801245
  24.3122959  51.4153595   1.1947731  23.8151741  50.7127876   1.6136942
  23.6499214  51.9475288   0.7539922  85.2416229  43.0153618  48.8555145
  85.9960785  42.8753357  48.2833061  85.1839905  42.2142601  49.3762283
  43.0723953  46.6690483  22.0176449  43.4334641  45.7827072  22.0336895
  43.1406975  46.9389534  21.1018295  69.2791748  67.3794479   3.6906934
  70.2344284  67.4006653   3.6335056  69.0989151  67.1402740   4.5998325
  13.4861631   2.1052904  65.6813660  13.9390507   2.8648934  66.0475998
  12.8226767   2.4787552  65.1012421  16.5272160   7.4298415  58.9290886
  16.6527576   8.3662939  59.0824776  17.2568417   7.1800842  58.3620796
  37.3148270  31.8483238  20.5341949  36.8032837  32.6023521  20.2409439
  36.7995300  31.4722252  21.2478142  76.6771545  30.0560398   6.7794275
  77.0024796  29.4089985   7.4053140  77.4603958  30.5236683   6.4894490
  52.6842957  25.2877407  71.9482651  52.1914482  24.8849621  72.6631775
  52.8836708  24.5623894  71.3563614  54.1221542  11.5099125  66.1303940
  54.6935158  10.7462387  66.2115021  54.4932060  12.0105572  65.4038162
   5.3728862  39.4887848  43.8022270   4.6583519  39.9773788  44.2108154
   6.1683197  39.9021149  44.1378975  10.3930302  42.2410660  67.2739410
  10.9886255  42.5503235  67.9564819   9.5270748  42.5282249  67.5635834
  85.6885147  37.0488358   1.8510301  86.3786392  36.4757881   2.1850450
  85.7012100  36.9120483   0.9037395  76.4766159  31.6315308  77.6892776
  76.9149170  32.0620155  78.4233170  75.8825073  32.2966652  77.3416214
  51.5099754  42.5251808  83.7867355  51.1464767  42.1076050  83.0058823
  51.8894920  43.3433533  83.4661331  58.4567299  59.8446007  71.5525894
  59.0511208  59.1610527  71.8619232  58.3027496  59.6297684  70.6325989
  12.1326866  65.7813263  59.3850098  11.6805668  65.4572525  60.1639824
  12.1734200  66.7296066  59.5088501  64.4453964   4.5290112  33.8052673
  64.8814774   4.2282486  33.0080185  64.8797989   5.3547692  34.0189247
  73.2508087  49.1851997  27.2514305  72.6576462  48.6190300  26.7576275
  74.0066452  49.3005295  26.6755505  44.3287811  18.6967793  65.2753754
  43.4853477  18.2563553  65.1710663  44.8166199  18.4706383  64.4834747
  25.5320454  60.3680687  41.8209496  25.1468143  60.5336456  42.6814232
  25.7270184  59.4309349  41.8221321  76.4661713  52.8470116  60.1790123
  76.9847870  53.5973816  59.8888168  77.1106720  52.1572037  60.3371735
   1.6352232  64.2638397  13.9703789   1.2815574  64.2765045  14.8597565
   1.1667975  63.5507126  13.5364876  25.7853546  64.7090836  48.0519676
  26.0254879  65.6315308  47.9645157  25.7429390  64.5611572  48.9967155
  22.4122715  59.7127838   4.1469078  21.6558361  60.0702286   3.6818593
  22.6662941  58.9442368   3.6359878  72.7563629   7.6020885  38.4788361
  72.7997742   7.0846148  37.6747398  71.9300003   8.0804434  38.4114914
  46.6816025  14.7035284  18.1811123  46.6464233  14.1611700  18.9690475
  47.5543289  14.5461788  17.8208027  42.0084457  38.8084564  22.6730156
  41.2282104  38.5346260  22.1908588  41.6675529  39.2076454  23.4734364
  58.5511551  43.3097878  64.9625778  59.0700607  44.0351486  64.6149826
  59.1850357  42.7622795  65.4258881   5.3018613  34.8615074  38.6072006
   5.6025686  35.0893326  39.4869156   6.0716839  34.4846916  38.1810341
  20.1450939  55.1212769  37.8857231  20.7326069  54.9862061  37.1422081
  20.7174969  55.0889854  38.6522369  71.4342728  19.7065296  38.1901588
  71.5385818  20.6547318  38.1110001  70.8492813  19.4690361  37.4707069
  31.3440094  52.5548019  72.6267090  30.6721325  53.1743240  72.3420868
  30.8880997  51.7148476  72.6801453   3.0943599  41.7401733  69.0299530
   3.2854359  40.8040924  69.0888824   3.7633104  42.0843811  68.4381256
  69.6622543  37.2509308  17.8023930  70.0740204  38.1150284  17.8065186
  68.7444611  37.4219551  18.0136528  46.1783638  38.3592033   6.3217440
  46.1580353  38.3067589   5.3661981  46.2366104  37.4484291   6.6104169
   4.3551340  45.9181786  53.4264336   5.2216611  45.8511696  53.8275223
   4.3835387  46.7361755  52.9301376  12.9914732  29.0592327  80.5172729
  13.6568575  28.6457424  81.0672913  12.7074709  29.8235703  81.0186310
  22.3871059  67.5946579  53.4700127  22.0982189  67.1584625  52.6684494
  23.3061943  67.8079529  53.3087196  41.1197777  28.7181778  17.4367981
  41.0791206  29.3205223  16.6939945  40.6639786  29.1770077  18.1424561
  37.4856071  66.8921127   1.3250180  37.2703056  66.9127731   2.2574618
  37.6475716  67.8073502   1.0962616   2.5802288  54.8043137  17.5698223
   2.6729519  53.9523354  17.1434803   2.4946868  54.5982895  18.5006638
  49.8830566  63.2214775  58.7011147  50.5973473  63.0615196  58.0843239
  50.1017990  62.6872826  59.4646721  79.3403473  44.8128967  58.6775856
  79.2261276  45.5753975  59.2448387  78.4492798  44.5155525  58.4936867
  52.3384705  51.2052612  25.2293339  51.9147644  50.7048264  25.9266644
  51.9013748  50.9169235  24.4280586  71.5577774   1.7972069   7.1348090
  70.6549988   1.4840448   7.0787683  71.5788498   2.3258052   7.9325380
  74.1267853  37.8031998  15.2772570  74.2314682  37.7263794  14.3289051
  73.6742477  38.6374741  15.4014702  29.1948547  49.0978546  54.9921837
  30.1460514  49.0329361  55.0772781  28.9132481  49.5475502  55.7888641
  27.0673561   5.9753661   0.9535442  27.5340290   6.1918221   0.1463303
  27.2012520   6.7360411   1.5189443  79.9578934   5.9471850  43.0016937
  79.9071121   5.9117012  42.0465012  80.8581161   5.6918793  43.2033310
   0.4422776  18.0197659  19.2806816   0.5064743  18.9469509  19.5096760
   1.3455907  17.7040405  19.3046417  53.5427513  46.6530991  19.6327229
  52.9393349  47.1332512  19.0656490  52.9889679  46.3050613  20.3315964
  55.3917313   9.8641644  20.7814484  55.4939842   8.9587564  20.4881706
  55.8460426   9.8959732  21.6233654  65.6959686   2.2736249  67.4586945
  66.0322647   1.9368112  66.6282120  65.4424210   3.1762931  67.2659836
   8.4516935  53.5472717   3.1997831   7.6481600  54.0617561   3.1231701
   8.3423214  52.8367310   2.5677996  10.8530378   6.3551092  78.5731659
  10.2615767   6.1062317  77.8629074  11.7280836   6.1703529  78.2320023
  71.2153702  56.5032539  30.9973106  70.4870377  56.3731651  31.6046314
  71.0055923  55.9449348  30.2486420  55.6258850  65.2413101  40.7262764
  55.8494415  65.4279861  39.8144608  55.9104881  66.0187759  41.2066612
  73.4752655  53.0368347  83.7974472  73.3370972  52.1356888  84.0891266
  74.4035721  53.0743408  83.5670700  21.5883865  57.1988106  33.7312012
  21.4806519  56.2740135  33.9534035  22.5141926  57.3782768  33.8952446
   6.9274158  49.2120514  76.2651596   6.2214937  49.5848122  76.7933197
   6.4904141  48.5833015  75.6907578  61.1632156  40.1052475   9.6172686
  60.8842773  40.5991440  10.3883018  60.6494713  39.2982979   9.6509733
  78.5092239  33.1970062  31.2877922  79.0132828  32.3844872  31.2434235
  77.7881775  33.0654716  30.6721497  67.7254181  21.7615891  57.1458473
  68.1624908  22.1838036  56.4062920  67.9758530  20.8402348  57.0778427
  79.9308624  62.5534096  24.9323139  80.6316299  63.0094337  24.4662647
  80.0848160  62.7569237  25.8548698  52.6747360  70.2258987  13.0994062
  52.2392082  69.4884567  13.5268669  52.0697861  70.4928970  12.4073200
  23.4122772  48.3560295  20.8303089  23.5466595  47.4143372  20.9370022
  24.2580509  48.6857872  20.5267296  26.1891499   3.5315495  16.9431343
  26.8474255   3.7692268  16.2901287  25.4591217   3.1830289  16.4314461
   8.6674881  42.1249962  77.6637497   7.9682760  42.6830444  77.3232880
   9.4433498  42.3824883  77.1657867  32.7595901  59.6517334  15.0198231
  33.2299919  58.9600372  15.4851294  32.7584152  60.3912277  15.6275864
   3.7747402  36.8786163  85.4196396   4.1282120  35.9957008  85.3112411
   4.2281508  37.4010277  84.7580185  71.5735168  32.7856674  18.6533070
  70.8467178  32.1818161  18.5004959  71.3644714  33.2058258  19.4875717
  22.7628670  48.3820572  62.2886848  22.0769348  48.7210960  62.8638191
  22.7306747  47.4332466  62.4109879  10.3280268  56.7326698  83.4306183
  10.3728151  57.6581306  83.6709213   9.9868126  56.7336769  82.5363007
  71.6329041   6.5744562  64.2016754  72.0300598   7.4224892  64.0033340
  70.9875793   6.4438400  63.5068970  27.8904266   0.8381038  34.3521729
  27.8429680   1.0371298  33.4170952  28.8260670   0.7406572  34.5291214
  81.2957535  42.0313492  76.0646667  80.6903915  41.2927475  75.9995804
  80.9393234  42.5717468  76.7697601   1.2057614  13.0645123  85.5121078
   0.8808954  12.8014984  84.6509933   0.4160469  13.2586403  86.0169830
  49.5033722  27.7359581  22.0241032  49.9470062  27.6288910  21.1827030
  48.6764641  27.2650852  21.9204998  40.9096527   2.8808434  82.4759750
  41.8347969   2.8648834  82.2308426  40.4412346   2.7462890  81.6521378
  63.6073647  67.8224716  41.5670052  62.9114876  68.1614685  42.1300926
  64.0606155  67.1765671  42.1088524   4.4421592  12.6461115  63.9980240
   5.3624740  12.5757847  64.2516098   4.4326329  12.4241390  63.0669670
  74.5317078  64.3338318  26.1413250  74.3102875  63.5957031  26.7091026
  75.1020508  64.8852997  26.6768837  34.2981033  49.5541916  67.7157745
  34.1169548  50.4076500  68.1095123  34.7332535  49.7596588  66.8883362
   8.6008005  46.4058876  34.7329254   9.3658390  46.6634369  34.2185173
   7.8611097  46.5218048  34.1365585  42.0985336  63.3498497  87.9070206
  42.8346977  62.8040657  87.6305923  41.7041702  63.6523132  87.0889587
  53.5543861  22.9510784  48.8572502  54.4582672  22.7575455  49.1057930
  53.5876732  23.8412399  48.5069122  30.9454288  58.2481995  37.3881912
  30.0244160  58.2232361  37.6477013  31.3819923  58.7172623  38.0992661
  77.9524994  58.6585426  81.8824158  77.6175613  58.6717796  82.7790070
  77.5881805  59.4464226  81.4789886  50.9729462  42.4807167  51.2346649
  50.5617294  42.8437767  52.0190849  50.2390404  42.2335548  50.6720581
  62.4253464   8.3620853   8.1450958  62.5826263   7.4201136   8.2097864
  62.7852745   8.7212601   8.9560699  27.4959259  64.1236343  41.4294701
  27.7296219  63.7514801  40.5791092  26.5422096  64.2008820  41.4031677
  45.6645164  24.3055038  70.5035934  45.9696922  25.1756992  70.7602158
  44.9879608  24.4728107  69.8474579  57.4643555  52.7443810   2.9610932
  56.7888527  53.3990288   3.1381907  57.2824173  52.4476624   2.0694163
  12.1080475  42.3418808  10.9246836  11.6158085  42.6075859  10.1479387
  11.9428244  43.0365334  11.5621710  42.0952530  47.8795853   5.1602139
  42.8666534  47.3312607   5.0169864  41.9873695  47.8975296   6.1111455
  17.5832596  24.0254593  73.0280457  16.6685848  23.7437763  73.0440445
  17.7479267  24.2526684  72.1128998  37.9445724   2.2093818  55.4352226
  38.8154030   2.1783075  55.0390930  37.5239296   2.9676080  55.0297775
  12.9318857  51.7937050  12.1405058  13.5398846  51.4220543  12.7796030
  12.7771406  52.6867523  12.4483232  50.8976212  51.8459473  80.2098236
  51.8324699  52.0443306  80.2639694  50.6149673  52.2466583  79.3877640
  80.8255615  39.0506668  58.8238144  81.7046585  39.1529770  59.1884460
  80.5059052  39.9462624  58.7144470  71.7170715   4.3650761   4.0425038
  70.8492661   4.5787196   4.3852916  71.8123779   4.9205275   3.2687976
  59.3709183  13.8987856  20.9454231  59.0622559  13.4451952  21.7297802
  60.2351990  14.2323895  21.1861668   5.5952168  51.7726784  70.4483261
   5.7086182  51.1961708  69.6926727   5.4525547  51.1775589  71.1843414
  62.8413658  21.4029198  88.7710571  63.4506950  21.2894650  88.0416183
  62.1246147  21.9217491  88.4059219  55.3427277  50.0608978  54.2229347
  54.5236397  49.6171455  54.0029182  56.0258484  49.4946480  53.8638573
  57.3048592  41.9316406  73.6438904  57.6655388  41.6694260  72.7969055
  57.4552002  41.1763840  74.2124100  12.7996521  36.1651497  39.3515739
  11.9609470  36.5174294  39.0537415  12.5735884  35.3415222  39.7837410
  73.7339172  59.1577835  73.6497498  73.4259033  58.2824020  73.8844070
  73.3819504  59.7269821  74.3341217  57.2330971  57.3922958  29.8498039
  57.7976685  56.8168640  29.3336964  57.4050865  58.2685738  29.5051517
  49.3746872  22.3838425  31.9677238  48.4293022  22.4453392  31.8309956
  49.7471085  23.0173416  31.3543606  36.4146118  34.0643272   6.4069190
  36.5461617  33.9848518   7.3516998  37.0978622  34.6702385   6.1200914
   5.1311746  67.3954086  44.1584549   5.2741990  67.6778183  43.2551155
   4.7092996  68.1443405  44.5795898  50.2981644  52.2465172   4.4422851
  49.4017105  52.2455177   4.1067266  50.7172546  51.5034904   4.0081158
  56.7909279  64.4856949  26.1947079  57.6032791  64.9251175  26.4461594
  56.3696747  64.2670593  27.0259571   4.2859831   5.8915920   7.8450437
   4.7994986   5.8936005   8.6528368   3.7314963   6.6689730   7.9117875
  78.1594315  54.3263321  65.4633026  78.4169006  53.4046745  65.4854584
  78.8504105  54.7559929  64.9591522  20.9180088  41.4749947  23.6694527
  20.9835377  40.6317215  23.2213135  21.6277580  41.9992104  23.2983913
   2.8721273  39.8916855  44.9236450   2.3264425  40.4829483  44.4051247
   2.2599771  39.4643478  45.5227165  44.0059624  33.4332886  73.7447510
  43.7416115  32.7953911  73.0818481  43.2978935  34.0773392  73.7531967
  65.1145630  33.1041908  58.4471893  65.8709488  33.2691765  59.0101204
  65.4865341  32.7230759  57.6518173  33.2872734  27.7398796  72.0916901
  33.9047394  27.9220257  71.3833237  33.6457138  28.2052746  72.8474503
  13.6241922  56.1089745  16.2663136  13.2024641  55.6491241  15.5404234
  13.5499563  57.0356369  16.0382385  58.4552689  38.8507690  70.2108002
  59.2454071  38.6716728  69.7010498  58.7752113  39.2724266  71.0083389
  62.1815147   5.1673846  78.8259506  62.1059761   5.4053726  77.9018860
  62.4100723   4.2379251  78.8159866  28.2950497  59.4322395  56.2945747
  29.2250061  59.4379654  56.0679054  27.9664631  60.2741356  55.9791756
  83.0457535  29.9711494  28.4520168  82.3387909  29.6870766  29.0314484
  82.7039261  29.8285389  27.5693779  14.0040798  40.3773804  11.3991699
  13.2016926  40.8784637  11.2531462  14.1366692  39.8944473  10.5834332
  42.9773369  38.8504944  17.5578403  43.5071335  39.1130867  18.3105640
  43.6166000  38.6086540  16.8876972  35.1955605  40.2327843  65.9729843
  36.0979843  40.3630638  65.6816254  35.1516113  40.6742783  66.8211517
  36.3338127  45.3020973   5.1716332  37.2779465  45.3493156   5.0212545
  36.0344391  44.5986023   4.5956979  12.2240562  40.4697990  81.2601089
  13.1727257  40.5081444  81.3817062  11.9202604  39.8637962  81.9359055
  51.9348602  53.1117020  20.3289051  51.7889938  54.0522499  20.2273083
  51.3344803  52.8502502  21.0270576  79.0032196  66.3405838  70.1685944
  78.8471222  66.7638168  69.3243561  79.9220428  66.5255508  70.3629913
  67.8438797  19.8063545  71.3705368  67.2101669  20.5164719  71.4723587
  67.3781128  19.0250912  71.6687317  15.0182514  19.4364567  77.9538116
  14.1149054  19.7397003  77.8630219  15.0800505  19.1359901  78.8605270
  51.7907524  40.9881973  33.4226646  52.3191605  41.1356621  34.2070580
  50.9739647  41.4575462  33.5923767  17.8939533  50.6046333  32.3834686
  18.8452682  50.5533638  32.4762115  17.5823574  49.7325592  32.6256027
  65.5371399  56.0307999  84.0136490  66.0232544  56.6500244  84.5581512
  64.7152710  55.8919334  84.4842758  12.2381630  30.5506783  78.3215790
  12.4092035  30.0517368  79.1203537  11.2836161  30.5985851  78.2688828
  62.7750244  58.1774864  67.7642136  63.2918053  57.6179924  68.3439941
  63.2453537  59.0111046  67.7540207  21.5000744  41.2903976  30.8803234
  21.2185326  40.8211594  31.6656780  20.7900028  41.9071236  30.7023335
  45.5007591   1.5947576  71.2890549  45.2749596   0.7304510  71.6328888
  46.0059471   2.0068421  71.9899139  71.4192429  35.7474670  39.3043213
  71.1332092  36.3597145  38.6264076  72.2910614  35.4694061  39.0235252
   0.9125695  42.4345512  47.4580460   1.7786939  42.2008209  47.7918587
   0.9788377  43.3670044  47.2522049  59.5964165  51.4063492  63.5883942
  59.7196159  51.1147537  62.6850510  59.1896362  52.2690964  63.5082169
  46.5611076  33.0495949  78.5984192  46.1930428  32.6307373  77.8203964
  46.1123924  32.6289177  79.3318481  46.2376442  45.8759422  22.0591488
  46.2216606  46.1970673  21.1575642  47.1076698  45.4899216  22.1605206
  50.0797920  23.5576038  70.8715057  50.9565048  23.6212711  71.2503967
  49.7852173  22.6750469  71.0963364  36.9764786  70.6448822  88.6048355
  36.7307243  71.3618622  88.0202179  37.8949966  70.4717255  88.3985062
  77.9584274  28.2603779  43.6253204  78.6214218  27.7370453  43.1749992
  77.8109131  27.8004608  44.4517288  20.7636852   8.9166021  19.9967556
  21.4379520   9.5932493  20.0579472  19.9538651   9.3996420  19.8321457
  33.1657219  63.8350029  78.8602982  33.2833786  62.8914108  78.7506485
  32.2601967  63.9958839  78.5950241  22.5898590   1.9613442  47.6559296
  22.8896828   2.8671813  47.7320633  21.7856331   1.9308904  48.1741257
  77.3592453  50.5566444  36.4167519  77.6127625  49.6916733  36.0945930
  78.1589432  51.0790558  36.3550797  19.3489132  30.5436897   4.9962502
  19.8641720  31.2135277   4.5467410  19.6779327  30.5515232   5.8950920
  82.3745880  52.9293633  68.1777725  82.5168457  52.0759926  67.7682037
  82.5725327  53.5622940  67.4875259  67.5232620  46.4176102  42.8726997
  67.9851379  47.2332230  42.6786041  67.9349060  46.0941010  43.6740265
  56.5569191  42.5510521  23.5644970  55.8419228  41.9992332  23.8815250
  56.9610023  42.8995018  24.3591862  81.9263916  19.7894363  28.3033924
  81.4803314  19.5187397  29.1058807  82.7322540  20.2075672  28.6066799
  74.7074661   9.1797781  39.6282616  74.9729691   8.5309429  40.2799911
  74.0923157   8.7131348  39.0625191  10.6989717  71.5927505  60.2886696
  11.6498680  71.6878967  60.3432083  10.5523424  71.1173782  59.4708939
  72.6467743  53.7739410  65.7623367  73.5505600  53.4790611  65.8738708
  72.7199020  54.5857239  65.2604523   3.7494559  27.9412117  12.2748346
   4.4597015  27.4632893  12.7030573   3.7187493  28.7828598  12.7297153
  59.3964539  43.4801064  24.1307449  60.1134605  42.8903046  23.8977833
  59.1847420  43.2537346  25.0363750  70.9668808  53.2069893  73.0443344
  71.7373810  52.8771591  73.5066986  70.7257004  54.0029297  73.5181885
  51.5146675  59.4987068  57.4515114  52.2317734  59.6947746  56.8485641
  50.7715225  59.9957047  57.1095123  50.1107101  16.4063740  46.0077972
  49.7855110  16.6562881  46.8726768  49.6547394  15.5889425  45.8074760
  20.3284149  63.1147423  52.8753891  19.5735397  62.5264931  52.8943329
  20.2225742  63.6652832  53.6512337  28.3415031  68.7191086  78.4643097
  27.7748795  68.7271576  77.6928864  27.9210567  69.3228683  79.0766296
   7.4433336  54.5633736  15.7362900   7.4164209  54.6689110  14.7853060
   8.0917034  55.2033424  16.0300407   9.6959238  48.5340462  76.5478973
   9.3474722  47.9798012  77.2462006   8.9221735  48.9339867  76.1509171
  70.3213730  71.8541336  47.0114288  70.3348846  71.1938553  47.7043076
  71.0020905  71.5734711  46.3998070  54.7526360  44.9487457  60.6566925
  54.5901947  44.7696533  59.7305336  54.3283882  44.2255592  61.1184807
   2.6628659  43.9998703  13.5905132   2.4781199  44.7966080  13.0932159
   2.7708139  44.3003769  14.4928837  13.5077972   4.1741939  81.9893112
  13.1150236   3.4819140  81.4576035  14.2404308   3.7480421  82.4341431
  53.3743477  71.1080551  82.9796066  52.8647003  71.6913071  83.5420227
  54.2195969  71.5467453  82.8829727   4.3938689  37.9568062  72.3527222
   3.8019247  38.3170166  71.6923523   3.8255000  37.7425690  73.0925140
  54.7763100  65.2903900  65.2393951  54.1406441  65.3212204  64.5244064
  55.0984383  64.3890305  65.2347870  37.7026901  15.6413126  10.5825768
  36.8194733  15.7283602  10.2239990  37.6262169  15.9502773  11.4853077
  34.2236824  34.1824112   4.7804995  34.6909065  34.8323364   4.2555928
  34.7703133  34.0640717   5.5573010  15.4888248  13.9568653  81.1452332
  16.0290279  13.1785078  81.0089493  15.6757832  14.5135155  80.3893127
  64.2581024  55.7281036  27.3602734  64.1391373  54.9057922  27.8355427
  63.3875465  56.1258583  27.3481808  12.4435673   8.6011677  17.8519573
  11.7743759   8.4184427  17.1923923  11.9965630   9.1416407  18.5033455
   6.6268992  55.6677246  46.8087311   6.6679173  54.7541924  46.5258789
   5.8015242  55.9929314  46.4492493  22.5532341  36.7073479  20.4388657
  21.8489838  37.1672974  19.9820156  23.1292267  36.3969078  19.7402325
  83.5659561  37.4583359  68.6601181  83.2343216  38.3521690  68.7456131
  83.9384003  37.4243164  67.7790070  17.2909203  35.0609665  19.9614182
  17.3212814  35.9278297  20.3662186  16.3571339  34.8650970  19.8845501
  69.8676529  16.3917370  59.9204330  70.2378922  15.5639458  59.6139679
  69.9222183  16.9737186  59.1624413  16.7939434  26.0787773  79.9811935
  17.4549408  26.1465969  79.2921982  16.0067463  25.7755203  79.5288773
  64.0991058  34.0568428   2.6631856  64.3472443  33.9023323   1.7517104
  63.1647072  34.2611160   2.6257086  48.8928642  64.5360413   1.4935564
  47.9893799  64.6583099   1.2020091  49.4036636  64.5064774   0.6845815
  48.1264763  58.0025368  76.4709396  48.5717010  58.3398628  77.2482605
  47.6514816  58.7562790  76.1209641  68.9695587  68.1450958  63.4979935
  68.7422714  68.7213593  64.2277145  68.5351639  68.5359497  62.7398567
  45.1119461  12.6244211   2.3868961  45.2255745  13.0517416   3.2358470
  44.2116737  12.2995358   2.4008737  63.2933311  61.4781342  12.4436302
  63.9173393  60.8562508  12.0693235  62.4443054  61.0435753  12.3626976
  46.7903938  24.2835178  25.6001129  47.2184219  24.8276176  24.9390697
  47.3271866  23.4921684  25.6431522  47.2434959  33.7406769  46.5171165
  47.9376488  33.2992516  46.0277061  46.4350471  33.3328819  46.2067184
  27.8766193  64.5361633  50.6734848  27.9850311  63.8774452  51.3594627
  28.3269138  64.1670914  49.9137115  29.1927700   6.6834965  79.3965607
  30.0567608   6.3844872  79.1131134  29.0739803   7.5248275  78.9557877
  37.6681404  62.7528114  40.3195267  37.1458054  63.1522980  39.6239624
  37.5084839  61.8133278  40.2294464  75.1617279  52.3484077  57.5256958
  74.2354126  52.2309608  57.3150368  75.1894836  52.3656654  58.4823380
  49.5336876  32.1688766  44.9152718  48.8084488  32.4454231  44.3551064
  49.9055138  31.4087391  44.4678726  19.9665108   2.9353087  58.0154343
  19.5142517   2.2889512  57.4732933  20.8948574   2.7249570  57.9146652
  58.9250946  58.4427795   5.3094010  59.3824158  59.1687469   5.7337379
  59.6218529  57.8404922   5.0486140  38.7234917  46.0090523  21.2894650
  38.2256126  45.2370300  21.5584106  38.8331108  45.9060059  20.3441620
  10.9638414  39.0365067  69.4566956  10.9961910  39.9883881  69.3612823
  10.2336521  38.7647362  68.9006424  62.0072021  10.5129251  43.8770561
  62.0758324  11.4668846  43.8385468  62.7711639  10.2381048  44.3840714
  81.8457870  48.6650467  51.9677162  81.5037918  48.1094513  51.2672997
  81.1271286  48.7267799  52.5969696   5.1076388  61.1974220  69.3397293
   4.3293180  61.5406570  68.9008179   5.1432714  60.2770653  69.0791473
   7.2074132  12.0131063  14.0463724   6.9402437  12.9227619  14.1782055
   6.9321094  11.8097715  13.1524515  68.9169540  29.2058125  73.4840698
  69.2552795  28.5756912  74.1202393  67.9695282  29.0696526  73.4926834
  55.7864418  31.8387814  49.3803596  55.5040932  32.3909569  50.1094780
  54.9901886  31.3883743  49.0986824  27.5234241  69.2712936  75.5263290
  28.1939640  69.6063080  74.9310379  27.1342945  68.5329666  75.0576248
  29.7269421   2.6195397  39.1767273  30.6047287   2.8480191  38.8709221
  29.1510868   3.2505538  38.7449341  34.4777489  47.0737114   9.4138136
  33.8104782  47.1633377   8.7334137  35.1842575  47.6560478   9.1345940
  34.2553444   0.8186467  11.0421534  33.3437462   1.0755596  11.1807623
  34.2399940  -0.1382485  11.0607977  76.1099930  19.3349056  15.8583612
  76.6576920  18.5585194  15.9744749  75.7542114  19.5095215  16.7296600
  57.9383583  20.9963303  52.7693672  57.5495224  20.2391548  53.2072296
  57.7868195  21.7250080  53.3712769  55.3965454  18.9490833  55.5967941
  55.3139725  18.1152611  56.0595627  55.9405861  18.7476101  54.8354416
  19.6359425   9.8926153   9.7092829  19.4333153  10.8242989   9.6247835
  20.0710278   9.6666079   8.8871803  37.7535820  54.0996399  36.4305763
  38.0154762  54.8100204  35.8449097  38.5135498  53.5182610  36.4566803
  11.0413294  49.3632851  66.6363983  10.4696922  49.0444984  67.3348541
  11.8104172  48.7949638  66.6782150  54.9473495  58.3203545  33.1484489
  55.8598175  58.0473709  33.2439232  54.4918976  57.8911057  33.8727036
  71.5885162  18.8694935  18.2951736  72.2836075  18.2123680  18.2595520
  70.7818909  18.3607082  18.3772125  47.3910561  42.4693031  71.0558777
  46.6900215  42.9510841  70.6169357  48.1974144  42.8408279  70.6981277
  34.8368301  65.4493713  66.0506744  34.7754478  64.6694183  66.6021576
  34.3255005  65.2323608  65.2711334  61.1312180  34.1782188   3.4700112
  60.3279610  34.2634125   2.9564388  61.0143661  33.3670769   3.9646125
  46.1237564  66.3549728  34.0958214  46.3206329  66.1605377  35.0121574
  45.9746208  65.4982147  33.6958771  36.4853134  61.8656502  51.5333977
  35.8241539  61.6464005  50.8768692  36.9493294  61.0432129  51.6899681
  12.9189415  36.9855957   6.9917345  12.3412714  37.2913246   6.2924075
  12.3246174  36.6721535   7.6734700  63.0781403  64.9387817  49.0777321
  62.8102875  65.7334976  49.5391617  62.3123169  64.3662872  49.1223412
  53.0919571  43.4254837  15.8508492  52.5384560  43.0856438  15.1477318
  52.9793816  42.8009071  16.5674133  83.8758621  48.6961174  28.3199253
  83.3904495  47.8904572  28.1423950  83.2014236  49.3718529  28.3888054
  14.6641197  23.3061104  15.1310873  15.5435953  23.3129063  15.5088549
  14.0798273  23.2336140  15.8857918  39.8268509   9.4157581  77.0175171
  40.3477020   9.4607916  77.8193359  38.9213486   9.3605919  77.3228912
  61.9947929  32.5426826  88.9225693  62.0937920  32.3473320  87.9907608
  61.7286377  33.4617920  88.9476471  50.4224968  29.7719593  43.9653282
  51.1975098  29.6249218  43.4231415  50.2179260  28.9106350  44.3293419
   5.3979001  38.1629753  88.1189575   4.6192675  38.7110138  88.0208817
   6.0478601  38.5649452  87.5425797  10.3661022  69.3539505  64.6871185
  10.7328196  70.1112289  64.2307434  10.6332693  69.4712372  65.5987701
  78.0350571   4.0841794   1.8128544  77.1179352   4.3493094   1.7433537
  78.5284424   4.8966770   1.7003902  84.0868378   1.9636111  83.9907684
  84.2826004   1.7268057  83.0842133  84.9373703   2.1865301  84.3690948
  45.7082748  47.4689293  43.6989937  46.1498260  46.8470383  44.2773666
  46.4162636  47.9965973  43.3294678  82.8116302  17.0829144   2.5665801
  82.2907181  16.2906551   2.6977456  83.5302658  16.8056984   1.9982988
  76.6437302  68.9168854   8.0497599  77.2031937  68.2909317   8.5095549
  77.2209549  69.3250351   7.4044261  23.8784351  42.5498085  88.2727051
  24.7659435  42.6571693  88.6148071  23.7973995  43.2263794  87.6004562
  53.5017776  43.1873207  19.9877739  53.9328270  43.8255653  19.4193783
  53.7615166  43.4413528  20.8733444  23.6701775  53.4709206  33.7210274
  23.4830456  52.5478439  33.5503044  24.3682880  53.6917839  33.1045113
  42.0305748  56.9736595  25.6617260  42.8554077  57.2374611  25.2539406
  42.0422592  57.3958626  26.5207005   1.5172931  59.6734581  85.8880005
   1.6792049  59.9204254  86.7985077   2.2761867  60.0084305  85.4103928
  51.3706627  32.5784683  42.0853767  51.3422737  33.4896011  42.3773651
  50.5221405  32.4346886  41.6663666  39.2157516   3.0222983  35.0590706
  38.2814903   3.0213239  34.8507805  39.3474159   3.8238509  35.5654411
  43.5711555  39.2370644   2.3459220  42.8904533  38.9326859   1.7457269
  43.7387886  38.4879265   2.9176927  20.3791103   5.0332665  36.9384727
  20.0363083   4.2044020  36.6042557  20.3648949   5.6204901  36.1826973
  31.6146584  49.0166855  70.5523224  31.3408566  49.7526321  70.0049210
  31.0179749  49.0396309  71.3004379  68.1559906  30.6467247  83.8253174
  68.7779236  31.3120689  83.5307846  68.1068039  30.0262222  83.0981445
  61.2105255  44.2385445  27.5421867  61.8793564  44.4841957  28.1813698
  61.1529503  44.9917374  26.9542904  45.3988800  29.0820560  82.5798492
  44.6881599  29.0866852  83.2210083  46.1138916  28.6207104  83.0181961
  20.9595146  49.6322289  64.0345917  20.1155872  49.6852608  63.5860367
  21.3100662  50.5218773  63.9913483  13.3984089  13.9206009  11.1447287
  13.2369585  14.3639555  10.3119011  12.5340014  13.8493233  11.5496359
   6.4952049  52.7004776  80.3637314   6.1485724  51.9752998  79.8439178
   5.9987836  53.4643936  80.0700836  39.0951080  58.1038971  58.3328972
  38.6623917  57.3598824  58.7517433  38.9901428  58.8234825  58.9553261
  74.0477600  21.5604076  45.3976746  73.3771896  22.1207638  45.7882690
  73.6233749  20.7073479  45.3059502  62.5995979   5.4831338   9.3710098
  61.6895409   5.3457255   9.6339664  63.0800438   5.5489159  10.1962843
  11.7950716  38.2268639  42.9447174  11.7674332  37.9526558  42.0280495
  11.1605673  38.9413948  43.0002136  31.1317425  51.2283669   8.0651884
  31.4478798  50.6444321   8.7546158  30.7817192  51.9856148   8.5345345
   6.7450333   6.4855571  25.9402351   7.3586864   6.5924630  26.6670322
   6.7935405   5.5551367  25.7206974  57.9947510  67.0529556  54.4472313
  57.7572784  67.9780273  54.3833694  57.2554283  66.5882721  54.0551834
  11.6840706   9.3886461  76.8889542  12.4343233   9.8831673  77.2188110
  12.0716572   8.6469135  76.4243698  39.2604294  61.4297104  62.7236061
  38.9407768  62.3051605  62.5053368  40.1038170  61.3641014  62.2756996
  70.0285263  20.0694580  41.0841904  70.6780548  20.5876160  41.5594406
  70.4329605  19.9005260  40.2332344  69.1897202  33.0942154  50.2774849
  68.3997498  33.6328011  50.3233719  68.8696823  32.1940651  50.3369751
  29.1583805  70.3064041   2.2120297  29.9045982  70.1172028   1.6431766
  28.5337601  70.7589035   1.6451758  58.0265465  48.7461128  63.4549675
  57.5426483  49.5719757  63.4502907  58.9385490  49.0036430  63.5897255
  67.9344788  21.3355122  61.4158134  68.6092682  21.8044949  60.9249458
  67.6103973  21.9758759  62.0491676  71.0866089  25.8006382  86.7202072
  70.6389160  25.3327160  87.4250793  71.9885635  25.4822140  86.7564392
   8.7293491  64.5274734   7.1193118   8.2430906  64.1648865   6.3788261
   8.1682587  65.2265167   7.4550838  45.5376549  40.6076851  30.6930580
  44.7458000  40.4870872  30.1689854  46.1851578  40.9456482  30.0743885
  15.8326607  55.5033836  57.3789711  15.6271944  56.1846886  58.0191612
  16.5823822  55.0409775  57.7535820  86.9992752  30.3983746  20.7914505
  86.2574463  29.9513550  20.3839054  86.6197510  30.8585529  21.5400677
  76.6694412  34.1191940  27.4046478  76.6067963  35.0374718  27.1418266
  75.7935791  33.9009514  27.7231884  85.7963409  14.8470774  30.4592228
  86.3854065  15.5929298  30.3454475  86.3793793  14.0950689  30.5630741
  14.3085537  25.2844028  78.5242004  14.4838657  24.7907314  77.7230911
  13.6647501  25.9430656  78.2636032  60.7917709  12.7340517   9.8268423
  60.5934448  12.8539371  10.7555647  60.3121796  11.9434128   9.5796309
  83.0877914  35.2352753  86.6521988  82.4132538  35.9058838  86.5448837
  83.5165558  35.1879501  85.7977066  84.8002853  17.0902233  11.9064922
  85.3887329  16.6446781  11.2970285  85.0079117  18.0190105  11.8041458
  69.5176926   8.2485886   0.4109053  70.1333618   8.3070421   1.1415004
  68.9248123   7.5373840   0.6536239  46.2523193  32.0458984  72.8319778
  45.7083092  31.4691792  72.2956238  45.6775970  32.3213539  73.5461578
  47.6346741  45.0360985  72.6674118  48.2849808  44.5804939  72.1328430
  47.2897415  45.7202110  72.0936050  50.7755318  69.3426437  77.5611115
  50.0223083  68.7652817  77.6857910  51.4819107  68.9244995  78.0534744
  51.8883438  52.2408638  49.7971725  51.1777992  52.7822037  50.1411362
  52.6849442  52.6425972  50.1439781  25.5102730  59.4366913  34.9466248
  25.6120472  60.3245049  34.6036034  26.1428738  59.3827095  35.6629562
  37.5139465  58.0882072  87.4760437  37.9802513  57.4339981  86.9556656
  38.0676460  58.8678055  87.4326782  76.0500717  49.3554306  32.5591850
  75.9211349  50.3016129  32.6251030  76.4192047  49.1044388  33.4059296
  48.9859428  46.1281204  41.6878700  48.9971237  45.6154518  42.4961243
  48.7192574  45.5045547  41.0123863  39.5289726  37.4004898  79.6820831
  39.2995758  37.9634781  78.9427185  39.7740021  36.5665588  79.2811432
  75.9383392  18.4160633  86.3968887  75.7571640  17.5926590  85.9436646
  76.8033676  18.2895813  86.7867279  82.1936417   4.5494909  34.9396973
  82.0587234   5.3809495  35.3943481  81.5483627   3.9576097  35.3263855
  61.1938133  53.9566879  26.9394302  60.8909416  54.2228394  27.8075695
  62.0836105  53.6350136  27.0843906  63.1450233  53.5110435  68.3781357
  63.3752708  53.9977036  69.1695709  63.9661102  53.1062698  68.0984802
  44.7856102  46.4522705   8.4050608  44.3891144  47.3146858   8.5286045
  45.6303253  46.5108490   8.8514423  31.1702080  56.2338257  72.5983734
  32.1063080  56.0514717  72.5165558  31.1270924  57.1556168  72.8526840
  82.1484909  20.4909935  58.3253403  81.7705002  19.6263847  58.4859962
  81.4938354  21.1043797  58.6591301  49.0318413  31.0691013  12.7824135
  48.2704010  31.4724483  13.1992483  49.2507019  30.3288879  13.3484669
  74.4273911  30.4621601  24.0825443  74.8302002  31.3021545  24.3025112
  73.6965866  30.6901512  23.5079346  82.2717133  37.9148026  79.8459167
  83.1733932  37.9388847  80.1662827  81.9245300  37.0837059  80.1699219
   6.7231431  15.1264448  75.2845764   6.3556218  15.7828312  74.6926956
   6.3025870  14.3069391  75.0242310  63.1817970  34.0918465  31.8555241
  63.6682243  34.4914017  32.5766182  62.3821030  34.6135292  31.7879753
  54.8373871   7.4047394  32.1553192  54.6881142   7.3460479  31.2116528
  54.0006180   7.7026572  32.5121002  85.6311951  28.9747238  35.0082359
  84.9536209  29.0500526  35.6801338  85.7857742  28.0334644  34.9284325
  34.2078857  43.9106445  75.6982422  34.3232040  44.2561073  76.5834503
  34.9801750  43.3644218  75.5518112   2.6467919  44.8951302  51.5044899
   1.9073043  44.3927879  51.8466034   3.2544436  44.9588165  52.2413330
  50.1820297  61.2638817  87.5496826  50.0663490  62.1625595  87.8582687
  51.0170021  61.2769012  87.0818405  23.3552971  55.5944290  88.1194153
  22.6989346  56.2900467  88.0801620  24.1847363  56.0373802  87.9403763
   1.5500207  65.0825577   9.1475668   1.2122339  64.9681854   8.2592812
   1.0271806  65.7964554   9.5125599  31.1083241  12.3550472  86.1836319
  31.2644291  11.4252176  86.0184631  30.3715363  12.5789099  85.6150742
  37.9989433  25.2861214  86.7734070  37.3033104  25.7372475  86.2950592
  37.8552971  25.5268707  87.6886292  55.9488182  69.1157837  59.5726624
  56.6435318  69.4188614  60.1572571  55.3045349  69.8236618  59.5791473
  78.4364853  20.0058994  10.0431929  77.5101242  20.1516132   9.8512430
  78.8859558  20.2095261   9.2229815  63.2239380   4.8960581   3.0895824
  63.5394096   4.3374419   2.3791900  63.4601746   5.7834363   2.8194256
  75.0292435   9.8380404  16.0979214  74.4281464  10.3327675  16.6548386
  74.4966049   9.5706387  15.3489065  70.5120316  23.4972572  34.3585587
  70.8370132  22.5977802  34.3190842  69.5984879  23.4343071  34.0798111
  19.4885025  13.6613674  76.4885712  19.7100849  13.3989687  77.3820419
  18.6431293  13.2454548  76.3194809  55.9760170  58.4494629  15.4796171
  56.1801987  57.6096458  15.8910179  56.7638779  58.9774246  15.6090908
  38.6906509   6.1560779  12.3374462  38.2522392   6.1332836  11.4868536
  38.7105675   7.0839205  12.5718451  60.0110245  69.3236084  48.9640617
  59.5405846  69.4104538  48.1349792  59.3903465  69.6306000  49.6249275
  12.3926239  42.3264122  51.3655281  11.4891434  42.6398354  51.4069862
  12.3132706  41.3746529  51.3016014  70.7241135   7.4014559  22.7498837
  69.9734879   7.2571292  23.3260460  70.4560699   7.0295539  21.9096031
  31.5201550   0.7877456   5.0023785  31.8117199   0.1600812   4.3411231
  30.5754738   0.8585903   4.8653011  18.1228943  48.8175049  53.4115410
  17.5267982  48.5098534  52.7287140  17.6267223  48.7201767  54.2242966
  71.9709549  21.2541161  11.2027750  71.6851349  21.8792133  10.5365963
  71.4125061  21.4372120  11.9583187  66.3901367  17.0347729  70.6363831
  66.9651413  17.4136887  69.9715347  65.5263977  17.3983135  70.4413834
  16.2173843  67.9969254  70.3783417  16.0431728  68.3212814  69.4947891
  17.0278587  68.4346237  70.6387024   5.3502321   7.7336974  20.7874813
   6.0783343   8.0137415  20.2327976   5.7543106   7.5396276  21.6332302
  63.9721718  61.1766815  28.7445202  64.9198914  61.2433014  28.8612194
  63.8604355  60.5071793  28.0696011  67.4442520  46.9056816  29.5626106
  67.6223068  46.1561546  30.1307125  67.1516800  47.5944443  30.1594696
  52.6293716  59.6568718   4.4556737  52.5572929  59.6575012   3.5011916
  52.0574112  60.3699722   4.7395315  77.7488022  70.6321182  54.9940834
  76.8288727  70.6486588  55.2580643  78.2206345  70.3743362  55.7860146
  53.9320908   2.4528432  81.6282578  54.7301788   2.1470571  82.0592880
  53.2484856   2.3521125  82.2906570   2.9894087  66.7875671  77.4332657
   3.0583420  67.7322235  77.2950516   2.8048263  66.6950989  78.3679352
  66.6334610  61.8574753  82.2839584  66.2596130  62.2230072  81.4821701
  66.9510422  60.9917870  82.0271454  83.6527252   2.5311620  75.9789047
  82.7707291   2.9028766  75.9908600  83.5423965   1.6652521  75.5861435
  54.9876213  53.5277786  34.2425537  54.6796570  54.0628967  33.5110893
  55.3275414  52.7330055  33.8314323  72.4595871   4.8422337  20.4632111
  71.7122116   5.4186378  20.6226254  72.7389603   4.5653791  21.3358707
  16.9520798  17.3477497  71.7262268  16.4589615  16.7831821  72.3214798
  16.6101055  18.2264309  71.8911667  64.8168411  43.1597443  51.7084045
  65.6588669  43.5855064  51.5472794  64.1956863  43.6437836  51.1642532
  39.3133240  11.8491116  81.6819992  38.5968895  11.4170475  81.2169495
  39.9145546  12.1267071  80.9908447  18.3517361  16.8865547  69.1884995
  19.2367897  16.6645794  69.4777069  17.8495140  16.9726543  69.9988022
  77.5517807  35.0837708  59.1598473  78.0684738  35.8505287  59.4075241
  76.6442184  35.3471451  59.3121681  21.2391281  50.8822746   8.4152937
  20.8171501  51.6921005   8.7022648  22.0101261  51.1734390   7.9284501
  52.9014091  47.1042290  64.5106735  52.8162804  47.6984177  65.2562790
  53.8383446  47.0983429  64.3148499  80.3681335  35.3504524  40.7404671
  79.7096024  34.7603683  40.3739090  79.8604889  36.0291901  41.1852722
   6.4072628  57.4573059   4.9658160   6.8008766  57.0451698   5.7348704
   6.6030331  58.3888245   5.0667105  30.4614258  55.3231316   6.0638080
  31.1597500  55.7929764   5.6079340  30.1127872  55.9592857   6.6883011
  55.1721916  47.0373344  70.2585754  54.4459801  46.5447960  69.8761444
  54.8866386  47.9503098  70.2244720  62.2412071  62.8213844  30.5024624
  63.1529236  62.5425034  30.5874615  61.9735718  62.5054665  29.6394463
  61.5600853  17.8784733  43.9309959  61.2291489  17.8937950  44.8290367
  61.3302689  18.7373409  43.5763664   4.9708624  42.8318558  18.3085632
   4.2579403  42.3209724  17.9251900   4.9220924  42.6451187  19.2461052
  62.5949364   9.5460863  13.2179403  61.7437096   9.9472942  13.0427942
  63.0029945  10.1224861  13.8640709   6.7634940   2.1704948  16.0804558
   7.6665263   1.8906733  16.2303371   6.2657037   1.7630022  16.7892475
   0.5342745  56.9021225  44.0553856  -0.1111450  57.5390320  44.3619995
   0.8349035  56.4636230  44.8513603   8.1142836  19.8731499   7.8567343
   8.4337025  19.0395718   8.2022076   7.4379387  19.6274166   7.2255411
  44.8926277  60.4398727  37.3910904  45.1065865  59.8977623  38.1504135
  44.3227539  61.1255989  37.7393074  39.3784523  10.4615822  63.4430199
  38.9254379  10.0674162  64.1884384  39.7451973  11.2753754  63.7886658
  78.5036926   9.0796061  40.2070198  78.0312347   9.9120569  40.2002640
  79.3198242   9.2711468  40.6690407  74.7296066  59.4293671  17.2450619
  73.9562149  59.8393440  17.6323776  75.4627228  59.7670326  17.7596035
  59.0281258  29.8020649  51.0697441  59.2255325  30.5203362  51.6708679
  59.7255859  29.8389835  50.4152031  72.1320648  22.9823647  20.5594578
  71.8816223  22.7433853  21.4518700  71.7218094  22.3154793  20.0088387
  86.8018494  40.9322510   8.4667082  86.7145157  41.2815704   9.3536015
  86.2318954  41.4866142   7.9337349  34.3406410  61.0619659  30.8238087
  34.2622185  61.9751434  31.0998325  34.9673882  60.6791649  31.4377155
  32.7016754  61.6919212  82.0878067  32.9736366  62.4696732  82.5750122
  31.7722015  61.8342896  81.9088135  42.8484993  62.6486511  17.1268845
  42.3846321  63.1900597  16.4881859  43.6740417  62.4253197  16.6969566
  50.7172890  10.1756296  69.0714874  49.9958649  10.2515497  68.4469757
  51.2750435  10.9311323  68.8861313  63.6684608  50.7127380  37.5580750
  63.3602448  49.9464378  38.0418320  63.8295174  51.3727913  38.2323303
  43.8755341   0.8996700  16.4644699  44.5208282   0.2429651  16.7263241
  44.2901001   1.3669441  15.7391968  78.4451675  26.6779957  78.0317535
  78.8678360  25.8626404  77.7619781  78.1760101  26.5202408  78.9366837
  74.8709488  46.4698792  71.7282104  74.5569000  45.5658760  71.7085571
  74.6184998  46.7923813  72.5933609  54.1313705  44.4656448  38.9430618
  53.2962265  44.8608437  39.1932373  54.6421852  44.4526215  39.7524605
  21.9694767  68.2706909  45.2528000  22.7205772  68.5471878  45.7778015
  21.6186199  69.0839157  44.8897667  78.2993240  14.3459368  59.6919479
  77.3460464  14.2862797  59.7546959  78.4722214  14.4409418  58.7552986
  30.6523113  64.8143311  77.9902802  30.5542583  65.6625900  78.4228134
  30.4057293  64.9795761  77.0802689  48.6458893  52.8809662  40.3124542
  48.7031708  51.9256668  40.2937431  49.5111351  53.1783485  40.0311279
  48.6505585  21.6975822  59.0277290  49.1480293  20.8973217  59.1960678
  47.7992058  21.5407505  59.4361839  53.6200066  53.9127159  10.9182844
  54.3231125  53.2638855  10.8884573  53.0456429  53.6771469  10.1896915
  60.3596420  31.3162937  52.9750710  60.2344780  31.7057552  53.8404541
  61.1458931  31.7414055  52.6325455  38.5506210  58.2539711  71.1589127
  39.0888748  57.6032524  71.6095428  38.4095345  58.9408226  71.8104935
  16.6717224  37.2094002  46.9029160  17.3978100  36.9511604  46.3351631
  16.8982105  38.0924568  47.1947136  43.1444969  41.9258652  32.4724922
  42.4010277  42.3652306  32.0596466  43.8622055  42.0318031  31.8480701
  19.8849201   1.7500855  70.1507034  20.2407207   2.6281121  70.2874832
  20.2192307   1.4870821  69.2932129  23.5436687  71.2794571  46.5049858
  23.1934433  71.9773483  47.0586319  22.9222717  71.2143936  45.7798233
  54.2805634   0.6267076  37.3463936  53.7486382  -0.1442041  37.1489487
  53.7064095   1.3687857  37.1569214  12.9463692  51.2306671   3.3879395
  13.6041565  51.9182587   3.2841945  13.3369217  50.4611282   2.9737954
  14.7880735  56.5106201  80.8577423  14.2961607  55.7522392  80.5429153
  15.2797565  56.1816216  81.6102295  43.0135422  62.9992104   6.2826495
  42.4219284  62.3606606   5.8845577  43.6630516  62.4687538   6.7441554
  39.1208305  40.3833046  73.3613968  39.6886215  39.7526474  73.8042526
  38.2368469  40.1500893  73.6449738  33.5461388  47.3331833  76.2262726
  33.7616882  47.9413986  75.5192719  32.9193611  46.7242699  75.8356171
  34.9652672  58.7000122  37.3973312  34.6405907  59.4805222  37.8463554
  35.0458069  58.0423584  38.0881538   1.4687823  29.3248539  84.6777725
   0.5222092  29.4627495  84.7126541   1.7230818  29.1775036  85.5887375
  63.2667542  64.3980865  82.7357025  62.7909164  65.2278900  82.7005768
  63.5082092  64.2217636  81.8264008  80.2997055  17.4323215   7.9308176
  80.4587784  17.1213531   8.8220129  79.9275742  18.3067837   8.0451174
  25.4316273  59.1133766   0.6652735  26.0802288  58.4933472   0.3319396
  24.9148769  59.3556862  -0.1031580  39.8943939   7.7359381  73.4590378
  39.5564537   7.7813077  72.5646286  40.6937141   7.2142954  73.3868866
  83.4236755  64.9115372   4.6412344  83.2149734  65.4819107   3.9014089
  83.3964157  65.4890823   5.4040766  68.9199982  59.8584404  30.1497154
  69.5363235  59.1870766  29.8570690  68.9006348  59.7669067  31.1023312
  20.3252239  47.3787460  81.2711182  20.9241257  47.2834930  80.5305252
  20.3566895  48.3109322  81.4862289  72.4933624  26.9003143  75.8030930
  72.5297699  25.9524155  75.9311371  72.7550354  27.2663517  76.6479492
  55.5968781   2.5070901  83.9504318  55.8261414   3.3902068  83.6609879
  55.1029739   2.6408384  84.7593842  46.9077950  50.0728378   1.2383226
  46.4617195  49.9655724   0.3982372  47.2199898  49.1949387   1.4575483
   9.2905703  41.0548897  52.9114571   8.9720993  41.6292839  53.6077881
   9.5819445  41.6523094  52.2226715  54.8095856  46.7088394  48.4722176
  54.0190964  46.1693649  48.4903069  55.5287247  46.0829239  48.5576897
  65.9526138  17.1913624   7.1291656  65.0994034  17.4092350   7.5044007
  66.5605164  17.8022175   7.5457506  28.5083084  64.0108948  73.3103256
  28.9994678  63.4672241  72.6943588  27.8783073  64.4816360  72.7646790
  63.9176102  31.0768013  21.2101860  63.0127258  30.7812176  21.3104210
  63.9993019  31.2868710  20.2799015  74.0772324  15.7166033  16.3884544
  74.6948471  15.9144506  15.6844406  73.2156601  15.7814474  15.9764843
  23.8309555   1.2033681  13.5167618  22.9319611   0.8837451  13.5934505
  24.0737305   1.4518156  14.4087067  23.9498672  57.5029602  39.5979347
  23.8596058  57.1369324  38.7181015  23.9138851  58.4506111  39.4679565
  39.4941292  60.8741417  19.3533154  40.2804184  60.8164864  18.8104916
  39.0163498  60.0653343  19.1695023  37.2675858   6.6041422   5.9728184
  37.7005806   5.9903183   5.3795505  37.9536362   6.8696685   6.5852418
  41.6693420  62.7134247  73.6949005  41.5476341  61.9415550  73.1420593
  41.0970230  63.3768044  73.3094025   5.6112037  68.3393707  21.5807018
   6.4777346  68.7411957  21.5182858   5.7190928  67.4746399  21.1846828
  80.3777161  60.8317833  70.8779068  80.9616623  61.3892021  71.3922195
  79.5534134  61.3170471  70.8421173  74.6716232  46.7333870  61.8667793
  74.0519485  47.3374290  62.2758865  74.1203537  46.0822144  61.4328346
   2.1615007  66.4115372  43.5200806   1.7105154  67.0478973  44.0749626
   3.0636981  66.7283936  43.4767990  69.7554169  14.2919683  69.0792389
  69.8889008  14.6063490  69.9734268  68.8122559  14.1411161  69.0166779
  43.5168457  14.4270058  86.3262024  42.7060242  14.0999393  85.9365540
  44.1870384  13.8057089  86.0414886  68.9540100  62.1721764  45.7427063
  68.0316544  62.3104477  45.9580650  68.9971390  61.2629395  45.4466438
  52.5778694  46.3467560  43.3975487  53.1806641  46.0834694  44.0929298
  51.7886429  46.6299591  43.8592262  26.4210911  66.8206940   7.1562066
  25.5939960  66.3417511   7.1036696  26.7118931  66.8968735   6.2474365
  70.7877350  15.3840799  78.9601212  70.5395432  15.7302647  78.1029205
  71.6266403  14.9486732  78.8088455  66.2417679  67.6710510  19.1613407
  65.7304688  68.4560776  19.3576603  66.9319229  67.9758301  18.5722580
   0.6412359  60.0494003  43.9047394   0.5988394  60.7152252  44.5911140
   1.0777358  60.4865837  43.1735916  58.8085365   5.8073335  42.5393295
  59.4653320   6.4695468  42.3240967  59.3158607   5.0144782  42.7132225
   2.8879962  12.2280960  48.7005310   2.5776942  13.0290747  48.2781830
   2.2489984  11.5614500  48.4485474  50.7196770  40.0750160  87.8385010
  50.2837334  39.3600197  88.3021393  51.3092461  39.6377945  87.2241058
  17.1642971  39.6532593   8.4038363  17.2361851  39.6668015   7.4494357
  18.0652905  39.5511780   8.7104664  56.0275574  57.7946434   8.4958773
  55.4016037  58.4027901   8.1027126  55.6435585  57.5704193   9.3435211
  26.5946312  46.9428368  74.6311035  26.2287750  46.4520569  73.8952255
  26.0244656  46.7280655  75.3693542  21.0820045   3.9868596   4.2368660
  20.2305832   3.5655174   4.1194596  21.7179508   3.3122723   3.9986718
  43.3381577  64.8607635  68.3751526  43.3105087  65.7227859  68.7903366
  44.0610504  64.9188843  67.7504272   1.1637160  50.0490723  45.5552673
   0.7066000  49.7638054  44.7641258   0.5413707  50.6275330  45.9960594
   5.2070036  48.3638840  52.3089142   4.5538311  48.2502136  51.6184959
   5.4553609  49.2866745  52.2540855  33.2937775  55.1652222  52.9072075
  32.9441643  54.9978027  53.7824097  32.9222488  56.0116692  52.6587639
  31.0364590  38.2721748   5.6666689  31.0581551  37.3531570   5.3998899
  31.8110256  38.6585464   5.2580228  74.6280899  36.7911224   8.2537861
  74.5853424  35.8850098   7.9482265  75.4054718  36.8193779   8.8115511
  54.1809959  11.1630936  11.3186321  54.0428429  10.4925556  10.6496582
  54.7450371  11.8106318  10.8958035  43.5111198  39.8775291  19.8855247
  43.2335548  39.9367943  20.7996788  44.0829468  40.6347008  19.7592678
  59.6731300  67.9672546  79.1707458  59.3641510  67.5185699  78.3836975
  60.4246941  68.4806061  78.8743362  10.2479172  28.9035053  12.4894896
  10.9072695  28.4551239  11.9599228   9.6610012  29.3070145  11.8500042
  52.3107147  63.7067947   1.2255803  52.0383263  63.7526245   0.3091003
  51.9253883  64.4845428   1.6291486  70.2943802  32.7572098  54.2526283
  69.7139511  32.2148323  54.7866364  71.0511475  32.1978073  54.0776939
  29.8676052  55.3802567  39.2913399  29.6359253  56.0429268  39.9420509
  30.3110809  55.8696747  38.5984955  57.9394836  56.2882195  49.3191376
  58.8872986  56.4148445  49.3621140  57.6098442  56.6687698  50.1332321
  78.3802032  60.2401581  11.8673573  78.2493362  59.8052063  12.7099257
  79.2655792  59.9897118  11.6034927  67.6260376  36.5143356  87.2748260
  67.8281021  36.0978127  88.1126251  67.2843933  35.8047295  86.7307968
  53.5929489  47.1554756  29.6671104  53.6305771  46.2330513  29.9200001
  53.9987793  47.1830215  28.8006401  60.5494003  43.9285927  36.4069595
  60.4952126  44.8321381  36.0956688  59.7052689  43.5432854  36.1719856
  20.9406052  57.7566795  69.1578522  21.0223751  57.9408531  70.0935974
  21.1271973  58.5933151  68.7318802  25.9463768  63.6538544  26.2552948
  25.2144165  64.1951752  26.5509911  26.7129002  64.2209854  26.3391705
  64.9912415  33.7481346  71.4730072  65.5058136  34.2896957  72.0714722
  64.8377686  32.9363747  71.9564590  43.4729347   2.6076832  64.1101608
  43.2808228   3.2223122  64.8183670  42.8747559   1.8755080  64.2596054
  26.2198982  51.7045403  44.5038185  26.9595261  51.3552017  44.0066833
  25.4517612  51.4845619  43.9767456  61.1463928  29.0545769  44.4617691
  60.3829498  29.1104202  43.8870811  60.8187523  28.6301670  45.2547112
  40.9127579  62.1438026  38.1683388  40.4658585  61.9244194  37.3507881
  40.3603554  62.8138924  38.5709114   5.9293799  45.8612175  22.3607349
   6.3425016  46.6396179  21.9870300   5.2514358  46.2056160  22.9421234
  34.4647636  33.9614792  78.4674072  33.7322540  33.3522110  78.5593719
  34.0647049  34.7707024  78.1490631  30.0004711  22.7044945  83.4042587
  29.9687080  21.7504368  83.3335876  30.2495880  23.0013371  82.5290146
  21.2302589  14.1012259  67.9319534  21.7551022  14.3053379  67.1579361
  20.3284435  14.2756968  67.6626587  60.4503937  34.1399193  10.3169327
  60.2447929  33.2380753  10.5631723  61.2768974  34.0750694   9.8384743
  85.7718201  34.4592438  75.9079666  85.1195068  35.1465034  76.0435715
  86.2477036  34.4137154  76.7372437  24.3760128  37.3971672   1.3869282
  23.9676113  38.0734367   1.9273919  23.6402912  36.9050102   1.0226134
  58.0616646  14.8169842  29.4139385  58.1616287  14.0092802  28.9101009
  58.6586533  14.7125463  30.1548367  83.1235275  48.1071930  81.4106827
  83.5418549  48.9352875  81.1751175  83.8436127  47.5513000  81.7084961
  74.1066208  68.0983047  75.3655167  74.4783859  67.5786896  76.0782700
  74.4406662  67.6858597  74.5689392  81.5689240  40.3409996  14.1093512
  81.0256958  40.2641983  13.3249826  81.2379456  41.1210861  14.5544844
  67.0368729  11.9628086  35.3307571  67.1971130  12.6938515  35.9275246
  66.2639618  12.2263050  34.8313484  72.3134003   8.8906641  83.4285660
  72.0029602   8.0669470  83.0526047  72.2115326   8.7761240  84.3734131
  69.6907272  35.6695480  78.5136337  69.9357834  36.1699104  77.7352905
  69.7852325  36.2897110  79.2366104  58.3553314  20.1337376  43.6447601
  59.2884903  19.9227543  43.6752930  58.1918755  20.6148186  44.4559784
  78.3861313  15.7632685  33.6053352  78.3758163  14.8643608  33.9341087
  79.2392044  16.1059990  33.8718681  75.9935455  65.1364517  43.8805084
  75.7527237  64.2116318  43.8262100  76.7329559  65.2270966  43.2794380
  24.2668056  25.2984066  81.5191116  25.0673695  24.7749729  81.5558090
  24.4778709  26.0174637  80.9235916  69.8898239  25.9016666  55.4253807
  70.3949966  26.0140781  54.6201515  70.5492630  25.8594265  56.1179085
  20.7798519  44.9348335  76.9831543  21.0145836  44.2860603  77.6466522
  20.7840462  45.7692947  77.4520798  24.9662590   0.0464552  76.1777039
  25.7248020  -0.5038478  75.9827423  25.3295536   0.9253467  76.2863312
  14.5962257  37.4476624  17.7121525  14.1126795  37.8894005  17.0140953
  14.0979786  36.6476707  17.8794727  10.8170443  30.0714321   0.6862763
  10.2547865  30.3420639  -0.0395724  10.2224226  29.6461506   1.3041697
  35.4971924  33.7269707  65.3538132  34.8997955  33.9624290  64.6439438
  36.3584175  33.6852112  64.9381485   2.3641996  12.5373201  20.6251030
   1.6844044  12.4094648  21.2867413   3.1147726  12.8736353  21.1147614
  55.7943382  50.1947594  65.8855286  55.2816620  49.5686989  66.3968430
  55.2499199  50.3822746  65.1208801  49.9497757  19.4607010   2.2314868
  49.1293678  19.0651073   1.9370915  49.6928444  20.0380497   2.9504349
  54.3429909   1.9046488  52.3030548  53.6193810   1.9333539  51.6771164
  55.0388145   2.4145982  51.8883095  84.8453903  35.5313721  19.3370285
  85.6703415  35.4175110  19.8089600  84.4807510  34.6484756  19.2756310
  36.6769867  48.2482414  13.4978561  37.4507065  48.2756462  14.0607367
  36.9552155  48.6747322  12.6873455  49.2169876  35.7810822  65.1506958
  48.9809151  36.2597008  65.9453201  48.6188622  35.0339432  65.1344986
  54.7815475   8.9738283   1.4526852  55.2776031   9.7646103   1.2409700
  55.3425560   8.2544193   1.1629398   6.8863730  63.7325745  41.9311714
   6.2495494  64.1162949  42.5340347   7.3848791  64.4802856  41.6015549
  57.2929459  29.5751991  65.5559235  56.4537506  29.1662426  65.7674408
  57.0899429  30.5063915  65.4670410  49.5504189  53.9308357  60.9604073
  48.7312317  54.3044281  60.6354637  49.3754463  53.7338982  61.8806419
  21.6379013  38.4412994  54.9498100  20.6986637  38.6253204  54.9356384
  21.7828236  37.9995766  55.7865372  13.4614401   9.0893831  74.3648071
  13.6928329   9.4461441  73.5072479  13.2436609   9.8574400  74.8929062
  29.9516315  29.8924332  77.7305756  30.3792744  30.0791073  76.8948059
  29.6124649  30.7392788  78.0204926  23.8542252  35.6215782  18.4118690
  23.4355202  34.8140450  18.7098694  24.7192783  35.6080894  18.8214226
   0.3373677  27.8407116  49.2238846   1.2034130  27.9023018  48.8208923
   0.5132077  27.6035690  50.1344223  73.2468872   5.3021255  24.1083031
  73.8945160   5.9437699  23.8165817  73.3575134   5.2651076  25.0583687
   4.2997541  50.3158493  65.2947540   5.1328354  50.5440483  64.8822861
   4.4316959  49.4273491  65.6255035  61.2543106  23.8531990   5.4433756
  60.7944260  23.4364338   4.7146492  62.0020905  24.2903900   5.0360370
  61.5442352  58.6649132  78.3779602  60.8826637  59.1645775  78.8563843
  61.1672020  57.7893181  78.2918625   8.0884047  14.3102894   1.9020355
   7.1819263  14.4503460   1.6283349   8.2457161  13.3796873   1.7424629
  52.8586082  68.1441727  10.7105265  53.0371857  67.2348480  10.4708052
  53.6249008  68.4132385  11.2171173  37.3091812  59.9019318  73.8246994
  36.8886566  60.7564430  73.7287445  37.6535797  59.9034081  74.7177887
  28.6640377   9.1953135  78.0899734  28.2726765   9.8741322  78.6397629
  29.5626602   9.4920597  77.9462585  45.8528175  59.9871521  17.8309937
  45.7440720  59.1568146  18.2946205  45.1376762  60.5363083  18.1522789
  65.2850342  26.0755234  56.0920563  65.3873367  25.9180489  57.0306549
  64.4150925  25.7339382  55.8853073  50.0524902  21.3831482  18.1578102
  50.1462059  20.8021355  18.9127102  50.2717514  20.8345680  17.4046745
  72.0914688  23.4451084   4.6141386  71.2368317  23.7086582   4.2730036
  72.6324615  24.2310925   4.5380764  52.4542656  64.6913147  79.8481369
  52.9357452  63.8847351  79.6641846  52.4216957  65.1478348  79.0074463
  37.6429024  67.7598495  72.7760696  38.5025787  67.4535751  72.4873123
  37.5892830  67.4927750  73.6936874  44.7809715  15.1170874   6.9311070
  44.7533722  14.3518152   7.5054145  43.9036713  15.4948778   6.9931664
  25.3098049  42.4995689  47.1259689  25.5827255  41.7812080  47.6966705
  24.9969006  43.1765366  47.7260017  69.2815475  35.3014908   7.7027912
  69.3455963  36.1438904   7.2528048  70.1375427  35.1843529   8.1148319
  41.9435501  58.6901550  75.8689270  42.3095322  57.8060722  75.8952103
  42.1733131  59.0698090  76.7170410  29.2813988  36.5211716  60.4963913
  29.5861511  37.2110367  59.9069481  28.4569683  36.2240448  60.1113434
  68.5310364  26.2122135  30.0208549  68.4575424  25.6801109  30.8131275
  68.0115814  25.7428665  29.3680801  63.5169945  35.6464462  53.2152023
  63.1487541  35.6256714  52.3319130  63.0872192  34.9226913  53.6709518
  31.4443073  43.9938889  16.9934349  32.2691650  44.4792633  16.9774323
  31.2334938  43.8493958  16.0709877   0.4619305   7.7991557  33.0058136
   0.5953625   7.7014184  32.0630112  -0.3134715   8.3552504  33.0815926
  85.2721329  11.7027254  56.4630852  84.9962463  12.4196167  57.0342102
  84.4557190  11.3534050  56.1057663  56.6073570  22.1953640  57.4134827
  55.7285080  22.1399860  57.0382652  56.7371063  23.1284809  57.5828629
  39.5960426  68.9161224  66.9092865  40.5091896  68.9890900  66.6316681
  39.6256676  68.3568649  67.6855545  60.9422073  14.1235857  38.2886810
  61.0521011  15.0582829  38.1140518  61.7527809  13.8649368  38.7272072
   6.0826249  43.1816559  53.6190376   6.0197763  43.5540924  52.7395096
   5.4027982  43.6329956  54.1194000  46.7860641   1.4853878  54.6981812
  46.6497498   1.7103364  55.6185303  46.1131821   0.8313428  54.5092735
   8.0450802  45.2362671  76.1309052   7.3691149  45.8492584  76.4199448
   7.6430364  44.3730545  76.2281647  76.0158615   2.7286661  56.1120872
  76.3357620   2.0019364  55.5775223  76.7654266   2.9756823  56.6537132
  28.5502090  51.2530289  61.4367065  28.6940289  51.5968704  62.3183632
  28.0527782  50.4465561  61.5723343  22.2894974   4.9447160  15.0550146
  23.0320911   4.3511314  15.1665649  22.0736103   4.8859630  14.1243305
  79.9357986  47.7196884  59.5102463  80.7252502  47.1883926  59.6137581
  80.2338791  48.5045624  59.0505180  56.8576088  28.3628807  52.0596809
  57.7367096  28.7361202  51.9955902  56.6783257  28.0205364  51.1839600
  38.2692223  54.0350571  67.9467010  39.0351639  54.2523575  68.4780655
  37.6698265  54.7695541  68.0788803  56.2670403  44.1913834  10.1384993
  55.7374649  43.6025467  10.6761341  57.0321808  43.6703033   9.8950386
   1.1492865  65.9560776  64.6866074   0.9009968  66.8494797  64.4491043
   1.5765899  65.6099319  63.9031372  22.5670986  44.4504433  39.5693855
  22.8132324  43.9839973  38.7705879  23.3241882  44.3525391  40.1468430
  86.3491898  65.1588516  24.0558605  87.0870361  65.6241226  24.4499931
  85.8119125  65.8484344  23.6659374  39.6228867  60.9233665  36.0245399
  39.2613029  60.0550728  36.2021828  39.8734169  60.8941612  35.1011696
  42.3131332  52.6305618  72.2834549  42.9312439  52.2711105  71.6470871
  41.4794807  52.6652946  71.8143616  65.5223846  37.0713234  72.4026566
  64.7277374  37.5967827  72.3095703  65.4152451  36.6214714  73.2407379
  64.5796432  40.0411263  44.7437057  65.1094666  40.4734001  44.0738907
  65.2155228  39.7287140  45.3873520  31.2240906  33.8452454  71.9322586
  31.2438393  34.7679787  72.1860352  31.9720001  33.4561195  72.3855209
  54.4433327  19.3512993  51.6676102  53.5190659  19.1757088  51.8440590
  54.5964241  20.2213783  52.0360565  10.7592545  67.0892181  72.5939102
  10.4751215  67.9933014  72.4592438  11.2772512  66.8825531  71.8159637
  80.0463791  64.9377670  88.7485046  79.2609482  64.8035736  89.2789078
  79.9866409  64.2752762  88.0601959  69.2862930  62.3964844  69.3770218
  70.2227097  62.2810631  69.2156677  69.0674744  61.7166061  70.0142975
   1.4518318  11.8206434  89.0360565   1.1250436  11.1822557  88.4020996
   2.3497701  11.5418625  89.2155609  18.3324852  13.8361359  69.5370178
  18.0347881  14.7445345  69.4878235  17.7262020  13.3545885  68.9741974
  55.9455338  67.3805161  83.9272079  55.0443573  67.6639557  84.0813828
  55.8820801  66.7689819  83.1935577   2.9681714  39.9741859  26.2790565
   3.6960821  39.3718071  26.4324093   2.2391131  39.5996513  26.7734547
  16.4545059  37.4824600  11.4459925  17.1294422  38.1607246  11.4204836
  16.0204239  37.5444031  10.5951300  50.8310432  68.7584763  85.7404099
  51.5189629  68.4478989  86.3290939  50.6991234  68.0375137  85.1247559
  66.7938385   2.1860511  78.8671875  66.0883255   2.4720452  79.4474487
  66.3649597   1.6095418  78.2347870  34.7639580   8.9916906  10.0112467
  35.1963463   9.5396662  10.6662254  35.1088028   9.3019838   9.1739693
  47.8249245  44.9535370  11.1902952  47.8291779  45.1724968  12.1221056
  48.6795311  44.5514030  11.0348520  34.4091530  61.0236206  61.6398239
  34.0622025  60.2801514  62.1328888  34.7796097  60.6339149  60.8479156
  53.0011406  59.2134590  48.8055573  52.0791359  59.1074791  48.5712280
  53.4594498  59.2461548  47.9658432   8.2399225  61.5392189  37.9675713
   7.6664491  62.2696457  38.1996040   7.7209067  61.0103378  37.3616524
  40.9420776   9.8860426  10.6647158  41.8059998  10.2973948  10.6903667
  41.1233292   8.9568577  10.5233126  85.5633545  53.9121246  35.6626396
  84.7560577  54.2366066  35.2636185  85.2775040  53.4917755  36.4737053
  28.1480236  50.5428314  26.4483566  28.0095501  49.6161308  26.6440163
  27.2835941  50.8656578  26.1938438  14.6295233  60.4646835  58.6532364
  14.0133934  61.1215172  58.3289146  14.7090883  60.6520958  59.5885315
  35.3422966  49.1193466  47.8303337  35.0985641  48.6163025  47.0533028
  36.2024231  49.4829941  47.6201630  42.7075882  55.0204926  61.2120590
  42.7183151  54.9751549  60.2559929  43.2044945  54.2524376  61.4938507
  84.6726151  17.6526718  81.8469086  84.4076233  16.7787743  81.5600052
  85.1472473  17.5026760  82.6644974  71.0629883  46.4399796  76.5175552
  70.2989655  46.6498528  77.0546417  71.5436249  45.7889557  77.0288162
  26.5617847  60.7891541  87.3559418  26.9425907  59.9307365  87.1706543
  27.1324883  61.1646805  88.0263977  80.2305527  38.9100151   7.3648052
  80.1158905  39.7807465   7.7454739  81.1492615  38.6964264   7.5278296
  11.0006237  18.1229630  13.0768127  11.4692688  18.6887646  13.6903858
  11.4377365  17.2746811  13.1515360  64.5700455  41.1156197  65.1276245
  64.3825989  40.2400284  64.7893372  65.5173874  41.2122078  65.0304108
  51.5452347  15.3146973  88.4116821  51.5047226  14.3583851  88.4041138
  51.3828316  15.5540848  89.3241272  42.2856674  63.2807579  42.0499992
  41.9599266  62.4775429  41.6438332  41.5250626  63.6461296  42.5018959
  27.8155727  57.1220627  62.5299568  28.0005703  56.2188683  62.2725754
  28.6781635  57.5127373  62.6697617  72.8541107   8.2823505  23.9891987
  73.4017258   8.3863811  23.2110462  72.1142120   7.7526021  23.6922989
   5.4622946   5.3102932  29.7523575   5.2608461   6.0409021  29.1676674
   4.9748926   5.5030823  30.5532951  48.2827377  13.4002810  54.6964912
  48.4411011  13.7379284  55.5780487  48.0848122  12.4729290  54.8271675
  64.3587418  39.8315201  57.9123993  63.6233788  39.2188301  57.9035721
  65.1164780  39.2929764  58.1405334  70.0913696  22.9435635  87.3128281
  70.5234375  22.9032707  86.4596481  70.5457382  22.2884655  87.8425751
  67.3341141  34.4837685  59.5272942  66.7231293  34.5949097  60.2556992
  68.1280365  34.1341209  59.9318428  60.7021446  17.8893433  81.0347672
  60.6854858  17.3338451  80.2554245  60.0829086  17.4763050  81.6365814
  46.9526596  18.4845982  80.6676178  46.1886597  17.9822121  80.9507217
  47.0512428  18.2685051  79.7403564  48.8324699  30.4659595   9.9896193
  48.1229553  30.0737915   9.4806709  48.5224838  30.4367104  10.8947620
  61.3519402   6.7119322  57.8396416  61.5144653   6.3143034  58.6950417
  62.2124825   6.7406168  57.4214554  28.5581512  40.7722816  67.4456940
  29.4244728  41.1184998  67.6598206  28.0870819  41.5183411  67.0745926
  75.8230896  35.6889725  79.1656418  75.9941406  34.8683243  78.7035675
  74.8759155  35.6931305  79.3037872   0.4007589  68.8422852  14.5731840
   0.2423433  69.6038361  14.0153503  -0.2639085  68.9054031  15.2590885
   9.3368902  68.1957321  68.9653091   8.6366339  68.4559860  68.3668594
   9.1424580  67.2831879  69.1790695  36.0170403  52.0131226  83.4248581
  35.5926285  52.0495453  84.2820511  35.5698624  51.3018417  82.9662247
  34.5214615  12.5241079  79.0124283  34.2956772  12.2567520  78.1214905
  35.2242813  13.1640673  78.8995972  84.7687302  51.8432121   9.5686979
  84.5422745  51.0225105   9.1312075  84.5974197  51.6758080  10.4954453
  84.6158524  29.6010818  32.5055275  85.1388245  30.4026909  32.5179024
  84.9065094  29.1135559  33.2762871  83.2702332  61.1033554  77.3122635
  84.0302277  60.9679375  77.8782120  82.5527115  61.2942352  77.9163818
  36.8749046  47.7621498  73.4539413  36.4481392  46.9878502  73.8207703
  36.4409180  48.5001984  73.8819275   0.2066468  24.4862938  88.9394455
  -0.3745934  23.7608681  89.1678085   0.9347923  24.0728989  88.4756165
  80.6662903  71.0535889  36.3918724  80.2284241  70.2319107  36.1697197
  81.2497711  70.8259659  37.1157303  14.7154922  55.0150986  43.0775299
  14.5768232  55.9622002  43.0768623  14.3578663  54.7200813  42.2400932
  53.4752541  34.3514748  84.5317307  53.4497337  35.3082771  84.5423584
  52.5552750  34.0872421  84.5392990  72.9138870  31.8343010  30.0057964
  72.7315750  31.0036297  29.5665016  72.0699310  32.2855377  30.0246735
  62.8993721  32.4612007  80.0845413  63.2533226  31.6172295  80.3650131
  63.1633759  32.5388947  79.1677551  27.7304935  58.2849007  50.6614227
  27.3287067  59.0755653  50.3013535  28.4313202  58.6087646  51.2272720
  70.3776245  63.3304176  76.8518524  69.4280396  63.2629814  76.7519608
  70.6540222  63.9006996  76.1344910  41.2244263  57.8403702  87.9432526
  40.7117805  57.0536079  87.7576904  42.1276512  57.5291557  88.0029449
  51.0627975  48.8312988  39.6040802  50.7782249  47.9208450  39.5245819
  51.3227386  48.9218140  40.5208511  62.5453949  51.4829712  18.8038044
  63.2627983  51.9772415  18.4072399  62.7279053  51.5078659  19.7431145
  44.4410324  33.0413475  23.7319489  44.8772430  33.0764999  24.5832539
  43.9877815  32.1982651  23.7297020   9.0708113  48.2076874   6.1117625
   9.0550184  48.1499901   5.1564336   9.9492474  48.5271873   6.3179240
   5.1282763  71.6029282  41.7119446   5.8679571  71.6734924  42.3153725
   5.5245976  71.3634338  40.8742104  55.9413490  19.9138355  59.5357666
  55.4695358  19.4787140  58.8256302  55.9565468  20.8369102  59.2829170
  74.3158798  15.0969229  30.8977966  75.0459213  15.7000446  30.7581005
  74.6782913  14.2328300  30.7022724  59.0824928  71.2529373  43.0722542
  59.4119720  71.1336517  42.1814995  59.3931961  70.4824753  43.5477371
  73.1867294  63.0876541   5.4284625  73.2038879  62.2877464   5.9539013
  72.8833923  63.7649040   6.0330682  58.2168732  69.9849777  67.5917740
  58.6325302  69.7076721  66.7753448  58.8678551  70.5458755  68.0134964
  46.1181870  63.7742233  13.0139065  45.6066513  63.0744820  12.6077995
  45.6028175  64.5664978  12.8624763  51.2443619   0.2779577  76.8049698
  50.8517570  -0.5744641  76.9933014  51.7903099   0.4642253  77.5688248
  24.4981022  58.1599350  22.4673176  24.4490471  59.0380974  22.0896149
  24.0272923  58.2297592  23.2977962  81.8847809  50.8000679  28.5476799
  81.5590591  51.6046867  28.1442833  81.2166672  50.5680504  29.1926785
  76.2100143  27.5521584  53.5489044  76.7674408  28.2184868  53.9507980
  76.1793365  27.7923183  52.6228294  44.6379852  42.7753105  84.6319351
  45.2347107  43.5175591  84.7279587  43.8307610  43.0599670  85.0604095
  46.1686478   6.2644563  62.1033897  45.8461609   7.1649585  62.0669518
  45.3943291   5.7259541  61.9400711  73.6391373   9.3488235  57.8613930
  74.4002609   8.9113951  58.2429390  73.6029739   9.0249701  56.9613686
   3.9569736  38.3681793  64.1046906   3.5440810  39.2274399  64.1908493
   3.6119444  37.8618355  64.8400803  52.2433357  70.2847900  37.6596527
  52.1215134  70.2586823  38.6087074  51.3908501  70.5520248  37.3160095
  15.2007303  64.5246353  50.2979584  15.6828241  64.6581497  51.1140404
  15.6985760  63.8522148  49.8329468  62.6600494  60.1779022  45.4078712
  63.1074905  60.6045799  44.6771355  63.3624001  59.9419250  46.0138855
  50.2575836  26.9091625  33.3333855  50.5117912  26.1824570  33.9021645
  50.9085045  26.9030704  32.6316071  12.5395689   3.9893954  70.2322311
  13.0437279   4.7174106  69.8688431  11.7147655   4.3857889  70.5129471
   0.6037714  52.4629517  16.6374531   0.0157597  52.9317169  16.0452251
   1.2847823  52.1070328  16.0666828  37.4860382  12.2612333  16.0265827
  37.3003616  11.3232603  15.9822760  38.0776405  12.3532658  16.7734203
  39.4802818  36.7231789  24.1293812  40.0829239  36.7978935  24.8692970
  38.7133141  37.2316742  24.3928623  59.3462677  19.8626041  35.8057213
  60.2511864  19.9540195  36.1040459  59.0623207  20.7584763  35.6240158
  79.8744507  40.3364944  10.4239264  80.7609406  40.6830101  10.5253439
  79.3071671  41.0240860  10.7727041  64.5317459  51.3560104  11.0554609
  65.3330765  50.9160233  10.7717085  64.2852249  51.9071312  10.3126774
  45.9796410  41.7556458   4.2617617  46.7759895  41.8363037   4.7866940
  46.2832413  41.4296875   3.4145243  65.0487823  35.7546349  42.7872810
  65.5566406  36.2429886  43.4352226  64.3588943  35.3281631  43.2956161
  49.9064865   6.2126942   2.0602789  50.1242447   5.5658593   1.3891475
  50.2786522   7.0317116   1.7332704  23.6669350   7.2447701  26.4963303
  24.2583103   6.6260400  26.0677509  22.9792194   7.4055262  25.8502350
  43.6690712   5.0157824  61.6849518  42.8652725   5.1908197  61.1955643
  43.6514778   4.0721917  61.8448219  46.8688507  31.0896778  39.2124329
  46.8691254  30.1352634  39.1394424  45.9564896  31.3157997  39.3932457
  29.4326439  43.7831917  51.8508034  29.5673046  43.8177948  52.7978516
  29.1151180  42.8952980  51.6863136  53.7187653  29.9103374  61.9169312
  53.9847603  29.7946014  61.0047455  53.4296532  29.0410042  62.1942558
  51.7011986   4.0732994  18.3209934  52.2138901   4.5590076  17.6748753
  50.8661003   3.9031134  17.8852444  43.2747993  13.2103958  62.7457123
  42.8586578  13.9647493  63.1628532  44.2135010  13.3717270  62.8408165
  53.3908195   4.5352306  38.2669029  53.3002739   3.8274062  37.6289253
  52.4916725   4.7517219  38.5136757  62.2363930  31.1847954  56.6609879
  62.9443970  30.6106243  56.3689346  62.4447479  31.3758392  57.5754929
   8.9345417   3.4613445  69.2794495   9.2362385   2.6189070  69.6193161
   9.3782377   4.1119180  69.8236237  83.0892639  11.2380705  41.5171814
  83.7282257  11.1955509  40.8057404  83.4154663  11.9313231  42.0909653
  28.9400101   3.5247107  18.4640274  29.1057453   3.5220571  19.4067650
  28.0009041   3.6928968  18.3864117   2.2232027  33.1144447  54.5200195
   1.4246939  32.6380386  54.2927437   2.7638087  33.0656853  53.7316017
  47.9784279  28.3296185  18.4402523  47.2362671  27.8687897  18.8314896
  48.7454414  27.8311462  18.7221203   6.0101490  31.4433537  74.7099915
   5.1125679  31.2824574  75.0010071   6.5554099  30.9922829  75.3545532
  59.8863335  23.2274933  44.6844902  59.6792183  22.3001080  44.7997742
  60.3082161  23.2738285  43.8265266  52.4064980   4.6283927  12.4346857
  52.9654922   4.6399946  11.6577530  51.6144218   5.0943360  12.1668396
   4.2215624   4.6765633  48.5194817   4.2546401   5.0474668  49.4012794
   4.0909634   3.7386208  48.6589088  62.5653839   2.6657195  24.1673508
  63.3013878   3.1034453  23.7396507  62.4354706   1.8645718  23.6598911
  86.5092850  56.5103722  64.2863617  85.6217957  56.1612511  64.2044830
  86.4615402  57.3810310  63.8915100  16.4366074  30.7156715  67.3527069
  17.3664856  30.7189083  67.5797501  16.4108639  30.3899059  66.4530182
  67.6971054  22.6082592  13.5499887  67.9555283  23.4840031  13.8372517
  66.7521133  22.5764427  13.6990290  73.8754349  19.6647358   9.9311552
  73.3537064  20.4606266   9.8282261  73.2327652  18.9787598  10.1118269
  50.0478058   2.9162185  76.5825119  50.2832146   1.9924490  76.4961166
  50.8848343   3.3674598  76.6920395  78.3165512  20.0196419  86.0186462
  77.7341003  20.7665310  85.8802795  79.0668945  20.1924877  85.4500198
  59.8553925  61.2314644  41.8553886  60.4184532  60.4673538  41.9792213
  60.2954979  61.9334793  42.3346748  52.4252167   7.8592758  33.0162201
  52.3861237   8.8152094  32.9862976  51.6073151   7.5732679  32.6094398
   0.9143899  57.3818016  41.2168808   1.7081115  56.8625412  41.3457413
   0.7954229  57.8469620  42.0449562  58.6165924  53.9975662  33.1129189
  57.8466644  54.5355339  32.9284325  58.6364975  53.3562927  32.4025650
  68.1076584  45.6555901  52.9599686  68.7588959  45.0675354  53.3424759
  68.6230927  46.3552780  52.5587273  74.4262848  22.5698528   2.7348628
  74.6125031  21.8195801   3.2993491  74.0412140  23.2210541   3.3212826
   3.4832966  16.3772373   4.0362468   4.3579979  16.6387157   4.3239245
   2.9860413  16.2715626   4.8472967  62.6551285   3.3130810  38.9546471
  61.8688850   3.6355224  39.3951912  62.5123482   3.5167739  38.0303345
  75.0938263  61.4058418  45.4921227  75.6323318  60.8586655  44.9204178
  74.3743744  61.7003021  44.9336357  49.8860245  55.0860367  57.5838127
  49.5955772  54.3779869  57.0088882  49.3453026  54.9946022  58.3683472
  72.3973236  16.0120506  55.4066391  72.6745987  16.1239223  56.3159447
  71.8569717  15.2220116  55.4164810  72.0309219  61.5266075  69.6646881
  71.8353271  61.9534836  70.4988022  72.9825439  61.4234238  69.6657867
   9.0687733  33.9935799  80.9194946   9.4626865  33.4292717  81.5847931
   8.2970276  34.3650208  81.3469009  50.6134872  13.5129633  51.6805000
  51.0308838  13.5244169  50.8191719  51.2796478  13.8595152  52.2740974
  82.4059219  56.7505035  60.8492699  81.9137802  56.1006432  60.3475609
  82.8302689  57.2942924  60.1856041  68.1481247  36.5905800  73.2464371
  67.4524155  36.7340088  72.6048431  67.8771896  37.0985985  74.0111237
  10.0423622  39.8910866  89.0274429   9.3319101  40.5251350  89.1247711
  10.4713020  40.1359901  88.2075272  58.1989746  10.6535063  85.0655670
  57.7819977  10.6496105  84.2039719  57.5151596  10.9598455  85.6612091
  86.1053085  62.4076424  27.6242676  86.8643494  62.9874039  27.5613022
  85.9428635  62.1270676  26.7236443  43.1373558  38.0855217  32.3668480
  43.5499916  37.4375038  32.9378471  43.8357925  38.7092857  32.1685143
   0.6777734  30.5395660  53.7996483  -0.1006104  30.8203583  53.3184967
   1.3904159  30.6103077  53.1645355  61.8550339  26.3150425  10.0469294
  61.5326462  27.1852741  10.2814388  61.5679817  26.1889668   9.1425304
  52.1930389  12.9489422   0.0161439  52.7150383  13.3076744   0.7338195
  52.7797585  12.3323889  -0.4218680  38.3187943  52.0316467  15.1370173
  38.7752113  51.4568825  15.7514763  37.4252052  51.6897621  15.1078644
  30.2704315  49.7140083  66.4732208  30.4505196  49.6381798  65.5361786
  30.8266907  49.0488319  66.8786240  73.7837067  48.1571884  31.8464222
  74.4132690  48.6149445  32.4035034  74.1537094  47.2812653  31.7364845
  15.3102970  57.1711502  24.6889267  15.1866217  58.0171623  25.1192684
  15.4001036  56.5469818  25.4090538  64.3222046  38.2132492  53.3451691
  63.6262245  38.1653366  54.0005646  64.3133926  37.3541260  52.9231987
   6.2524457  63.9826241  29.7086830   7.0491934  64.3336029  30.1064739
   5.8244224  64.7442703  29.3176327  52.8785439  20.1353092  27.6364555
  52.8373222  21.0322151  27.9682560  52.0779228  19.7229252  27.9607658
  58.7898140  38.6664810  87.2007446  58.8388863  39.4430351  86.6432648
  58.9682579  38.9930725  88.0826340  64.0110245   9.2817984  68.0859909
  63.6585960   9.0566921  68.9470062  64.9307632   9.0199213  68.1277237
  69.3923645  41.0178223   9.3591948  68.7202301  41.4092255   8.8012733
  70.1504440  41.5939293   9.2610102  76.8799057  46.8732376  64.7683334
  76.2080002  47.5438461  64.8910294  77.0161362  46.5079117  65.6425247
  78.0545959  34.1617088  78.2868042  78.3788376  35.0622826  78.2949524
  78.5966797  33.7061424  78.9308853  10.3623896  13.8777695  23.3432732
  10.0106077  13.0483932  23.6667194  10.2722282  14.4803429  24.0815201
   9.0826511  61.0735855   0.8697307   8.7541246  60.8486557   1.7401958
   9.9679241  60.7102852   0.8465916  51.0497437  40.5315285  58.6477966
  50.4691200  40.1315002  59.2951660  50.4671936  40.8010292  57.9377022
  11.3562250  56.0953522  18.7852039  11.9421616  56.2528458  19.5255451
  10.4932928  55.9799881  19.1830368  20.2034740   8.0342550  45.6562691
  20.8320236   7.6300402  46.2544060  19.7372932   7.2960110  45.2639656
  54.8774376  49.4802437  17.3356705  55.1775703  48.5727196  17.3861618
  55.6757698  50.0015793  17.4199867  39.9513779  17.6425037  66.1107941
  39.8668747  18.3384075  66.7625656  40.7813034  17.8260956  65.6706161
  85.9269028   5.9296875  80.3001480  86.7578583   6.0306048  79.8358612
  85.2692795   5.8807712  79.6063385  43.8444443  43.4448395  10.9777298
  44.7111855  43.3169250  10.5922060  43.3541527  43.9253616  10.3106871
  83.5471497  32.7034950  75.0197678  84.4279785  33.0536690  75.1530228
  83.0359497  33.4518547  74.7117691  33.4112930   5.1942258  77.8488922
  32.7172127   4.7307491  77.3801956  32.9531174   5.8706512  78.3476486
  81.8516541  48.5957069  18.4843941  82.6279373  48.2025833  18.8832264
  81.1521683  47.9629364  18.6473293  15.4335938   5.3278074  88.8250885
  15.3592482   4.4851198  88.3772278  14.9078827   5.2246661  89.6183243
  52.6505470  38.6809921  68.0367508  53.2748260  38.7247276  68.7610321
  52.9510307  39.3492966  67.4208679  50.4033012  59.3961983  29.4466400
  49.9679031  58.6565399  29.8703918  50.5903206  59.0880508  28.5599041
  34.9464111   3.8432825  29.1313248  34.0225372   3.8328767  29.3814888
  35.3000793   4.6261344  29.5535736  65.2481003  47.8222466  51.5221367
  65.3902359  47.6812782  52.4581718  65.6958466  48.6469574  51.3334236
  15.2498512   3.3974130  87.0725250  14.9390364   3.4297595  86.1677780
  15.5382185   2.4928722  87.1945190  35.6406174   7.5980511  13.4120159
  36.5764160   7.7552176  13.5377712  35.5233421   6.6711278  13.6200819
  21.2658501  12.7377157  72.8279572  20.5964184  12.5904312  72.1598206
  21.3320808  11.9015198  73.2890625  76.0094299  60.7632828  67.1095810
  76.0528030  59.8764839  67.4672623  76.7069550  60.7917786  66.4546967
   3.0076444   7.4624743  55.6655540   2.7825274   6.5335779  55.7175674
   2.6307557   7.7541409  54.8354225  73.8982391  56.8471260  56.0750504
  73.4222870  57.2193336  55.3326454  74.4746704  56.1900635  55.6848831
  77.5180893  51.1353493  77.0422363  77.1739502  50.8872299  76.1841888
  77.2697067  52.0542145  77.1433334  77.9426651  28.1426353  56.0326614
  77.5192413  27.8196182  56.8280258  77.4391174  28.9203587  55.7922020
  19.7293358  55.8945580  26.8435459  19.0338993  55.3488274  27.2106647
  19.6450481  55.7849045  25.8963909   8.9005508  35.5058212  42.3920898
   9.7139168  35.4693947  42.8954201   8.7639122  36.4383507  42.2248955
  72.5319366  33.6410828  77.7905655  71.6172409  33.3601265  77.8157501
  72.4979477  34.5827942  77.9586792  34.7064552  47.6990318  63.2135468
  34.2049179  47.2150040  62.5574875  35.5715714  47.2895088  63.2037849
  85.9276657  44.0994225  33.7992363  85.9874039  44.2051392  34.7487030
  85.8377380  43.1554604  33.6685410  59.8083000  62.8573303  18.8517895
  59.1337395  62.9473839  18.1786709  60.3799782  63.6137848  18.7206860
  38.0747490  18.1087112   6.0539069  37.6913185  18.1410561   5.1774559
  37.3953285  17.7105179   6.5980234  12.8594961  36.7232475  10.5583534
  13.5103855  36.2224731  10.0666227  12.2518873  36.0633354  10.8923607
  21.3817062  67.7857361  66.5832291  20.6633701  67.8453827  67.2130432
  21.2936325  68.5718994  66.0443115  70.1133270  37.9242210  77.2220535
  70.8142014  38.3420334  76.7216187  69.9040451  38.5534134  77.9123764
  19.6474857   6.8755531   1.0732239  19.4599152   7.7709079   0.7914628
  18.8636818   6.6059551   1.5519739  83.8983841  34.4092216  16.2115288
  84.2621918  35.2193718  16.5686531  82.9501495  34.5279350  16.2662296
  30.6781197  43.1229210  80.4722137  30.1167622  43.5607376  81.1120834
  30.9448738  43.8189507  79.8717041  50.5032692  41.2189255  45.2434921
  50.4569244  40.2642822  45.2958336  49.8099937  41.5248032  45.8283310
  69.2994461  13.4866657  54.1740837  69.4271393  13.6816139  55.1024818
  68.3997269  13.1647329  54.1184845  50.2105255  30.9244366  22.0572624
  50.9361992  30.9995880  21.4375992  50.2272224  31.7469654  22.5465450
   5.3747368  16.3931217  77.3177719   5.5348616  17.3218422  77.1502228
   6.2048836  15.9652777  77.1079178  21.8108501  70.6190567  33.9352303
  20.9561195  70.3972397  33.5658188  21.6443748  70.7365112  34.8704948
  40.5412483  66.4731750  89.3052902  41.4310074  66.5997086  89.6347580
  40.4945641  67.0241165  88.5239334  63.7141953  70.9694061  78.4409027
  63.2903633  70.8195496  79.2859726  64.5251083  70.4628754  78.4864883
  40.3980751   7.3578057  15.3617926  40.5539360   6.4143190  15.3196898
  41.2688751   7.7397504  15.4716101   6.7080078  52.3211632   5.9209375
   7.6050658  51.9937057   5.8554344   6.3890314  51.9803009   6.7565813
   9.6721716  20.4345570  84.5943604  10.4236460  21.0211182  84.6807556
   9.2858276  20.6631870  83.7489624  16.6711769  40.0732498  60.0657272
  16.6604786  39.1245308  60.1923943  15.7615137  40.3422508  60.1937294
  24.9512577  10.4036417  82.2805481  25.7131042  10.2568808  82.8411560
  25.1973248  10.0228653  81.4375153   0.3330230  14.8443594  55.6484184
   0.2451121  14.0116701  55.1845932   0.7179849  14.6088428  56.4925537
  25.3085594  69.2167282  45.5165482  24.9374352  70.0667114  45.7532578
  25.8089886  69.3876953  44.7186928  29.4893494  13.4764338  15.5544653
  28.6823101  13.7506475  15.9900398  29.3947735  12.5297918  15.4488420
  34.3986664  17.9220905  78.9276962  34.3737831  17.9288235  79.8845444
  35.2485390  18.3034973  78.7075119  84.3985825  32.0332642  29.6060429
  83.5830994  31.6847515  29.2458286  85.0136414  32.0095901  28.8729820
  30.7333813   3.2415965  63.3490906  29.9360504   3.0514498  63.8433952
  30.8725777   2.4628181  62.8102379  18.8547134  31.3332996  78.9068298
  18.0851936  31.1954632  79.4591599  18.4980106  31.4727802  78.0295944
   4.0308075   2.5169179  35.7517738   3.8051353   2.8663061  36.6138840
   3.7572994   1.6002549  35.7857475  81.3342590  34.2291679  32.1376114
  80.6751862  33.9086571  31.5218735  82.0943985  34.4301491  31.5916920
   8.6395226   6.7699609  73.8259354   8.4569798   7.1949739  72.9879150
   9.5361834   7.0306144  74.0363846  79.5183716  16.1163807  50.7537918
  79.9840927  16.7577057  50.2170944  79.2771378  15.4214964  50.1412773
  56.0595703  54.7533455  68.5394058  56.8480721  55.2934723  68.4868774
  56.3289299  53.9021034  68.1943512  10.0306273  32.8429680  83.1854477
   9.8825054  32.2158279  83.8932571  10.0013475  33.6986046  83.6135406
  11.8250504  21.2057266   9.6693420  11.2000856  21.5901089   9.0546055
  11.6215763  20.2704163   9.6643114  33.3797073  45.0693665  69.3764648
  33.6116371  45.7699471  69.9860764  32.6892891  44.5807533  69.8245850
  48.7875900  55.6593399  68.0086288  48.4262657  56.4278183  68.4503479
  48.3728828  54.9151688  68.4450455  85.2979355  62.9841805   5.7019367
  84.5852051  63.5601578   5.4253502  84.9575882  62.0998688   5.5663328
  10.0158577  48.0187340  45.5251923  10.0544786  47.5033455  44.7195168
  10.3404160  48.8830261  45.2724190  56.0621300   3.6672869  14.3279696
  55.4749298   4.4146271  14.4415989  56.3593750   3.7320588  13.4204006
  18.2171764  16.2375221  85.2993851  17.7495518  15.7015181  84.6588745
  17.5281391  16.6045074  85.8532639  56.9769821  31.3689289  42.8986168
  56.8178368  30.7899761  42.1531525  57.8856354  31.6508427  42.7932281
   9.6713448  41.7353096  37.6732292   9.6443348  41.0099525  37.0492401
   9.5118122  42.5149269  37.1412735   4.4320111  29.9828587  84.8102570
   4.2937427  29.8602715  85.7494507   5.3023200  30.3760700  84.7456055
  75.9444199  44.6190681  63.3422356  75.8437805  45.0439377  62.4904175
  76.3099442  45.2995148  63.9075813  20.0470734   7.3718343  22.2648888
  19.9948616   8.1069555  21.6540680  19.1357307   7.1220489  22.4175053
  77.7810669  22.5090256  47.5785027  77.0775681  23.0626755  47.9173050
  77.4645233  22.2155132  46.7241745  56.8088799   1.0144863   9.6232309
  55.8789215   0.7900348   9.5910826  57.1697388   0.4436254  10.3015594
   1.3548890  24.9290066  82.0798950   0.8216025  25.3138103  82.7754211
   1.2247591  23.9852409  82.1726379  49.3618355  27.4199886  45.3216400
  49.0479050  26.5228539  45.4349060  48.6235733  27.9675922  45.5887260
  12.4274893  64.2713623  85.2102356  12.8581762  64.7241821  84.4851837
  12.3836107  63.3573074  84.9295197  21.3846188  64.7426376  46.0489655
  21.0598412  63.8716621  46.2773399  21.7528839  65.0823898  46.8645477
  48.3753700  28.4727554  27.1810322  48.8168106  29.0655689  26.5728092
  47.5033379  28.3503780  26.8057804  60.4457474  57.7717476  39.3682060
  60.6381416  58.1568108  38.5132561  59.7527618  58.3245163  39.7293816
   4.7570639  45.5953674   6.4333930   4.9846478  46.5049248   6.2406626
   5.0181007  45.4713554   7.3459239  20.9937210  15.3157701  87.2017288
  20.1011562  14.9704285  87.1844482  20.8896427  16.2559643  87.0553207
  75.2552719  48.9789276  50.6623878  75.7262421  48.4404831  51.2983932
  74.3380051  48.7262421  50.7672386  52.0986404  55.8740654   1.2610729
  52.0194588  55.6918983   0.3247094  53.0074692  56.1520805   1.3749727
  40.9621735  55.9823875   1.4326739  41.9161453  55.9297562   1.4909534
  40.6508179  55.6066971   2.2561703  40.2249222  12.2490015   3.7093511
  40.2686958  12.4682293   4.6400790  41.0232239  11.7475252   3.5436037
  48.7275047  25.1978321  36.8453903  49.1816101  24.5909863  37.4299927
  49.0327682  24.9605236  35.9697609  72.2852402  50.4696465   6.1496267
  71.5251465  50.3049011   6.7076130  73.0326309  50.1743431   6.6696644
  10.4353619  51.9853935  75.5684891  10.1612797  52.9011154  75.5178604
  11.3037319  52.0171394  75.9699326   5.2608256  26.4024296  33.1263084
   5.0212369  27.1655922  33.6520576   5.8305554  26.7526627  32.4414902
  65.8723755  28.6437912  88.5938034  65.4899216  27.7877216  88.7864304
  65.5783615  29.2044926  89.3117142  21.6452789  39.8118019   2.4062810
  21.8259926  40.7109108   2.6804688  22.1082973  39.2691193   3.0445142
  49.4361076  13.6520128  46.2680893  49.2362328  13.2380781  45.4284821
  49.0928688  13.0438194  46.9227028  27.3398590  46.5256958  84.4003601
  27.2016869  47.1746063  85.0903320  28.0641308  45.9873276  84.7194595
  34.7093887  43.4129601  32.4754448  35.4112358  42.8376045  32.7797699
  34.0427017  42.8172951  32.1334801  66.9186707  67.3409653  52.5085526
  67.4061813  68.1003113  52.1892319  66.4221191  67.0381470  51.7483139
  62.9266090   9.5773077  21.6243820  63.8519287   9.3524952  21.7217293
  62.7150116  10.0696106  22.4175377  16.7513428  61.2172165  56.8292923
  16.0045929  60.8745308  57.3203812  17.3149033  60.4564171  56.6885147
  64.9135056  31.2066460  23.6400585  64.7479782  30.3072319  23.9226971
  64.5035248  31.2658272  22.7771301  13.0619040  54.5973930  58.1153908
  13.3681059  54.3413658  58.9854012  13.7786255  55.1180725  57.7528496
  67.4503326  25.2722435  17.3171978  67.9993820  25.6688766  16.6408405
  68.0169449  24.6245117  17.7362766  40.0231133  47.5939865  81.1233749
  40.6523590  47.8982239  81.7773819  39.2377777  48.1167526  81.2852478
  48.0730553  37.2602844  58.1295052  47.7205582  37.7831345  58.8496513
  47.3144760  37.0709877  57.5772781  28.8435822  49.9106636   5.9481311
  28.8989353  50.8659325   5.9731855  29.2629166  49.6680222   5.1225920
  10.7963457  66.9275360  15.0804539  11.2309122  67.6894379  14.6971922
  10.9693794  66.2171631  14.4626617  70.0116043  26.3869305  19.4354000
  69.5731888  26.9937115  20.0319233  70.8487701  26.8073006  19.2387505
  72.6092072  16.6992035  57.9792900  71.7830734  17.1577053  57.8259583
  73.1859207  17.3641148  58.3554955  71.2028198  53.1100998  38.5265884
  71.2586975  52.3286819  39.0765800  70.3364182  53.4721947  38.7122269
  51.8744125   4.8948150  85.7765350  51.2462463   4.2590170  85.4338989
  51.7319450   5.6805696  85.2487869  38.4429207  71.3483505  81.5915756
  38.0230331  72.0362778  81.0751648  38.5775528  70.6317368  80.9714279
  14.9601755  41.5886230  76.0436020  15.1525478  42.5021515  76.2549973
  15.4368315  41.4256363  75.2296753  26.2964306  70.9366608  72.4761887
  27.1270294  71.3217468  72.7555695  26.3146000  70.0467300  72.8282166
   2.5107429  11.6023903  79.2831955   2.3061240  12.5343246  79.2066422
   1.8381022  11.1657639  78.7605667  53.2222557  17.4838467  88.0340500
  53.1058960  17.9378834  88.8686447  52.6659622  16.7080269  88.1038589
  66.5819397  62.8046303  10.5403757  66.5180664  62.4184837  11.4138994
  67.3991318  62.4564171  10.1837492  59.8921776  53.7332954  42.2258682
  59.9055977  54.2584953  41.4257317  59.0554199  53.9470177  42.6386490
  26.1836510  51.0663147  50.7877579  25.9411488  50.3777199  51.4068375
  25.3496857  51.4528542  50.5206985  33.8445473  32.8484917  48.6658134
  34.1187668  32.4135818  47.8584175  34.2244530  33.7250748  48.6066170
   0.8211795  63.8658028  21.6010056   1.6617224  63.4108238  21.6531105
   0.8638052  64.5275040  22.2913418  62.1707497  19.5085831  79.1122971
  61.5084152  19.7425632  78.4620667  61.6978416  18.9828358  79.7574158
   6.0051079  57.7971573  24.0615101   6.1231270  58.3263474  24.8503456
   6.2983408  58.3630676  23.3473701  24.2280407   4.4133768  70.9685669
  23.5967464   4.2266297  71.6634216  25.0807323   4.3678918  71.4010925
  79.1065521  14.1501226  49.1105232  78.2145462  13.8638735  49.3070297
  79.0229340  14.6572962  48.3030510  31.3748264   0.8106117  62.5207596
  30.9715118   0.1310355  61.9806252  32.3015594   0.5730889  62.5520668
  43.3217583  48.7789917  63.6880150  42.8397141  48.2348785  63.0652695
  44.1742363  48.3514252  63.7698669  54.5436592  39.6997757  36.9869652
  54.2708359  40.1518364  37.7853661  54.4794617  38.7698174  37.2044296
  35.8223724  55.7124825  37.7920265  36.3650093  55.0740204  37.3292732
  34.9360008  55.5533829  37.4675789  36.3403893  66.7588730   8.9614763
  37.1512108  66.7566986   9.4701939  36.6247673  66.6274414   8.0569944
  22.9784985   2.9441702  63.6991997  23.4014626   2.7978334  64.5453186
  23.4559422   3.6804733  63.3169212  51.6031151   7.6513090  58.7347488
  50.8083115   7.1188598  58.7667160  52.1940727   7.1652207  58.1596680
  78.4586029  44.3355522   0.2051860  78.0699005  44.2923279   1.0788441
  77.7196121  44.2183685  -0.3918062  63.7827225  23.5378571  75.9199600
  62.8991776  23.4403610  75.5648880  64.3431396  23.6206226  75.1483994
  79.2052765  55.5246735  17.2371445  79.2832565  54.5732613  17.3076401
  79.9480438  55.8635445  17.7368412  31.7733097  24.1778240  16.7957439
  31.7588539  23.6497231  17.5939503  32.6861076  24.1530495  16.5086632
  80.8422318  70.2923279  45.6808586  81.4165573  71.0086441  45.9515343
  80.1345367  70.2961426  46.3253632  17.8294868  64.2119293  18.5593224
  18.0646095  64.6648560  19.3691387  18.2654724  63.3623047  18.6248302
  54.4918022   8.6217623   4.5242362  53.5739212   8.8172512   4.7126932
  54.5644531   8.7065964   3.5735748  73.4468002  27.8372955  24.3309975
  73.8981628  28.6765957  24.4208565  72.6466522  27.9392681  24.8463669
  30.9618988   6.2123070  29.9925861  31.8418541   6.1129684  30.3559628
  31.0046120   7.0187330  29.4786949  52.2702293  38.3802261  76.2589874
  53.0699806  38.2596588  75.7470322  52.5628357  38.3542862  77.1699982
  64.4666367  12.8669081  42.2726555  65.0815811  12.1441345  42.3978806
  63.7229462  12.6486835  42.8343773  23.1311836  51.6297569  19.1596851
  22.6240559  50.9460258  18.7220058  24.0347328  51.4690323  18.8876591
  49.2179375  21.6304359  27.6672707  49.9213943  20.9879913  27.5743065
  48.4862633  21.1332245  28.0328770  61.6136589  60.7176208  25.7830486
  61.1089134  61.2072411  25.1336346  62.5251198  60.9445763  25.5987663
  45.6471252  44.8623543  30.4625206  44.7367630  44.8118401  30.7539368
  45.6809807  45.6487885  29.9179001  48.2568855  20.1809425  15.2539921
  48.5656090  19.2938118  15.0698128  49.0343018  20.6456146  15.5637197
  23.1209545  50.1509781  15.2600460  23.4695835  50.6245422  14.5047798
  23.6241989  50.4824753  16.0037441  36.8440323  46.8116455  55.2863388
  36.5603371  46.5119057  54.4226837  37.7871895  46.9470711  55.1949844
  19.2302608  70.3740311  88.2510300  19.9043999  69.7296524  88.0353012
  19.6506386  70.9583817  88.8819427  84.9694214  28.5795631  72.0736160
  84.3977356  29.3471813  72.0867615  85.7435226  28.8657131  71.5887299
  68.1045227  65.3024597  55.2376900  68.6942749  64.5623169  55.0941353
  67.5971832  65.3649292  54.4284058   0.0704429  52.0988388  55.5989494
   0.2421110  53.0310555  55.4657707   0.7297999  51.8224106  56.2353973
  75.9477081  67.9314957  70.4473038  75.7574081  67.9117126  69.5094223
  75.4277496  68.6622162  70.7818375  67.9491272  17.0750847  26.3160496
  67.1952667  16.5186806  26.1202679  67.5673065  17.9164238  26.5662289
   5.4426656  40.8338242  41.0374985   6.1546006  40.8019104  40.3984680
   5.8516088  40.5790062  41.8645821  77.2405624  17.1868725  17.0518570
  78.0963211  16.7946987  17.2253532  77.0268784  17.6607571  17.8556004
  59.8761902  41.9448013  27.1288223  59.2214165  41.9743042  27.8264122
  60.4363747  42.7032051  27.2939034  86.6407852   1.9722514   8.1398506
  85.6907120   1.8753793   8.2047405  86.8743668   2.5399981   8.8742456
  21.0468140  34.6008224  69.1398621  20.9416924  35.3770218  68.5896912
  21.4479980  33.9508667  68.5629425  44.6504211  16.7029133  21.8312778
  45.5260963  16.8850536  21.4903164  44.4171982  15.8555546  21.4520378
  30.6418209  18.6414471   1.9913018  30.1916256  18.2056866   2.7149515
  31.2152519  17.9678802   1.6256312  54.7163773  30.6219521  52.0708389
  55.4766922  30.0563374  51.9358177  55.0724907  31.4063873  52.4880600
  78.5681000   3.7917461  57.0078583  78.8247070   4.3596964  56.2813492
  79.2192001   3.0901082  57.0048904  80.2691269  59.8973274  85.8789673
  79.8821335  60.5178871  85.2614136  81.2002029  60.1191750  85.8896713
   5.7453284  49.5512962  27.9162216   6.6556025  49.3550224  27.6946163
   5.2499623  48.8063545  27.5757790  55.6247177  62.9159584  64.1818466
  54.9320526  62.7764587  63.5361023  55.6409264  62.1075439  64.6941376
   5.4166288  53.9803963  51.7687225   6.0274115  54.5183907  52.2724457
   5.7956924  53.9462395  50.8904419  37.7506332  31.3655186   5.9920478
  37.1500740  32.0598755   6.2630215  37.1801682  30.6338387   5.7565670
  60.7057037  15.0170984  58.1799660  60.6929817  14.5043163  58.9881287
  61.1438904  15.8332529  58.4210396  18.5883694  66.8305664  31.2159882
  19.4374943  66.6092072  30.8336048  18.1981888  67.4444199  30.5937538
  65.0636978  26.3970699   9.5701895  64.2524338  26.8292542   9.8372011
  64.8627853  25.4622326   9.6142473  84.6034698  67.0252838  52.7405548
  84.1841354  66.2489471  52.3694801  84.5593262  67.6782913  52.0420837
  74.0362549  48.9845009  22.3123035  74.2494278  49.8266182  22.7143307
  73.2588196  48.6842766  22.7831421  12.5454760  46.4656334  15.6919651
  12.2586641  47.2979774  15.3162279  11.7495308  46.0822067  16.0603199
  73.6549301  17.2993126  18.6190147  74.2444763  17.1333942  19.3546371
  73.9665298  16.7168713  17.9262676  18.0521908  39.0214195  24.2649040
  17.3297138  38.5019150  23.9122372  18.3695297  38.5141869  25.0120602
  34.1228218  22.0833225  20.2551250  34.8316307  22.5140953  20.7328815
  34.4367828  22.0360069  19.3521175  49.9652939  46.7181206  31.4764404
  50.8365517  46.6059380  31.8566494  49.5840378  47.4491005  31.9627972
  71.1063919  44.5853386   6.2663093  70.5147781  45.3000679   6.5016694
  71.0499496  44.5320244   5.3122630  65.2225189  20.3656101   6.1743875
  65.2792435  21.0781345   6.8110361  65.3323898  19.5699234   6.6950073
  74.3828583  23.1535110  32.8370323  74.5457382  23.4936142  33.7168236
  75.2204590  23.2503147  32.3839531   4.8408251  14.0331278  21.2607651
   5.1504045  14.6623068  21.9123230   5.5735431  13.4282055  21.1449051
  36.6386871  51.2316208  77.6768951  35.7893143  51.6726227  77.6591339
  36.4238968  50.2996635  77.7163315  47.9712639  56.8181801  63.9619102
  47.2380600  56.2867889  63.6516342  48.1416855  57.4317513  63.2472610
  77.6121979  34.8621368  81.3812561  77.4917984  35.4334869  80.6227798
  76.7268143  34.5814133  81.6126022  66.4426117  21.8301182  10.7277451
  67.2946625  21.5249920  10.4160757  66.4002686  21.5343513  11.6371183
  63.2959747  51.3849907  47.7920456  62.7618256  51.3131371  47.0010033
  62.6681633  51.3201866  48.5116844  48.3882713  44.3809776  31.2644310
  47.4966965  44.4751129  30.9290676  48.8076096  45.2188072  31.0684013
  13.4424105  70.7601242  58.6386108  13.9417686  71.2375488  57.9760857
  13.9392347  70.8828125  59.4475288  84.9958420  34.0441055  33.5131912
  85.0373230  34.8167038  32.9496307  85.3494720  33.3358612  32.9750748
  33.6407890  48.3561821  85.4174957  33.0774040  47.9087219  84.7861404
  33.9715042  47.6568108  85.9811783  77.1292877  67.4936523  55.9600296
  76.9639893  67.9781494  55.1512222  77.5800171  68.1198959  56.5265045
  24.6360626  41.0700340  82.3527985  23.9506760  41.0579758  83.0208817
  24.2441502  40.6280823  81.5995941  84.1959534  52.6157951  38.1721458
  84.7947998  52.7685776  38.9030800  83.7713242  51.7835770  38.3803291
  45.9131088  68.8447800  62.6545563  45.6901817  69.7486572  62.8771439
  45.8879852  68.8204956  61.6979942  68.3206711  46.7920723  35.0797844
  68.6188049  47.6108437  35.4759636  67.9673920  46.2865067  35.8117867
  73.4803162  71.5798492  53.7738762  73.1859894  70.8335800  53.2516823
  74.1986389  71.9584351  53.2670021  21.2380371  11.7359648  87.8927994
  21.0760708  10.8325920  87.6209259  22.1587830  11.8886194  87.6803055
   2.9544826  44.5580521  40.8786888   2.3285975  43.8486443  41.0244293
   3.2456338  44.4386368  39.9746971  85.4448318  45.4278259  10.1702328
  85.8427811  45.1195869  10.9843912  85.8787613  46.2622948   9.9924660
  13.3136759  61.5137825  38.3241730  12.4085512  61.6599350  38.5991631
  13.2773113  61.5195961  37.3676834  65.0106812  26.0432453  14.9351997
  65.0748444  26.1898117  15.8789339  64.1612930  25.6183147  14.8160095
  45.4257660  14.5312567  78.0540085  45.7001152  13.6152496  78.0104904
  46.2378807  15.0181093  78.1942749  57.3023605  36.3888130  35.2706871
  57.1603317  35.5830231  34.7739372  56.9114609  37.0753822  34.7302666
  47.4092941  14.2039557   3.3169439  48.0400620  13.5015965   3.4752324
  46.7729683  13.8225832   2.7120693  41.9815750  44.8221512  56.4738998
  41.3085709  45.1474457  55.8760071  42.3307190  45.6090088  56.8924484
  63.7305031  67.7134018  51.7265816  63.1425438  67.7154007  50.9712486
  64.6025467  67.5922089  51.3509750  54.7658043  23.5347843  28.2322197
  55.0912285  22.9190121  28.8888454  53.8270798  23.5986023  28.4081497
  39.1263466  17.0183887  23.2039604  38.5735626  17.4932556  23.8245754
  38.7188950  16.1552296  23.1320801  32.3823662  63.8481407  68.8214111
  32.3684845  63.4810181  69.7052994  33.2517662  63.6304626  68.4852676
  69.7175369  40.2442055  80.3502655  69.2155838  40.8521004  80.8931732
  69.0656433  39.6294403  80.0136185  76.8860245  41.9461136  79.6028290
  77.5594559  42.0648613  78.9330368  77.3760986  41.8075333  80.4132919
  23.1872540  61.7981720   8.1871538  23.6942101  61.6824722   8.9907951
  23.6463509  61.2677612   7.5359039  86.3740692  39.7333832  25.5062943
  86.3126526  38.9714661  24.9301510  86.9027863  39.4327507  26.2454243
   1.4644557  71.2363586  63.7686539   0.6228825  71.3429031  63.3252182
   2.0709989  71.7791519  63.2649574  62.7637100  16.1830482   1.6181585
  61.9842491  15.7926388   2.0134494  62.8223610  17.0530186   2.0130548
  62.7217369  24.1837997  11.4827547  63.5732956  24.0325985  11.0726175
  62.3599243  24.9354839  11.0133982  84.8915482  45.4859619  20.8229141
  85.7558746  45.4394379  21.2315750  84.6889572  44.5806007  20.5873108
  21.6689873  61.4773521  19.0683994  21.4399395  61.3498154  19.9889984
  22.3533344  62.1464615  19.0823307  52.4484520   3.3799839  24.3645897
  52.1348991   4.1036096  24.9070683  52.5263748   2.6428769  24.9702568
  15.4052410  69.8327408  85.3575287  14.6448822  69.5236664  85.8500366
  16.1348667  69.7599945  85.9728241  86.4127502  66.4562149  49.7022057
  85.8042145  67.0781326  50.1011086  85.9497223  66.1292267  48.9309006
  20.7820377  65.8003464  29.8005848  21.2458973  65.0837631  29.3674793
  21.4240036  66.1691360  30.4072990  74.0437698  57.8153877  87.8102646
  74.1037445  58.4732437  88.5029907  73.2243881  58.0172920  87.3585129
  46.3760834  11.9851637  78.1750107  46.4736786  11.5463963  79.0201035
  46.9380493  11.4879665  77.5806885  54.8164253  12.6829424  75.3324432
  54.1146507  13.3159304  75.1805573  54.9754143  12.7233076  76.2754822
  45.2620964  31.6065960   4.3638124  44.6114616  30.9509048   4.6147575
  45.0777016  31.7863865   3.4419091  52.3076744  24.7736645  20.0774860
  51.5108681  24.3567982  19.7495289  52.1685944  24.8466206  21.0217152
  41.6737633  32.6982155  18.5703011  42.0934563  32.0357361  19.1191311
  41.1709900  33.2340088  19.1837921  49.7587700  53.8514061  50.9425774
  49.7407265  54.6259422  50.3804436  48.8800240  53.8086243  51.3196793
  19.5730648  64.7716980   7.7024093  18.7311363  64.9858246   8.1043291
  19.5690517  63.8170815   7.6321788  69.1895370  58.8562622  74.5155182
  68.8970184  59.7671623  74.5460052  68.4514847  58.3559113  74.8635941
  85.2584076  59.7838211  50.6044846  85.5744553  59.2087440  49.9076118
  85.2415390  60.6545525  50.2072716  85.1990128  68.9250946  65.2363892
  85.2949295  69.5430145  65.9610977  86.0968170  68.6927872  64.9992905
  54.5122070  37.0338287  38.6326294  54.5453110  36.1039963  38.4077873
  53.6685753  37.1443138  39.0711594  65.2489243  23.2357941  73.8175507
  66.2054367  23.2043953  73.8358231  65.0322418  23.4027004  72.9002609
  21.4653912  66.8451233  42.7436104  21.5383148  67.2904129  41.8994331
  21.5609112  67.5431213  43.3916168  44.9857712   7.6954012  59.1642036
  45.0038567   7.9786711  60.0783501  45.2134399   8.4802017  58.6657181
   1.9727062  41.1918640  21.3004684   1.8565059  42.1394043  21.2304935
   2.4261966  41.0670891  22.1341419  61.7904434  48.5315475   3.3853712
  62.0398979  48.5871887   4.3078175  62.2827148  47.7827721   3.0488758
  77.6095276   3.6596861  45.8246346  76.8614960   3.1328259  46.1058960
  77.3816605   4.5539794  46.0787010  23.7632732   2.0947092  82.1839066
  23.3141575   1.8615777  82.9964218  23.7006187   1.3084965  81.6415253
  46.5266342  18.0165863  18.4400063  46.5145454  17.3142872  19.0902843
  47.0925255  18.6872845  18.8223209  12.8950214  58.7523994  83.6470184
  12.9238167  58.7961960  84.6027832  11.9614944  58.7468414  83.4355316
  66.5168915  25.9062481   0.6435291  66.8454437  26.7534466   0.9444287
  67.2830429  25.4715366   0.2690030  13.7826633  38.4305534  74.0354767
  13.4112902  38.8088989  73.2385025  13.5448542  39.0480728  74.7271042
  75.4264832  54.1664124  25.5725555  74.8532104  54.9150162  25.7374420
  75.6056061  53.8060379  26.4410477  41.1332703  42.3322182  74.4726028
  40.5873985  41.6591835  74.0660553  41.8931427  41.8551178  74.8060684
  82.2999039  18.4209347  43.8869286  83.0465012  19.0134506  43.9749756
  82.6539612  17.6550484  43.4349365  52.3285484  52.2239685  86.1872253
  52.9025269  51.8423233  86.8514023  52.0908470  51.4872932  85.6241608
  57.7961311  15.7426672  41.4877243  56.9636497  15.3714495  41.1954842
  58.0057411  15.2605000  42.2876053  51.6967316  62.0010071  52.9459076
  51.4160233  61.3134842  53.5498466  52.6389923  62.0803070  53.0945282
  59.3543015  25.2949505  72.8741302  59.0152092  25.0545788  73.7363739
  58.8689842  24.7407894  72.2629013  85.6992188  34.7983665  12.9480791
  86.1726456  34.0458450  13.3027811  85.3777390  35.2645264  13.7198124
  17.6353703  32.1549759  72.2551880  16.7809772  31.9843616  72.6515961
  18.0521431  32.7828407  72.8453751  72.8471069  18.1465416  63.4787979
  72.0158005  17.7122135  63.6699066  73.0033417  18.7091179  64.2373047
  62.4641342  12.0673561  19.9130630  62.5232391  11.3318901  20.5228386
  62.6209373  12.8407984  20.4547558  84.5121307  43.7675667  70.4979477
  84.1260147  42.9229736  70.2659836  85.2800827  43.8434792  69.9316330
  52.6030731  61.8929405  61.6119652  52.5854454  61.6324959  62.5328827
  53.1048584  62.7080231  61.6031342  74.0258484  44.7154427  17.0861969
  74.2837677  45.1966209  17.8724422  74.8382187  44.6139870  16.5902138
  54.6032982  23.1062679  37.5562935  54.2578468  23.4699230  36.7410355
  54.8210449  22.1994324  37.3407364  52.1017418  47.6906090  54.4116669
  51.7648430  48.5685730  54.5903130  52.5280457  47.4271278  55.2271881
  27.4211044  46.3425484  77.6739731  26.7682514  47.0253487  77.5196991
  26.9341488  45.6376228  78.1008072  78.0267944  33.5093918   6.9277730
  78.6691895  32.8830338   7.2612996  77.8805542  34.1131897   7.6559744
  78.1124573  49.4084320  45.0723915  78.7885437  50.0236626  45.3563499
  77.4747238  49.4071579  45.7862015  71.9850540  37.3332405  87.6428833
  72.9372330  37.2560349  87.5826950  71.7927933  37.2071724  88.5720673
  37.6989670  64.2595596  28.2664070  37.4500160  63.8129654  27.4572029
  38.6177292  64.4949417  28.1371632  86.5606689  49.9592018   1.3993483
  86.3287277  50.6094017   2.0624306  87.4484406  50.1965141   1.1314375
  75.2388229  19.0348434  50.8327255  74.4635391  19.0147152  51.3937645
  75.8408585  18.4078312  51.2335243   7.8241944  70.1305008  20.6694069
   8.7481146  69.9000473  20.5719624   7.8343616  71.0400162  20.9675827
  42.1761284  48.7161102  82.5097046  42.1152611  49.2806511  83.2802963
  42.6854935  49.2254105  81.8793106  49.2824059  39.6222267  82.5898819
  48.8602638  38.7755089  82.4446487  48.6135788  40.2663193  82.3574066
  29.0173721  57.0090714  44.4063911  28.6839581  56.2579842  43.9155350
  28.4626541  57.7395058  44.1325645  76.6758575   1.5236254  85.8885498
  77.5262146   1.7299464  85.5005264  76.1506042   1.2005031  85.1564789
  28.2090740   2.9067287   0.6804183  29.1425552   2.6954324   0.6662861
  28.1609726   3.7489972   1.1326370  69.3546143  12.4518700  76.0427399
  69.3095856  12.2118015  75.1172256  69.2981949  11.6180782  76.5094757
  57.1193810  30.6978569   4.6555347  56.2007675  30.8340302   4.4234996
  57.6096191  31.0913601   3.9336948  59.5014153  61.1083755  64.6263046
  59.2650757  61.9040909  65.1029739  60.0198250  60.6003952  65.2503586
   3.7900209  59.9467430  53.1848526   3.8502548  59.0240936  53.4324913
   4.5113821  60.3678017  53.6523781  82.0721283  40.3004456  55.6752434
  82.9887238  40.1890144  55.4229202  81.5944214  39.6832428  55.1210861
  50.6913414  70.7512970  30.7222748  51.4840393  70.8739853  31.2445869
  50.0210075  71.2568665  31.1819267   4.9040866  60.5462341  20.7372589
   4.2516422  59.8528137  20.6386890   5.6557665  60.1122284  21.1408081
  81.5718155  64.6837311  32.6416702  81.8605576  64.1518860  33.3832855
  81.6004333  65.5835953  32.9667244  85.2652054  39.0556793   4.2966776
  84.3382874  39.1825104   4.0942874  85.4174118  38.1224976   4.1475706
  61.2550621  15.0308609   5.7183247  60.7595596  14.7819967   6.4985666
  62.0370026  14.4794264   5.7451873   8.5278492  71.2721481  25.0598583
   8.0689278  70.9030457  25.8144341   9.0238914  70.5376205  24.6984158
  33.6128502   2.2409561  73.2062988  33.7908020   3.0633855  73.6625595
  33.8410988   2.4189746  72.2939148  73.2080688  24.6495419  73.2242203
  74.0858536  24.9944916  73.3877106  72.9634247  24.2191734  74.0434647
  62.7560463  17.4424725  61.5031090  63.3066292  17.0535564  60.8235245
  62.1717949  16.7338009  61.7726746  42.4175491  46.5742416  58.4195023
  42.7861404  46.8734627  59.2506714  42.0775719  45.6997986  58.6092415
  78.7512970  31.5406055  80.5397797  77.8103790  31.6740818  80.6541824
  78.9578476  30.7954750  81.1040039  73.3814774   3.9224558  56.1744385
  72.6947021   3.4313266  56.6253967  74.0353394   3.2626991  55.9432983
  13.2762327  17.7570648  86.1334381  12.6378012  17.0487118  86.0505371
  13.1917114  18.0507374  87.0405426  66.5202255  33.7967720  34.6609077
  66.4331818  34.5243912  35.2767181  66.9620132  33.1108704  35.1614990
  11.7248106  65.4043884  56.7831345  11.6455107  65.5680313  57.7229004
  12.2618275  66.1272507  56.4586143  77.5359192  34.9324493  11.0306501
  78.2851410  35.0896721  11.6052637  77.8832703  35.0503311  10.1465197
  44.5492210  15.1525574   0.8242742  44.8481331  14.5469217   0.1459762
  45.2520332  15.7985039   0.8952354  51.7379341  34.4094353  64.9584503
  52.1465645  34.9898529  65.6006088  50.8521004  34.7560730  64.8518143
  12.3139563  36.8660278  77.0200119  12.6788006  37.6160698  77.4896469
  13.0587978  36.2788353  76.8909912  10.0818729  46.8557358  43.0644455
  11.0146456  47.0361061  42.9476852  10.0357122  45.9087982  43.1963844
  81.9176483   6.0627127   8.7007294  81.7986679   5.3995357   9.3806353
  82.5270462   5.6629205   8.0802212  20.7364788  24.0656204  20.3338718
  20.7069893  23.1105213  20.3899689  20.3567276  24.2671528  19.4786491
  57.1726990  37.4860840  38.9930954  56.2373543  37.3578224  38.8352623
  57.5926399  36.7418671  38.5617981  42.0280457  52.7011261  33.0828362
  42.7519760  52.9522057  33.6565247  41.2771416  53.1926689  33.4156456
  86.2256393   7.5935240  45.6837082  85.9265060   6.9098868  45.0842171
  86.7086334   7.1222405  46.3625641  28.4160862  57.9411697  13.7307291
  28.9624271  58.5552750  14.2212563  28.1945591  57.2587852  14.3643799
  63.1706390   2.1639979  81.8998566  63.1726036   1.2157775  82.0306473
  62.2443810   2.3935647  81.8252106  45.1967087  36.0500641  49.5808678
  44.6515541  35.3454742  49.9309998  45.9025688  35.5990944  49.1176033
  26.7067890  56.2563858   7.1949415  27.6506844  56.1038361   7.2398973
  26.6243324  57.1548309   6.8752127  55.3794785  38.4738655  27.3486385
  54.7650871  38.3820305  26.6204052  54.8678856  38.2434044  28.1241341
  21.1537647  62.0804367  70.8452530  21.4374180  61.6525345  70.0373688
  21.0426540  62.9998016  70.6030731  61.5514565  28.9986362  18.1345654
  62.0234222  29.7977734  18.3687897  60.9240189  28.8736286  18.8465557
  51.0337143  50.0987091  27.3186569  50.1804504  50.0957947  27.7524395
  51.6497841  49.8299408  28.0001621  44.4947014  48.7103844  15.8294802
  43.5611420  48.5012321  15.7985353  44.7822685  48.6578026  14.9180145
   0.8398136  40.0617218  56.6622429   0.8309506  40.8355789  57.2255325
   1.7369584  39.7331734  56.7207222  61.6189880  66.3653793  11.3334465
  61.3830605  65.5211029  11.7178583  61.4263840  66.2662277  10.4010820
  13.1290741   7.3963952   7.6323671  13.8543854   7.4462900   8.2549953
  12.8257904   6.4903479   7.6900601  84.3069534  27.1803379   5.8416619
  84.4728851  27.1636028   6.7842212  85.1393890  26.9200764   5.4472632
  42.3112450  51.1643639  64.1370850  41.6233940  50.8156853  64.7041092
  42.8492775  50.4036942  63.9176865  62.9848900   8.1229706  78.9749832
  62.8627548   7.1846948  78.8302307  63.0650826   8.2103424  79.9248123
  14.3808451  13.3358603   1.1003335  14.4144735  12.4047270   0.8810350
  15.2788773  13.6434851   0.9773022  50.2566414  58.7761765  48.8246498
  50.5807648  58.3011093  49.5898209  49.4619827  59.2121620  49.1323280
  25.2827110  47.9362488  29.9754429  24.8640308  47.0929718  29.8027515
  24.7820473  48.3079720  30.7016582  62.0579987  55.2405701  43.1180687
  61.8914337  55.5379066  44.0125427  61.2078438  54.9298668  42.8067360
  76.4185486  32.9244118  22.7839146  76.8179474  32.5080376  22.0201454
  77.1446228  33.0512581  23.3946209  67.2220917  20.5260925   4.1562905
  66.5286331  20.5949917   4.8124914  66.8142242  20.0631142   3.4244955
  27.7934837  10.4286499  11.2390347  27.2070103  10.9313898  11.8043079
  28.2536469  11.0902185  10.7224998  77.9883804  11.9316492  39.7138023
  77.0537338  12.0347347  39.5347786  78.3666763  12.7875013  39.5122147
  71.6922684   5.9576101  58.6260834  71.0712814   5.2305574  58.5813408
  71.2853470   6.6523571  58.1084290  34.0009918   0.4075277  63.0201721
  33.9867096   0.5826510  63.9611092  34.7854156  -0.1247395  62.8874893
  59.3292770  10.5782204  59.6346893  59.1085739   9.7134638  59.2886887
  60.2027664  10.7592773  59.2876053  49.8987617  67.9923706  43.5655441
  50.6007195  68.6400146  43.5019379  49.9974174  67.4543076  42.7800636
  40.5836945  67.7742538  76.4446793  40.3832664  67.2228546  75.6883545
  41.5163383  67.9710922  76.3571396  24.1823730  65.1493378   7.3092914
  23.3318005  65.3894043   6.9416976  23.9834957  64.4600906   7.9430218
  65.9110184  33.4608650  68.2628479  65.2463531  34.0138664  68.6735153
  66.3534164  34.0393333  67.6416473  14.6058187  41.6144142  64.1700211
  14.1326466  41.9449692  64.9336166  13.9869041  41.7078133  63.4458313
  54.8757782  39.2017250  87.7784119  54.1350822  38.7755051  87.3472061
  54.8151627  40.1180687  87.5084610  63.8176842  55.1820679  62.4399834
  63.6399803  55.3912163  63.3569946  64.5345306  54.5486259  62.4733658
  60.6957741  24.7864628  51.4350853  61.2807961  24.4313221  52.1043053
  60.7155228  24.1381130  50.7311783  58.6206589  66.9388885  67.6294250
  58.5937080  67.8645172  67.8717270  58.2036972  66.9044266  66.7685089
  79.5303879  45.9292374  78.0970154  78.8184509  45.8381996  78.7303314
  80.2614517  45.4508514  78.4880600  74.7830505  48.6792107   4.3473902
  74.1764450  49.2055702   3.8266149  74.4102554  48.6862488   5.2289801
  49.4026680  71.6827774  44.3264351  49.1328468  71.1658478  45.0855255
  50.1793365  71.2327499  43.9940262  83.7179337  50.0769501  22.5541992
  83.8942719  49.8197632  23.4591808  83.8500900  51.0249329  22.5445213
  25.7258663  61.9780617  85.1850739  25.7338734  61.4659386  85.9937134
  26.4977875  62.5403328  85.2500076  34.0661659  58.2024384  22.9476147
  33.6273117  59.0116158  22.6851940  34.2162094  57.7341576  22.1263771
  20.0488052  50.7032776  23.6610069  20.8337212  50.2195930  23.4037399
  19.8153534  51.2115784  22.8842411  52.5809250  32.6590881   1.9373938
  51.9623718  31.9665565   1.7049600  52.4155159  32.8264694   2.8652167
  13.2544432  20.6989651  18.4676228  13.3446159  20.1163349  17.7135391
  13.1908169  21.5750065  18.0871811  60.3680344  50.0737953  46.5057068
  59.6181335  50.6295815  46.2936058  60.9215012  50.1103668  45.7256012
  20.7107620   8.3054562  25.6305809  20.4677429   8.6562843  26.4873734
  20.8293304   9.0792723  25.0797787  71.3080978  49.1331367  35.2981758
  70.5453415  49.7079582  35.3615761  71.9730453  49.6648788  34.8607674
  42.2266541  36.5019722  75.9827271  42.9707298  36.1524200  76.4730377
  42.2035522  35.9819260  75.1794586  68.8815994  55.1635590  43.8531036
  69.5405502  55.3402405  44.5245171  69.2952347  55.4359894  43.0340042
  64.7081833  47.1073265  86.7977371  64.1646042  47.8597374  87.0314713
  64.5901184  47.0108948  85.8527527  29.3220272  68.8514252  28.4377117
  28.9123840  67.9949799  28.5598469  29.5275307  69.1472931  29.3245411
  34.2180061  30.6624050   6.3338456  33.7318077  31.4472733   6.5864825
  34.5171013  30.8424683   5.4425821   2.8654864  58.0114784   9.8653297
   3.7111886  58.2577820   9.4906912   2.7431064  58.6152267  10.5979557
  43.1725349  56.1271477  72.3280716  43.9477043  56.6545601  72.5209045
  43.3487892  55.2821503  72.7417679  40.9393196  35.6022530  51.2681923
  39.9874496  35.7003479  51.2446785  41.0873451  34.6673508  51.1257858
  17.8560638  52.7475090  48.0988693  18.1652470  52.4630241  48.9589310
  17.6002693  53.6610336  48.2264328  54.4909668  20.9125061  84.6416397
  54.2277946  20.9987240  85.5578995  54.8665962  21.7643490  84.4191589
   8.4669552  41.7761993   8.1503572   7.9097562  42.5513992   8.2198553
   8.1106634  41.1664352   8.7964783  45.6019211  31.5367718   0.6132183
  45.5209503  31.3180466  -0.3151324  45.9476051  30.7409821   1.0175151
  50.8614044  43.1720581  41.1990280  50.9068642  42.2987442  41.5882416
  51.1660042  43.0497055  40.2998734  82.5657501  38.0009651  51.7170334
  81.9887695  38.3060455  52.4172173  83.4357452  37.9799957  52.1156464
  16.5301723  26.1805458  22.7688618  16.9402428  25.5875053  23.3984470
  15.8668203  25.6456261  22.3329086  28.4784126  66.1867828  48.0539474
  29.1596489  66.5569763  47.4926033  28.7168636  65.2640686  48.1432343
  24.9001865  16.1863976  47.9861717  25.7818394  15.8865194  48.2075119
  24.5785465  15.5408049  47.3568954  37.3563766  38.6065712  35.6887665
  38.1352577  38.1451874  35.9997368  37.6724548  39.4791946  35.4545593
  81.2141647  21.6936245  26.4362011  81.4910660  21.1321926  27.1603241
  81.6692734  22.5219555  26.5877953  10.1156073  41.3057899  49.2724762
  10.8444881  40.7987366  48.9148979   9.3766975  41.0994377  48.7000580
  50.6258774  65.8925400  66.8946533  50.0503998  65.5508194  67.5789719
  50.0620117  66.4596329  66.3686295   0.5354783  13.9048634  35.0139885
  -0.0670342  14.3018026  34.3849831   0.7706417  14.6203690  35.6047363
  17.6270313   4.5013084   9.0734329  16.7864208   4.3143973   8.6554956
  17.4704304   5.2977433   9.5807791  58.4644585  62.3228378  72.8046341
  58.2266846  62.2932701  73.7313614  58.2188034  61.4616089  72.4667435
   1.9291035   5.9885778  30.7481804   1.4696146   5.6551051  31.5188293
   2.8026865   6.2130136  31.0686703  16.5901432   5.9971523  11.3374434
  16.3993282   5.0777173  11.5230808  16.0134392   6.4849067  11.9254408
   8.7562943  70.5453568  86.6440506   9.6656504  70.3660812  86.4049606
   8.4958010  71.2666931  86.0712967  74.9610672  19.7462673  70.1454849
  74.7340012  20.1541195  70.9811401  75.4803543  18.9791756  70.3866272
  58.0819473  53.3306770   5.5364823  58.3099480  53.4655647   4.6166706
  57.1436005  53.5145988   5.5801072  76.8254929  68.0562592  85.3314362
  76.0075150  68.4322968  85.0062714  76.5528717  67.2899628  85.8361206
  30.2897606  27.5558510   6.7013607  30.3927670  27.4356918   5.7573361
  30.9745331  28.1808834   6.9393773  55.1887321  48.1238060  24.2583561
  54.5801811  47.4413834  23.9751625  55.9019928  47.6473923  24.6832294
  68.3655014  59.0400963  45.9643173  67.8227844  58.3296165  45.6223907
  69.2628937  58.7179680  45.8797836  71.2317657  71.4430313   2.9929173
  71.9511566  70.8119049   3.0126548  71.5263977  72.1231842   2.3872645
  65.6799850  41.5703697   9.2454643  64.7610092  41.5943069   8.9787493
  66.0914307  40.9609146   8.6326742  27.5220928  37.8286667  36.0037003
  27.3209057  38.1915321  36.8663025  27.8675938  38.5701218  35.5066032
  86.0129013  16.8087997  83.9262543  85.2296829  16.6938820  84.4644012
  86.5666656  17.4027405  84.4330139  51.8568153  55.0694695   5.0890703
  51.6659126  54.1404572   4.9597535  52.6650810  55.2184563   4.5984144
  81.0832748  67.4554214  33.2616196  81.2497864  68.2432327  33.7791786
  80.1490631  67.2839355  33.3802414   2.7660995  46.7794228  64.4398804
   2.0828404  47.3797073  64.1414719   3.1823130  47.2350006  65.1716156
  26.7534370  66.3273849  13.3479090  26.9683495  66.8871460  12.6017761
  25.9102077  65.9364777  13.1190300  77.0335846  15.4930830  64.3040237
  77.1964417  14.6662703  63.8500557  77.6688080  16.1021824  63.9275742
  40.7327995  31.3778534  16.4521427  39.7938766  31.5620823  16.4788132
  41.1060944  31.9373226  17.1332283  80.1310654  29.7077084  38.0130348
  80.7936478  29.8625698  37.3398056  79.8429413  30.5831890  38.2713890
  42.1287613  67.0274734  40.1701126  42.4654770  67.3019562  39.3171692
  41.4139137  66.4255371  39.9629974  80.7870483  59.7932701  64.6549377
  81.3978577  59.8781166  65.3870239  80.9169006  58.8998032  64.3369904
  23.1921940  56.4602051  20.5108967  22.4982548  57.1179504  20.4656277
  23.8150368  56.8125191  21.1466427   4.5841660   2.8115919   4.3467603
   5.0288997   3.5975461   4.6641240   4.5225921   2.2443871   5.1153426
   0.4506077  31.0569000  13.9052973   0.6616732  30.3297939  14.4909592
  -0.1838170  31.5814648  14.3937340  69.0339813  20.3419666  28.9088516
  68.8676224  20.6007366  29.8152714  69.9873352  20.3614388  28.8253384
  41.8385735  49.8923874  34.2230835  41.2109566  49.9198380  34.9452858
  41.6441002  50.6746674  33.7068977  39.2553825  48.1665649  14.7153969
  39.8664169  48.3148155  13.9936686  39.2907982  48.9736404  15.2288218
  51.3918839   2.4815652   7.3988876  51.8644218   1.6639452   7.5552087
  51.9608574   2.9783924   6.8109546  52.2672234   5.3749442  34.6693306
  52.3532410   6.0814567  34.0292740  53.0286140   4.8162646  34.5131569
  84.0924835  65.2559891  71.1000977  84.5037613  65.6922531  70.3539352
  84.5774689  65.5749969  71.8611832  52.5077858   9.4424820  28.4627361
  52.2200546   9.7093391  27.5896797  52.6600533  10.2657146  28.9267769
   8.0526924  34.6406898  20.5737877   8.7674942  34.3792763  21.1542645
   8.1134644  35.5951195  20.5338211  41.1817780  20.1106892   4.5185962
  41.1224785  21.0516605   4.6837945  40.4836311  19.9337387   3.8881125
  31.5579624  -0.0362878   0.8202719  31.6460819  -0.0290639  -0.1328360
  31.1338234   0.7963130   1.0279088  29.7205009  47.5661316   7.1808224
  29.4959202  48.4930420   7.0993643  30.4674778  47.5523643   7.7792110
  36.1542435  54.4715576  81.7059937  35.4502029  54.4983711  81.0580444
  35.7702751  54.0213356  82.4583893  41.3532333  13.0806446  85.1789017
  40.6079636  12.4818840  85.2267914  41.2462883  13.5295839  84.3403015
  75.7697220  68.1876678  28.9118042  76.1338654  67.9074707  28.0720901
  76.5324478  68.2927856  29.4805126  77.5144958  50.3182831  16.6316853
  77.8530502  50.7133522  15.8282375  77.6296539  50.9953156  17.2984657
   0.4672420  32.9469986  45.5586243   1.4213239  32.8823509  45.5164299
   0.1635114  32.0404015  45.5132217  73.2274475  12.4937944  37.8683968
  72.4478989  11.9682570  37.6885338  73.2260284  13.1655245  37.1864815
  58.8180618  58.0768051  13.1608219  57.9554825  58.4109497  12.9147701
  58.6757507  57.1447029  13.3256578  60.1631546   8.4231958  24.7259789
  59.2913704   8.6218157  25.0677071  60.7520981   8.9825363  25.2324505
  59.7568779  39.8665123   0.6321268  59.5962448  39.4858665   1.4955726
  59.6209183  40.8059464   0.7554584  29.9558544  58.3265152  83.6689835
  29.6783485  57.6744270  84.3124161  29.5416126  58.0483665  82.8521194
   5.0947742  65.4632874  11.1894569   4.5372310  66.2411728  11.2059736
   5.0496058  65.1554108  10.2842474  72.3470230  36.6488647  35.7604523
  73.0446091  37.0705414  35.2586555  71.9780045  36.0011444  35.1600266
  25.5247574  44.0360718  34.1957321  24.8060875  43.6438141  33.6998711
  25.3176022  44.9702911  34.2192917  60.5093269  64.0930405  12.3008394
  60.0323715  63.5234184  11.6972876  60.9602623  63.4908562  12.8926716
  46.9965630  41.3705063  28.0415993  46.2499199  40.7958374  27.8727360
  46.8675995  42.1111183  27.4490662  39.4527664  52.4061241   1.5494038
  39.2302208  53.2660866   1.9060171  38.9544334  51.7885857   2.0847008
  23.9870644  49.6473083  52.4004593  23.8736229  48.9815483  51.7221298
  23.6576595  50.4531784  52.0025864  62.6389122  53.8539772  58.3566589
  63.1065559  54.6821251  58.2484322  62.0068703  53.8401184  57.6379356
  31.3407249  56.5922318  77.1240005  31.7728367  56.3133469  76.3166962
  30.9624004  57.4452553  76.9108047  74.6516876  70.1905289  25.2437515
  75.4208374  69.6392212  25.3876343  74.2447968  70.2640152  26.1070423
  79.1915741  45.7727089  27.1123695  79.4961548  45.0793533  26.5269489
  79.8976974  46.4189072  27.1060352   4.0957766  39.4896889  57.0523109
   4.8820477  39.1229515  57.4566727   4.3795471  39.7604904  56.1791687
   5.3555660  62.1876221  18.8919525   4.8670845  61.6555862  18.2638130
   5.2831640  61.7096329  19.7180977  34.2546844  56.5763626  20.8965816
  34.0253792  55.6509895  20.9822216  34.4415588  56.6915817  19.9648991
  10.6280184  65.6583481  29.8076191  10.6079741  66.5495529  30.1563244
  11.0370035  65.7471390  28.9467583  80.3576736  26.6067810  59.8956223
  79.5934372  26.9223385  60.3779068  80.5218582  27.2827740  59.2381210
  75.8972321  45.9125328   3.9688623  75.7828979  46.8515358   4.1152592
  75.2415466  45.5007896   4.5316944  64.4647293  55.5910034  65.2257309
  65.3485489  55.2892799  65.0158463  64.5418549  56.5439224  65.2729721
  78.1779022  69.5792084  39.7670174  78.4548264  70.1214523  39.0284233
  78.0438995  70.2001572  40.4830475  15.6774187  35.6024170  13.3969088
  16.3724651  34.9463921  13.4495821  15.8710165  36.0928535  12.5980196
  37.9532928  63.6407013  79.2439194  38.8551903  63.6954308  79.5598602
  37.9975357  63.9485435  78.3386536   7.9573154  49.0939598  24.5329914
   7.8054242  48.6605492  23.6931610   7.2196703  49.6964531  24.6284599
  37.0232048  59.9613571   2.7215047  37.7586555  59.5716362   2.2487876
  36.5792427  60.5031357   2.0691206  68.1664658  31.0272026   5.5375686
  68.9257889  30.7604485   6.0557475  68.0349503  31.9483643   5.7620587
  86.0599823  42.3852806  26.5954571  86.6402588  42.1375961  27.3152962
  85.9582672  41.5832405  26.0829926  61.8354263  47.8194733  55.3393211
  62.1457825  47.1195831  54.7648087  61.6203003  47.3774529  56.1606445
  47.9850273  70.8435822  15.4963503  47.1820908  70.9413757  16.0081692
  48.2741127  69.9483414  15.6729774  29.0784416  19.3589554  85.6905518
  28.4653397  19.3083439  86.4238892  29.8724861  18.9321251  86.0123291
  39.1670303  33.6933975  81.3737793  38.2902870  33.8606987  81.7195587
  39.4677849  34.5464478  81.0605927  47.4768410   5.3373404  45.0392189
  47.0738258   4.9973402  44.2403412  48.4011497   5.1014199  44.9603157
  69.9809875  47.0703850  10.1264105  69.0875473  46.9169159  10.4337292
  69.9408264  46.9100342   9.1835918  18.3502235  47.0152397   6.5508037
  19.2333832  47.0541191   6.9178891  17.9671249  47.8676949   6.7576561
   0.6554455   3.2267158  25.2217026   1.0076288   3.9820087  24.7508183
  -0.1657327   3.0261154  24.7726402  70.2065964  24.8091545  41.1158829
  69.8198700  25.6774578  41.0030937  71.1394196  24.9778290  41.2486496
   5.2081914  45.2275925  79.0889664   5.0260859  44.3889847  78.6649246
   5.3527398  45.0046043  80.0085373  84.8289413  36.6858711  31.5209217
  84.4639664  37.5642815  31.6277752  84.1454697  36.1966019  31.0629711
  72.7532501   8.0029669   5.0237904  72.7110443   7.2998528   5.6719275
  73.6212997   8.3879433   5.1442204  64.3092728   3.5542338  59.8509674
  64.4001236   3.9142163  58.9687042  64.1259232   2.6249754  59.7127876
  73.1895599   5.6984682  40.5048370  73.3516006   6.3453922  39.8182068
  74.0609283   5.4673486  40.8266144  70.3768234  42.9886742  75.6467896
  69.8411484  43.6903496  76.0168228  70.7283707  43.3576241  74.8365250
  54.7389374  54.7648392  50.3294296  55.0831413  55.0333405  51.1812859
  54.6615639  55.5804787  49.8344765  84.4324036  56.0965195   4.4108734
  83.5865097  55.6623154   4.5211635  84.9534378  55.4790802   3.8975317
  53.0297699  29.5464668  31.5184822  52.9669685  29.8621273  32.4199524
  53.2876587  30.3168945  31.0123539  78.6143723  23.3504238  34.4127808
  78.5817566  22.5188217  33.9399109  77.7692566  23.4056053  34.8588448
  15.8835917  26.3231430  87.8801422  15.9305525  27.1987133  88.2640686
  14.9465046  26.1362400  87.8238602  33.0252304  51.3919907  53.6491432
  32.0773888  51.2593880  53.6333313  33.3826675  50.5372620  53.8897781
  17.9170303   4.8447337  69.5907288  17.3063259   5.5809007  69.5542603
  17.5322266   4.1854815  69.0131912  39.2597618  42.2009163  22.5101261
  38.3571930  41.9121819  22.6451721  39.4624329  41.9410667  21.6114407
   8.3083563   7.7741303   2.1451962   8.1511593   6.8536410   2.3554845
   9.1887608   7.9488192   2.4777663  20.1104927   5.2956185  82.8265610
  20.8434505   4.6817913  82.8736954  20.0624714   5.6790204  83.7023087
  81.6197052  68.3451996  78.0354767  81.3925323  67.5689392  78.5473785
  81.9821091  67.9972076  77.2207413  83.3208237  56.6498413  25.6816025
  82.4425964  56.3542862  25.4415989  83.5986328  56.0429230  26.3676815
  57.2212410   5.0004520  31.8729630  56.8376732   4.4695582  31.1749210
  56.5860786   5.7019405  32.0168953  65.9910202  37.3770752  49.6319504
  65.0843658  37.6371346  49.7949600  66.4330750  38.1900482  49.3872147
  20.0570793  50.9311600  53.6373672  19.2888432  50.3620148  53.5913162
  20.3309059  50.8902245  54.5536499  83.8417282  47.6580124  40.8295326
  84.6676331  47.1846275  40.9295845  84.0905991  48.5819359  40.8551941
  62.3128204  36.1447449  12.3866644  63.1176529  35.6496429  12.5394697
  62.2539368  36.2180939  11.4340973  77.9053574  59.6612091  76.8843231
  77.7453842  60.0508957  77.7438507  77.2456589  60.0575256  76.3151398
  67.1835556  65.4243317  78.8000183  67.4592056  64.5290070  78.6034393
  67.3631210  65.9121628  77.9962692  79.3701935   4.6153626  40.5210762
  78.5292053   4.9414916  40.2007561  79.3278580   3.6689231  40.3843613
   3.9181533   8.2121611   0.6812973   3.0410323   7.9609890   0.3918091
   4.4592967   7.4435902   0.5004817  39.1812363  54.8591232   3.3233302
  38.9882202  54.9246445   4.2585754  38.4552841  55.3141403   2.8964970
  74.7957535  63.6349030  78.9872208  75.0421829  63.3961945  79.8808212
  73.9021835  63.9688454  79.0662918  86.3136520  19.7028465  62.0746078
  86.6735992  20.5816212  61.9545059  85.5857849  19.6553802  61.4547806
  84.6698303  41.7883720  12.4072752  85.2601395  42.4773102  12.7124376
  85.2453918  41.0488510  12.2121649  35.2264404  50.7585030  70.2617340
  35.6553535  51.6130638  70.2171249  35.6294174  50.2511826  69.5571289
  58.0901108  16.4291420  51.2821388  58.6761932  15.8813019  51.8042641
  57.2108727  16.1433334  51.5301018  62.5514946  24.8377762  14.0780687
  61.7321014  24.5884018  14.5054350  62.4293137  24.5886230  13.1619759
  86.1501694  13.3825235   0.6678085  85.5725555  13.1830902  -0.0689558
  86.9530869  12.8959675   0.4812103  53.8914413   5.5943317  22.5247154
  53.4606361   5.8906169  21.7229328  53.5395470   4.7170315  22.6755371
  81.6459808  23.6351013  22.9010029  81.7177429  23.9245911  23.8105526
  82.0215378  22.7546558  22.8995380   2.7207050  49.2496109  31.7054844
   2.2472572  48.6976509  31.0830536   3.5607095  49.4234276  31.2807350
  80.8433533   4.6823368  26.9406757  80.3449936   4.7200074  26.1243114
  81.7445450   4.8726354  26.6801453  49.6189766  55.5491943  11.4960108
  50.3023300  55.5282631  10.8260689  49.8318062  56.3135643  12.0314312
  82.8423309  12.3477545  18.2621803  83.0758286  12.9405966  18.9764977
  82.4877472  12.9202957  17.5819607  16.8094997  22.3635788  16.5384731
  16.5074749  21.5561752  16.9545422  16.8481522  23.0006657  17.2518158
  63.2472725  58.7603798   7.1836586  63.7328110  59.3763542   7.7323461
  62.8092842  58.1793938   7.8056364  13.2918816  40.4395065  67.6994934
  14.1890306  40.3169518  67.3891144  12.9040346  41.0525513  67.0750122
  52.9976082  17.4625721  84.8359451  52.0902710  17.4782257  84.5314331
  52.9426804  17.6897297  85.7641754  78.0396194  69.5807800  30.3960819
  78.9652481  69.3489761  30.3205090  77.7751923  69.2358856  31.2489319
  40.1032867  53.9930954   7.6573954  39.5901566  54.6377792   7.1702428
  41.0135460  54.2473412   7.5056729  78.0577621  45.7545395  21.3958874
  77.3287735  45.2061768  21.6858997  78.8377533  45.2276382  21.5697250
  23.2274494  18.6829662  13.6939993  23.3873463  19.6178131  13.8233252
  22.6793385  18.4287720  14.4364223  55.6030540  37.8244057  69.8025894
  55.3332710  38.7409134  69.7437744  56.5596237  37.8547516  69.7856598
   9.6533594  57.0941963  25.7154121   9.6451511  56.1392097  25.7799072
   9.5368233  57.3961029  26.6162472  58.8663330  35.9608459  67.2434082
  59.7885704  36.1030922  67.0301514  58.8835678  35.3995209  68.0185547
  22.8759575  38.1609344  26.6078568  22.6162510  38.7326546  27.3302975
  23.0526123  38.7584152  25.8811893  30.1739883  25.2270660   0.8115435
  29.4273777  24.6284542   0.7899331  30.2171841  25.5233555   1.7207068
  84.1982956  39.7464561  28.7216682  83.9053726  40.6504364  28.8367863
  84.9056549  39.6410332  29.3578777  23.4063053  62.3740807  16.4574909
  24.1779709  62.4676628  15.8989143  23.6147804  62.8826675  17.2411423
  47.2301712  50.1997299  82.6117325  47.0545311  50.4204750  81.6970444
  46.7996597  50.8927841  83.1122971  40.0842094  12.0340891   9.5042515
  40.0445175  11.1208839   9.7883501  39.2185860  12.2077045   9.1344032
  67.3683929  46.6463928  86.4631882  67.7580566  47.5205650  86.4487076
  66.4369888  46.8019028  86.6198273  19.2052536   8.4188080  14.5811548
  19.3644829   7.5449467  14.9378672  18.2518311   8.5031118  14.5705662
   5.9550228   1.9912004  88.4280548   6.6759453   2.2523971  89.0010071
   5.7177019   1.1133057  88.7267380   0.8957506  61.9580116  17.0587273
   0.6500465  61.8046417  17.9710541   1.6626419  61.4021263  16.9205227
  20.0815105  13.3708096  79.3536758  20.5216007  13.3572550  80.2035980
  19.4406681  14.0780354  79.4270401  58.4148903  16.2050972   2.4626906
  58.6482201  16.4347572   1.5632217  57.5626450  16.6180458   2.6019309
   0.7626500  21.1262093  50.9676323   0.4343488  21.9679184  51.2838249
   1.5869935  21.3396015  50.5304222  13.5014725   0.4550236  14.5326252
  12.8092890   0.8529488  14.0046396  13.5044546   0.9616451  15.3447571
   3.1782963  21.4655151  85.4338226   3.5626044  21.5910225  84.5661926
   3.4729941  20.5954151  85.7027283  73.1492615  70.3805923  12.5447493
  73.1481781  70.7916412  11.6803007  74.0721893  70.1995773  12.7227259
  17.8947773  68.9639435  86.6428299  18.5363922  68.3011093  86.8982010
  18.1267281  69.7342148  87.1615982  86.3010178  60.7265587  10.6183453
  86.3018723  60.8470535   9.6687603  85.5139771  61.1822701  10.9168968
  63.0854568  59.7462349  76.5777054  62.4506073  59.4226723  77.2168503
  62.5518265  60.1510887  75.8939209  85.4213181  28.6923256  12.2959824
  84.9652328  29.4507771  11.9313250  85.0187759  28.5607128  13.1543961
  49.0090637  49.5805016  32.8688049  48.1462479  49.2979660  33.1720467
  49.1938858  50.3713112  33.3754578   7.8280678  49.0284691  11.3365688
   8.6100655  49.4542885  10.9853010   7.3533530  48.7238884  10.5631952
   3.5564482  64.1923981  20.4229145   4.3969445  64.6392059  20.5236950
   3.7853208  63.3227158  20.0950298  52.6289597  29.7662983  23.9789658
  52.6748695  30.2257137  23.1404781  53.5423203  29.6644878  24.2466145
  87.0094147  25.0097790  77.3608627  86.1590958  24.6153450  77.5547943
  86.9936142  25.8502083  77.8187485  18.9944801  68.3976974  81.9457016
  19.3341637  68.8375702  82.7250366  19.7301216  68.3934326  81.3332977
  55.6357231  67.0296631  24.8847618  55.4921684  66.2686768  25.4473743
  55.7541389  67.7587204  25.4935989  12.3290977  58.1875954  54.2691231
  12.0989904  59.0068550  54.7074089  11.9352169  58.2621384  53.3999100
  84.5319595  60.4680023   5.3518848  84.7775421  59.9972458   6.1483212
  84.5341873  59.7986069   4.6676779   7.8158340   5.3411241  32.1186409
   6.9934320   5.8285480  32.1666489   7.5924354   4.4633541  32.4282303
  12.3493071   8.3047695  22.7047749  12.5146093   7.3635874  22.7603054
  12.4232426   8.6146002  23.6074200  13.5119219  37.9960403  69.6129684
  13.8304434  38.6230392  68.9636230  12.5888395  38.2206154  69.7300797
  17.0146389  60.4220467  44.9800682  17.6335907  60.8314476  45.5846519
  17.5576496  60.1102486  44.2560844  10.8412457  61.7527618  39.1801758
  10.6239071  62.2467003  39.9707565  10.0211430  61.7155914  38.6879539
  46.1535721   3.7597690   0.4984498  46.5899506   4.2152209  -0.2215271
  46.3956833   4.2582178   1.2789382  10.8837185  17.8647976  16.0058823
  10.3175879  17.6500835  16.7472496  10.7649546  18.8060284  15.8785496
  68.0988922  48.4468269  66.4263458  67.4140930  48.3565216  67.0890198
  68.9134903  48.2751884  66.8987885  50.0280838  23.8023052  13.3104572
  49.3987503  23.6675053  14.0189762  50.4142189  22.9385204  13.1655226
  17.9625912  42.0003738  63.2424049  17.9104385  42.3367538  62.3477745
  17.7149448  42.7435226  63.7925262  20.1074619  49.1693497  32.3077354
  20.5427666  50.0193672  32.3726578  20.3349705  48.7209206  33.1222191
  28.1827221  46.3317490  40.9226036  28.4849739  45.8151817  41.6696205
  28.4723358  47.2235260  41.1151886  51.3023109  18.1952419  23.3921967
  52.1692085  17.8368893  23.5827446  50.8462868  17.4886971  22.9349594
  70.6385956  21.9920902  64.1502686  70.7682877  21.6173038  63.2790909
  70.4695740  21.2366467  64.7132645  35.8738708  53.1401367  55.2082214
  36.6376762  53.6286850  54.9013786  35.4136734  52.8876228  54.4077911
   1.2147000  15.2950535  62.8009720   0.8975750  15.4092464  61.9050789
   1.0331612  14.3774567  63.0041771  15.3658476  67.1124573   4.8376055
  14.4289808  67.2215271   4.6744571  15.7698755  67.1878510   3.9731350
  75.4960480  13.7298040  11.9399338  74.8634949  13.7389507  11.2215815
  76.3335037  13.9350300  11.5242662  63.5599327  50.6706848  68.4287186
  62.9501991  51.4028473  68.5203552  63.4624214  50.3902359  67.5187378
  23.9419174  49.0868340   6.6831489  23.8712559  49.1418457   5.7301469
  23.7592640  49.9754257   6.9885526  59.7121735  48.2997246  41.2140656
  58.8330688  48.2583809  41.5904961  59.8493652  47.4336205  40.8302994
  31.6863155  47.6261940  15.4025002  31.2269688  47.9423599  16.1804924
  32.3817291  47.0654449  15.7462883   6.7016034  43.8540726  87.6238708
   7.5004644  43.4544334  87.2798615   7.0109243  44.5821800  88.1627655
  34.4592972   9.8673391  23.7540112  34.3066826  10.0121164  24.6878109
  35.2409210  10.3832722  23.5562515  80.6361389  67.4095001  27.2743702
  80.6190720  67.7584229  28.1655464  81.0957413  66.5735703  27.3532085
  75.7326355  32.1690788  39.8464966  75.0656586  32.3309746  39.1792946
  75.3694763  31.4636745  40.3819847  28.7274323  39.8238754  34.5762215
  28.3474560  39.5550919  33.7397957  29.4996891  40.3354530  34.3350945
  75.3020020   0.7568030  83.5693588  76.1575775   0.9785655  83.2018661
  74.6739883   1.1978989  82.9972839  35.1073112  31.3952484   3.6618969
  34.4755783  31.1358738   2.9911747  35.0779839  32.3519974   3.6613505
  68.3846130  30.4864883  66.8777237  68.9827881  29.8432655  67.2581024
  68.9452896  31.2264137  66.6445236  33.0117912   0.9406908  39.7208786
  32.3573036   1.3040723  39.1243629  32.6805267   1.1476750  40.5947533
  35.8843002  60.6515427  26.5286713  35.7749443  59.8113213  26.0833626
  35.0279465  60.8298378  26.9173889  65.9429779  50.2358627  21.3542023
  65.3767395  50.1580200  20.5863781  66.7889862  49.8953743  21.0634117
  25.4978256   0.6897858   2.7054403  26.3215313   0.9033029   2.2670889
  25.7055836   0.7309836   3.6389127  79.6134720  49.8035889  33.7760468
  79.2811279  50.6762505  33.5656967  80.4124603  49.7197189  33.2556496
  33.2125015  64.1562805  48.2183685  33.1289597  64.4611511  47.3148727
  34.1463623  63.9750404  48.3246117  54.4752083  31.8035469  68.8282242
  53.5598030  31.9963703  69.0309219  54.6211929  32.2070656  67.9725952
  13.4428320  39.0814705  87.6850204  13.6020527  40.0196533  87.7884445
  12.6649628  39.0303497  87.1295624  32.6937180  52.9389839  67.8423233
  33.4455070  52.9541817  67.2500229  32.9870834  53.4231415  68.6141815
  76.4150543  21.4912720  35.6942329  75.5999985  21.0132389  35.5412903
  77.0221863  21.1449108  35.0402794  36.1741447  50.2848892  61.5304832
  35.8346405  50.5917015  60.6897469  35.3970032  50.0083275  62.0160713
   2.9086001  20.6985130  17.5917072   2.7401471  21.3983593  18.2226353
   2.1092811  20.6513786  17.0672073  17.0946541  71.0584717   4.8424344
  16.2043648  71.2389908   4.5407233  16.9930744  70.3502274   5.4782825
   6.8736362  58.1477699  10.8652020   7.7103128  58.5313759  10.6024265
   6.3044724  58.9006882  11.0245705  51.7043533   7.1337771  83.9837189
  52.4653435   7.5015488  83.5344162  51.2306099   7.8963547  84.3157959
  45.4220581  65.3588638  72.2100372  45.6699409  66.2783279  72.3068314
  44.4653397  65.3704071  72.1819839  82.4180756  19.7555218  53.0780411
  82.3827972  18.9728451  53.6279526  82.6071548  19.4233341  52.2004662
  46.5417786  56.6991959  42.5103111  46.9399910  55.8389473  42.3775253
  45.6527290  56.6070328  42.1677818  56.5533676  45.4245415  71.8757248
  56.1247826  44.6483002  71.5151825  56.0712547  46.1608696  71.4993973
  76.0074387  51.3880615  20.8768330  75.1617355  51.3538322  20.4297886
  76.6416779  51.5467644  20.1776943  76.8274078  17.0610180   0.5750845
  76.8592682  16.1043491   0.5735748  77.6569214  17.3289146   0.1796595
  35.0558510  11.0141182  72.4999847  34.2851601  11.2924719  72.9947433
  35.0910339  11.6132698  71.7543182  48.7282448  69.2432098  33.5790787
  48.1272507  69.9881744  33.5711670  48.1595726  68.4775620  33.6604843
  70.2468872  14.4664040  21.3635006  70.9362793  15.0422430  21.0327721
  69.6439667  15.0526648  21.8206806  49.1076202  71.6841888  13.3291416
  48.8201103  71.5599594  14.2336493  49.0113487  70.8211288  12.9265385
  10.1412010   5.8925462  19.8637257   9.3964510   5.3474112  19.6099415
  10.0097237   6.7135239  19.3894444  78.1545486  21.0301590  33.1846771
  77.8671112  20.1179733  33.1455994  77.8189087  21.4217987  32.3783302
  63.9050636  62.1919098  24.8035755  64.8492584  62.2301674  24.6510239
  63.6278229  63.1079292  24.8202038  63.4656487  26.0111580  40.4346237
  64.2206955  26.0331345  39.8466988  63.1909294  25.0942326  40.4374886
  48.5731697  18.5097198  39.4156113  48.2049217  19.0296993  40.1299248
  49.4716110  18.3271313  39.6907387  62.6273918  37.6965904  81.6670532
  62.7178383  37.0692902  80.9497375  63.0396843  37.2654877  82.4156494
  60.9337654  69.5422974  55.5379753  60.6777153  68.6264267  55.4291115
  61.7678909  69.6145706  55.0740280  45.4603691  60.7178078  41.1651802
  46.3425407  61.0786629  41.2534103  45.2043648  60.4898071  42.0588875
  17.4987240  62.6440544  64.6184311  16.8295898  62.9141159  63.9894943
  18.2798595  62.4918823  64.0865479  81.0904388   4.6812944  66.6434708
  81.3493576   4.5767264  65.7279053  80.7199707   3.8326776  66.8860321
  69.5348129  54.6839027  20.5134659  70.4349670  54.9127884  20.7449093
  69.0402374  54.8082428  21.3235035  58.1966324  48.2462921  28.9050045
  58.7570915  48.8881111  28.4689045  57.3744049  48.7116051  29.0588264
  14.6123037  64.1462860  59.5565338  14.8472452  63.8792381  58.6678734
  13.8213739  64.6741257  59.4467964  28.3522644  24.6456814  76.9186707
  27.8924351  24.0380592  76.3393707  28.2045307  24.2967548  77.7976761
  86.0594101  66.1490250  68.3646698  86.4547272  66.7747574  68.9716339
  86.7770386  65.5633621  68.1233368  70.3668060  34.8739471  48.4247894
  69.9493408  35.7003326  48.6677742  69.9155655  34.2138519  48.9509850
   2.0011637  16.5772324  10.8678761   1.3992910  15.8361082  10.7991962
   1.4359127  17.3488979  10.8324785  46.5659561  34.4107513  67.1407242
  47.0690041  33.7764969  66.6299515  47.2133141  34.8278275  67.7092361
  19.7232018   5.9236693  15.6228256  20.5505619   5.4803638  15.4352455
  19.8908710   6.4129491  16.4282608  76.0234222  50.8105736  12.9482975
  76.7253265  50.9345245  13.5871964  76.2710190  51.3666306  12.2095642
  70.3006668  38.0541458   8.1044121  71.1901932  38.3973694   8.1890717
  69.7397461  38.7613106   8.4230413  67.8530045  26.4947033  86.1463318
  67.5220795  25.7933521  86.7074280  68.1764069  27.1573181  86.7567291
  60.2920227   8.6212950  48.5357552  60.7000351   8.0172892  47.9153252
  59.3515892   8.4953756  48.4094048  81.3453522  31.8831749  53.0463066
  82.0103989  32.4296646  52.6276283  80.9697495  31.3717136  52.3296700
  58.0796356  22.6185246  60.8783989  58.3432274  22.4164047  61.7761154
  58.4768829  21.9259319  60.3504372  68.9511032  36.8006058  13.9024010
  68.8007660  35.8808670  13.6839705  68.3481750  36.9769020  14.6246395
  16.9538212  64.5071259   9.0921659  16.6051502  64.5630875   8.2024870
  16.5612869  63.7124977   9.4537106  75.3961182   1.1790669  34.1653633
  75.1338806   0.2587749  34.1883087  74.9220581   1.5446446  33.4184685
  73.9693909  70.8354874  58.2108269  73.0840378  71.1590881  58.0445023
  74.3314896  71.4471817  58.8518677  37.3340492  60.0170021   9.8763399
  37.9983139  59.5098724  10.3430367  36.5011215  59.6966476  10.2225170
  44.1023712   2.4792423  46.9912033  43.3133965   2.4605949  46.4495316
  43.8475800   2.0366731  47.8008003   9.0385361  38.2505188  22.6536198
   9.7174625  38.5976639  22.0750160   8.2393951  38.2758484  22.1273460
  82.0579529  67.4147415   3.3933661  81.8625183  66.8175354   2.6713014
  81.2807083  67.3788910   3.9508920  57.5533409  48.0490875  43.8784599
  57.4009514  47.1838799  43.4984322  57.9424896  47.8695831  44.7343674
   6.3064165  58.3134613  64.6386642   5.3737965  58.1544838  64.7841873
   6.7482533  57.6608543  65.1819077  45.6089668  65.3715439  82.8208237
  44.9207153  65.6710968  83.4147949  45.5631714  64.4163971  82.8634796
   2.0978904  37.0646667  17.7329979   2.1827435  37.7876053  18.3546009
   2.1159925  36.2774582  18.2772465  42.2174759  50.7076836  84.5746384
  42.6111450  51.5753326  84.6664886  42.1581459  50.3755455  85.4704056
  80.7610397  34.6581268  53.5181847  80.7845459  33.8682671  52.9779968
  80.5909805  35.3673210  52.8982201  45.5771370  44.9840469  74.2595444
  45.3288269  45.8969879  74.4048386  46.3625908  45.0332794  73.7146835
  50.6999741  58.1596222  26.6256542  50.5891914  57.2142372  26.7266808
  50.2363129  58.3698387  25.8150616  24.8569889  43.7859650  40.8709831
  25.4020767  43.7119713  41.6543350  24.8451691  42.9023743  40.5030785
  20.7314014  15.1653271  27.3956432  21.6510811  15.0352764  27.6269627
  20.6716576  16.0919018  27.1630020  69.4839630  10.0046015  60.4069672
  68.9697876  10.3785772  61.1225014  69.1273575  10.4117775  59.6174927
  69.9626083  50.2476807  47.2648926  70.7177582  50.6583672  47.6859818
  69.4956970  49.8150139  47.9797516  58.2136383  10.8195667  33.8122597
  58.9825249  10.3041563  34.0559807  58.3198853  11.6458092  34.2837105
  23.0693913  71.7841949   1.3883572  23.8782978  72.0385437   1.8324380
  23.2815170  70.9543839   0.9609828   8.5244627  39.6014175  18.5853024
   7.9372692  38.9007492  18.3015804   9.1063042  39.1838493  19.2203827
  67.9418335  70.8552399  46.1487846  68.8284073  70.9062881  46.5060196
  67.7808914  69.9179153  46.0403862  84.8496017  22.7142258  88.3392181
  84.5115204  21.9635849  87.8508835  84.3012772  23.4477425  88.0607834
  40.0984840  20.8406105  15.5787001  40.7309456  20.3269882  15.0762892
  39.2792015  20.3513126  15.5038824  72.9424438  53.2552757  88.1657562
  72.1345825  53.1297760  87.6679153  73.4470749  53.8834267  87.6490326
   1.6196215  71.0176620  20.9233913   1.3762503  70.1184540  20.7033310
   2.0354114  71.3543320  20.1296654  65.6416779  17.9960098  45.1065254
  65.1530075  18.6953545  45.5405197  65.5537949  17.2436333  45.6917076
  43.3084259  56.0660439  50.6959648  42.4098778  55.8275032  50.9238663
  43.3207893  56.0661354  49.7388458  84.9093018  48.1835403  59.0708313
  85.2909317  47.5594749  58.4534760  85.4845505  48.9472771  59.0257492
  85.4586563  50.2011147  40.2479286  85.8921356  50.9399300  40.6751060
  86.0980225  49.8846817  39.6097183  65.5863953  17.0473404  18.8233700
  64.7708664  17.3510628  18.4247456  65.4479141  17.1555901  19.7642918
  49.7313004  69.2861938  25.3335857  49.2701912  68.7274475  24.7079582
  50.4829941  69.6225128  24.8456478  13.2356596  49.9761124  42.7698441
  12.7449579  50.2211151  41.9853592  14.1317949  50.2606850  42.5904198
  44.4284782  24.9582882   4.5029445  45.1846886  24.3845749   4.6263537
  43.8655167  24.7777939   5.2557588  28.9402409  71.8849411   4.2771149
  28.8477993  71.1935883   4.9326377  28.8162403  71.4388123   3.4393680
  27.3488369  38.1573448  66.7253876  27.9211578  38.8286552  67.0969009
  27.2128830  37.5359154  67.4406281  46.6561203  18.5375118  73.9488907
  45.9790268  17.9504414  74.2852402  46.1941566  19.3554173  73.7649002
  20.0011749  59.5512657  84.7704926  19.9461632  60.3383293  84.2285156
  19.3799706  58.9419365  84.3716736  84.0138855  25.9933643  63.3369789
  84.4128418  25.1323185  63.4621315  84.3697968  26.3034992  62.5042877
  23.3350582  33.2365570  83.5152054  22.5145340  33.2113075  84.0074844
  23.7632484  32.4054680  83.7205734  17.3688068  60.2195168  82.4371338
  16.8120747  60.0953407  81.6684570  17.5767078  59.3316765  82.7282410
  63.7723083  71.1240845  45.0061646  64.0167618  71.6011124  44.2131195
  63.7580757  71.7913895  45.6922607  84.9198990  19.3579807   7.7702188
  84.0868454  18.8871460   7.7464623  85.4846725  18.8177567   8.3228674
  61.2343140  41.5223007  24.1083260  62.1297646  41.7589760  24.3499546
  61.0972633  40.6636238  24.5084839  29.1842995  57.9478035  32.0612221
  29.9951878  58.3323898  32.3940697  28.7443657  58.6689148  31.6110096
  75.9819641  18.7390480  53.8483810  76.7097778  18.3520584  53.3618011
  75.2104416  18.2592335  53.5471268  45.7198181  16.4776497  15.6567554
  46.4313850  17.1177120  15.6418591  46.0729599  15.7383909  16.1517506
   9.4883757  49.8472061  87.9660568   9.5233288  49.7491188  88.9175720
   8.5735331  49.6776428  87.7412415  33.8221436  12.7391520  13.6097107
  32.9521980  12.3497391  13.5214767  34.1870995  12.7129936  12.7252026
   5.1881928   5.0148101  64.4781570   6.0461545   5.1115165  64.8914108
   4.5634198   5.1222696  65.1953354  50.9560165  51.2127113  70.2005081
  50.4573326  52.0103378  70.3775330  50.4744110  50.5228615  70.6570129
  84.4939499   8.5119734  10.7624159  84.4456024   7.9365931  11.5258512
  83.5870132   8.5961246  10.4681082  73.0833511  48.6370544  63.4270210
  72.3389282  48.2567291  63.8932991  73.8041229  48.5999451  64.0557938
  50.9623566  48.1669540  11.2772045  50.5367546  47.5351143  11.8567486
  50.4019470  48.9420280  11.3150816  51.8471565  10.0116024   4.6399202
  51.5926666  10.4835205   3.8469763  51.9976768  10.6983776   5.2894697
  34.0019684  54.3263588  83.5629272  33.4125175  54.1571083  84.2978592
  33.5174828  54.0271912  82.7935028  69.8086090   1.9814092  15.7877836
  70.1859970   1.1346910  16.0262756  70.5481567   2.5886319  15.8120680
  13.6196404  40.3172684  22.2520924  13.4799194  40.1963158  21.3129005
  14.3346643  40.9511642  22.3081894   7.9815006  11.9054794   0.6517316
   7.3102317  11.2316389   0.7592915   8.7576342  11.4262276   0.3616164
  61.9891090  19.9470100  36.8461876  62.0954361  19.0478535  37.1567383
  62.8635635  20.2045631  36.5542564   3.9018409  10.5998611  50.6548805
   3.8100202  11.0545406  49.8175850   4.7650709  10.1886253  50.6107140
  19.5521317  39.6851578  73.7640228  18.8452778  39.0623970  73.9336014
  19.4784775  40.3287849  74.4686890  14.2542257  24.3518085  76.1618881
  14.8682652  24.9989796  75.8149643  14.0416107  23.7969894  75.4114227
  48.3587074  21.0132561  35.1985626  47.9132271  21.7098961  34.7164040
  48.0192528  21.0845585  36.0907059  14.6923122  45.0741806  80.6297836
  15.6009855  44.9721222  80.9128571  14.2256880  45.3521080  81.4179764
  74.4234161  21.8406448   0.1632505  74.7861710  20.9548988   0.1730932
  74.3488312  22.0791988   1.0872420  62.6522217  23.3305378  40.3896523
  63.5311928  23.0056076  40.1945763  62.0715141  22.7815933  39.8627052
  73.7471848  41.7376938  24.4576569  74.4468307  41.6187286  23.8153439
  72.9679718  41.9192238  23.9321957  42.9773865  63.6388588   2.5640056
  43.0179100  64.1253204   1.7406325  43.1095734  62.7256546   2.3094153
  52.8597336  28.9256496  18.6011829  53.3010826  28.0762806  18.5970173
  53.4454575  29.4974861  19.0973339  51.1982155  70.1028290  70.8171692
  51.3892555  70.8291702  70.2237320  52.0337677  69.9177170  71.2459030
  70.0338593  64.3464813  53.6948738  69.4696884  64.3245163  52.9219170
  70.9008789  64.1100006  53.3653679  56.7877579  26.1206627  25.6829910
  56.1811447  25.9961071  24.9531021  56.7546501  27.0599461  25.8643227
  61.0551949  64.6148148  15.8841925  60.6267776  65.3856888  15.5121183
  61.0101662  64.7492905  16.8308296  84.8721008   7.8402600  81.8690491
  85.3227158   7.1983852  81.3202515  83.9503021   7.5856867  81.8276672
  28.7228565  44.7522202  43.2526550  29.4793968  44.1938133  43.4317055
  28.4843731  45.1134300  44.1064034  53.5896912  15.4998178  82.7595520
  53.5495148  15.8748827  83.6392899  53.4686852  14.5598850  82.8941498
  26.6021805  17.7421894  78.5645218  27.0136127  17.0926399  79.1346512
  26.0138111  17.2330856  78.0069733  31.5626869  50.6358948  46.4501915
  32.0756798  50.7120743  47.2547226  32.2121239  50.6704254  45.7478600
  49.6943665  19.3119926  67.4902344  50.5373650  19.5140514  67.0843353
  49.7548752  19.6885529  68.3681717  30.1602688  30.9474316  85.3617554
  29.2740593  30.5857258  85.3675766  30.4172363  30.9665108  86.2836151
  76.1540527  55.0223045  81.6996841  77.0387268  54.9568672  82.0592728
  75.6816254  55.5724068  82.3245316  77.3347244   1.9305001  21.7562828
  77.1417313   1.5312525  22.6045685  76.6914902   2.6341989  21.6708775
   5.6294541  35.8889465  77.4867401   4.9957294  35.5712929  76.8435287
   6.4822116  35.7239037  77.0844955  64.4812088   3.9523585  70.8057022
  64.3469620   4.6735964  71.4205399  65.3079605   3.5550878  71.0793533
  40.5674934  15.9823055  74.3812561  41.0544701  15.2190275  74.6918945
  40.8575287  16.0995464  73.4766159  49.5964317  18.9366875  37.0152130
  48.8662910  18.8658829  36.4003067  49.2413635  18.6206646  37.8460503
  45.2563095   2.0713363  21.2094955  45.4311981   2.9814112  20.9698944
  45.2273521   1.6050357  20.3740578  18.0261459   3.6325970  63.8235893
  18.5806828   2.9281771  64.1590195  17.8775501   4.2009430  64.5793228
  67.9166336   6.1042509  64.6804504  67.0772247   6.1765804  64.2261353
  67.6898041   5.7824044  65.5529175  82.4179916  27.7923317  45.1723289
  82.5156097  28.6163235  45.6495552  82.3031769  27.1319447  45.8556557
  30.2731762  60.3452339  59.6180954  30.5208664  59.4991798  59.2451706
  30.1637554  60.1720352  60.5531158  78.2622375  50.9716301  50.4998932
  78.3897858  50.0231133  50.5167122  77.5609131  51.1302261  51.1317291
  50.4206886   5.2694364  29.7715187  50.8955879   6.0936341  29.6647396
  49.9946098   5.3473644  30.6251106  74.8390427  13.3577747  51.4290352
  74.5606308  12.6097775  51.9574471  74.0276184  13.8236780  51.2271538
  81.0280151   2.9253871  81.0042801  81.8289719   3.0144346  80.4877777
  81.1149902   2.0757918  81.4365540  65.4678268  18.1046143  23.8890228
  65.4246902  17.6243458  24.7158928  64.7532883  18.7392387  23.9430904
  70.4835052  55.5616226  28.1791725  69.8878174  56.2397308  27.8604889
  70.0486832  54.7379036  27.9586067   4.9738221  52.2950020  85.0956116
   4.0398746  52.5045815  85.0884781   5.1312962  51.8740463  84.2504959
  41.4497566   5.7052407   2.5153747  40.6831207   5.3077202   2.1024840
  42.1136627   5.0158410   2.5016608  45.8112755  20.6304169  66.3511200
  46.6944771  20.2691917  66.2756119  45.2434921  19.9540501  65.9818192
  66.5225677   8.8371592  68.9505463  66.3950272   8.3150949  69.7426453
  67.2996216   9.3650808  69.1341705  75.3215637   1.3148118  61.0244827
  76.0924683   0.9540274  61.4624138  74.7662125   1.6294488  61.7377930
  76.6525726  61.4229050   3.8364275  77.4729538  61.5168381   3.3523006
  76.1953506  60.7064095   3.3961804  16.1974907  18.9111538   7.3950558
  16.5149803  18.0221329   7.5534024  15.9733019  18.9232368   6.4645581
  35.5759926  16.2586651  86.2776108  35.4096069  15.3279896  86.4272461
  36.4749146  16.2916775  85.9503784  72.7848740  68.1636887  55.4160423
  71.8962250  67.8123856  55.4719391  72.8600082  68.4831619  54.5168610
  57.7398376  63.2527084  66.6295776  57.1413078  63.7619133  67.1761093
  57.1707344  62.6583443  66.1406174  34.8154678   0.5203894  19.9040451
  34.1273117   1.1213818  19.6185932  34.7307816   0.4946398  20.8571434
  25.4494228  19.9271317  76.2309036  24.7873440  20.4737206  75.8076706
  26.2579193  20.1191730  75.7558365  84.9561386  51.4151764  29.8175125
  85.1193619  52.3361816  30.0208302  84.0086288  51.3617363  29.6926498
  63.7951164  14.8075562  34.7080956  63.4690056  13.9274893  34.8961563
  63.3638420  15.3660755  35.3548470  69.8985443  61.3491135  21.2810249
  70.3339767  60.5734558  20.9274921  69.4842834  61.7583771  20.5213413
  80.6730728   0.6346145  67.8607101  81.5152359   0.9243864  67.5099640
  80.1097794   1.4060698  67.7991867  37.2845154  59.5616112  82.5970993
  37.1870689  60.1608124  81.8570404  36.4661255  59.6494141  83.0857315
  29.6827068  20.4151554  71.9674835  29.4037037  19.4996567  71.9832916
  30.0571251  20.5364037  71.0949326  58.2644119  43.0133743  21.4762211
  58.8769913  43.6116257  21.9040928  57.6181946  42.8085327  22.1519966
  86.6949387  57.4650955  86.1468353  86.1104431  58.0164757  85.6266632
  87.5172119  57.9538612  86.1817017  34.2580986   5.4351377  71.8732529
  34.3060951   6.3910522  71.8607712  34.1329308   5.1896205  70.9565811
  83.6252213  18.7594585  21.2907219  83.7912598  19.6098499  21.6975346
  84.0490189  18.1286869  21.8727493  44.1926765  52.7767296  57.9513588
  43.5504189  53.4859543  57.9785423  44.5912323  52.8476410  57.0839767
  58.3960686  28.9671764  55.3597031  59.2277946  28.6150665  55.0427132
  57.7813606  28.2377510  55.2803040  15.1862860  60.0761490  11.0736904
  15.9727402  59.5331993  11.1277924  14.5197201  59.5802612  11.5491047
  27.4866295  16.6862450  84.4517822  28.3960705  16.6654472  84.1539307
  27.0005302  16.2230053  83.7696152  81.3671722  28.2731590  20.0120335
  82.3211517  28.3498039  20.0285511  81.1735229  27.8751392  19.1633205
  70.9284897  25.5766945  58.6045074  70.5228348  26.1338234  59.2687988
  70.4909897  24.7308788  58.7015991  71.3503876   5.1191230  49.7864113
  71.2309265   4.2327867  49.4452782  72.2409210   5.3570557  49.5284195
  81.4813995  31.2006054  12.9170160  81.7832031  32.0888329  13.1072683
  81.7002487  31.0656223  11.9949989  67.2703781  48.5540810  61.3409882
  67.1528015  47.6103973  61.2320290  67.8855133  48.6362381  62.0697479
  14.3516684  33.9511833  20.8932953  14.2699547  34.0209465  21.8444443
  14.5699692  33.0321655  20.7384205  82.6945343   9.3177633  79.1740723
  83.5465240   9.6344643  79.4741364  82.6928101   9.4905205  78.2325897
  39.2118645  34.2240829  13.9179029  38.3126183  34.3054962  13.6001644
  39.7192421  34.8066826  13.3527679  27.9467545  53.3434067  87.2389450
  27.0877323  53.4857483  86.8413925  28.5577850  53.3631897  86.5024109
  60.7240677  28.4594669  53.9107399  61.6284027  28.2247524  53.7026100
  60.4452934  29.0106010  53.1794624  46.3211479  53.8809433  32.9890594
  46.4675217  54.5902863  33.6148720  45.8670349  54.2975998  32.2566605
  10.1118326  11.2994928  17.7558231   9.8441553  12.0356531  18.3059578
  10.7069683  11.6849794  17.1128254  48.1313934   7.1422825  25.4854126
  49.0823860   7.2011242  25.5769615  47.7883492   7.5670552  26.2716198
  37.7176437  32.6533356  85.1607742  38.2606125  32.1589470  84.5467682
  36.9760017  32.9544525  84.6358643  29.9218540  45.5024719  35.6911774
  30.6330433  45.2975807  36.2981873  29.4446163  44.6783829  35.5944672
  75.6080399  22.3193150  74.4303894  76.4778290  21.9729614  74.2310410
  75.6086655  22.4359684  75.3804550  36.1187248  70.8300552  46.1350250
  36.0241547  71.5492859  46.7595177  35.7315140  71.1632462  45.3255310
  32.6366196  16.9873123   4.7584667  33.5708351  17.1063538   4.9296608
  32.2588120  16.7928867   5.6161914  39.5293007  18.0176640  69.5118103
  38.7010002  18.2519512  69.0931625  39.9313660  18.8574543  69.7339096
  57.7755089  50.0405388  22.8908062  58.0105515  49.4597664  23.6144714
  57.1479721  50.6551933  23.2711086  69.8090134  18.6301594  23.0785980
  69.1817169  19.1706142  22.5983505  69.4001465  17.7655296  23.1170139
  39.6687202  52.2631760  65.9385376  40.0604439  52.9522095  65.4018631
  39.8061256  52.5544205  66.8399429  58.4914474  37.2745857  58.7428131
  58.6275063  36.7666016  57.9430199  58.1914635  36.6325188  59.3862343
  60.8421555  20.8548088  72.0926056  60.2029648  20.5732517  71.4380875
  60.3365555  20.9372311  72.9011841  13.8269625  49.6304016  50.8058548
  13.5573759  50.5121117  51.0630417  13.1049595  49.3067627  50.2671547
  76.6295700  68.0059357  53.2266960  77.1780396  68.6405182  52.7654800
  75.8154831  67.9827194  52.7237434  16.5973225  49.8957176   9.9488897
  17.4599419  49.4857292  10.0123796  16.1461391  49.6296806  10.7500706
   1.0195843  47.1288452  17.8723907   1.1390589  47.8881226  18.4428806
   1.8369176  46.6373062  17.9535522  51.6677742  14.9257421  10.5445089
  51.2775841  15.7911911  10.6669035  51.7656822  14.8390808   9.5962811
  71.9803772   8.6845503  15.8187361  72.5357056   9.1106730  15.1658525
  71.2204132   9.2608719  15.8996296  35.4041100  52.1427727  30.6253510
  34.7328720  52.6531143  30.1723366  34.9667206  51.3232727  30.8563118
  35.0930214  38.1487694  56.9498901  35.9383316  38.2811317  57.3790359
  35.2628708  37.4786949  56.2877846  50.5694275  29.7293262  33.5308304
  49.6623802  30.0300713  33.5860519  50.5070229  28.7744560  33.5545197
  37.6813812  38.0763283  67.5016479  37.3184967  37.2723618  67.1299133
  37.2690811  38.1496010  68.3623886  52.6107025  28.5389690   2.1016059
  52.8524055  27.8162556   1.5223862  53.1492310  28.4104919   2.8824465
  30.9745293  10.2553921   1.7262806  31.0847321  10.9005146   2.4247818
  31.0581055   9.4094009   2.1662183  65.4338531  16.1034508  21.7116699
  65.1868057  16.7816010  22.3404083  66.3910141  16.1102753  21.7157593
  14.5725918  15.0110569  86.6317215  14.9698067  14.1796007  86.3726273
  13.9154739  14.7694588  87.2844543  56.1312561  45.3744354  88.8690720
  56.3603287  46.3035393  88.8918610  56.6102943  45.0280342  88.1162415
   7.2255907  37.9593735  11.8186789   7.9844971  37.5883446  12.2688246
   6.6742039  38.3025589  12.5218353  28.1141109  61.5728683  41.7108498
  27.2313480  61.2056847  41.6646271  27.9768791  62.5084801  41.8592911
  31.8347950   4.0660467  80.9998550  31.0373955   4.5055027  81.2952576
  32.5466881   4.6141953  81.3299713  74.0506287  46.4695129  66.7069016
  74.8479919  46.0061150  66.9632416  73.7837219  46.0519753  65.8879700
   1.2723795  25.2648430  69.1238174   0.9689418  25.4872494  70.0039902
   1.8704106  24.5291328  69.2554245  44.1885223  25.9441051  31.9434910
  44.5214233  26.7696667  32.2954216  44.5378075  25.9051037  31.0531483
  27.3065166  28.9435673  70.0172043  27.5599174  29.5288677  70.7309570
  26.4865437  28.5473728  70.3120041  69.7362137   8.2427874  33.2020416
  69.0885391   8.9051094  33.4430351  70.5144730   8.7453232  32.9611969
  29.9031029  59.0761032  76.5593262  29.6684303  58.7310829  75.6978607
  29.7762356  60.0216446  76.4813232  78.7854538   6.8421330  66.7084656
  79.1187744   6.8411183  65.8111801  79.0793228   6.0077434  67.0740814
  27.9001827  45.0660362  38.5184097  28.2533360  45.1906929  39.3993034
  28.0126667  45.9159851  38.0927773  58.7927895  58.1650200  83.7636948
  58.3316040  57.3295975  83.8386154  58.3596306  58.6134262  83.0373764
  13.2436600  42.6802597  16.6239204  13.4538517  43.5907936  16.8312359
  12.6091471  42.7375984  15.9095411   3.9832501  55.7641106  39.2303123
   3.0892079  55.4425240  39.3465157   4.2249322  55.4858971  38.3468971
  28.5533485  68.0042419  71.3895187  28.5981083  67.1544189  70.9513092
  28.2824955  68.6137695  70.7029724  59.4850693   4.0692549   6.7052388
  60.2588882   3.5087504   6.7624149  59.0614128   3.9804811   7.5589767
   6.1672873  42.9022484   1.7091057   5.4446454  43.1186943   2.2983177
   5.8319330  43.1023712   0.8351954  71.6515045  62.5797119  47.0635071
  70.6964111  62.5860214  47.0003014  71.9434662  62.1890450  46.2398758
  60.3972015   5.6775970  11.2012682  59.6965179   6.2800570  11.4508963
  61.0111275   5.7070293  11.9350662  80.6955795  28.7732487  56.9824600
  80.1228333  29.4194431  56.5693893  80.8507614  28.1199417  56.3002968
  85.0210342  31.3528271  53.2768974  85.2919159  31.6726589  52.4163361
  84.2097931  31.8253403  53.4635620  77.2495956  46.5732956  45.5542068
  77.7058258  47.2932701  45.1186333  76.3207779  46.7659569  45.4261398
  35.5371780  32.4868965  88.7606049  36.3697090  32.5023918  88.2885056
  35.4068108  31.5658131  88.9860916   3.7608535  26.6139469   1.4917009
   4.6386657  26.6513481   1.1118600   3.7192962  25.7563305   1.9147863
  36.7591095  69.3084183  20.4562588  36.3514404  68.4595261  20.6277981
  36.2797546  69.6567841  19.7045326  51.6542053  52.5587578  39.5248413
  51.6377602  52.9536972  40.3966141  52.1637001  53.1710777  38.9940758
  51.8834915  58.2404480  32.9708672  52.4921761  57.8218422  33.5795593
  51.1669464  57.6124878  32.8789062   7.6337080  57.5893784  78.8305283
   8.3468065  57.7280960  79.4538116   7.5749545  58.4131355  78.3465881
   4.3595629  44.0231323  46.2828903   4.1491151  44.8098679  46.7858734
   4.2501426  44.2866058  45.3691978  64.4588318  34.2567291  82.0420761
  63.6004982  34.0264091  81.6864853  64.2692261  34.6293564  82.9031372
  43.2424927  22.6295528   9.0988455  42.5392532  21.9801807   9.0980616
  43.9471283  22.2189121   9.5999393  79.8920670  50.2890778  30.5152016
  80.3869324  49.4825935  30.3705444  78.9762650  50.0294838  30.4144211
  25.9957523   9.1561155  24.6798782  25.6550350   9.6419573  25.4309444
  25.2996140   9.2084389  24.0249844   1.3688480  61.7083473  46.3455048
   1.3082020  61.9485741  47.2700844   2.1808081  61.2055054  46.2814522
  75.6782379  70.6520081  17.5075817  75.1254654  71.1271667  16.8871784
  75.1609039  69.8839493  17.7498169  77.8846588  26.9370861  71.2601318
  78.0110245  26.7500935  70.3299179  77.4517746  27.7906570  71.2762070
  25.7811012  42.1041794   5.9994516  25.0298309  42.6245689   6.2840972
  26.1413383  41.7411194   6.8085542  82.4333267  69.0281982  48.7940903
  82.0272293  69.8525391  49.0620232  81.8944397  68.3514481  49.2037659
  29.3903389   4.5618563   2.5150857  29.1878471   4.3639393   3.4294477
  28.8840752   5.3512030   2.3230939  73.7213745  40.8742981  84.5196228
  74.3393402  40.7231369  83.8044357  72.9493256  40.3609619  84.2815857
  62.6906776  40.4596405   3.4909723  63.0223770  40.8313141   2.6736197
  61.7805939  40.7528954   3.5354829  20.4813290  64.4409409  88.4098129
  19.5676327  64.5535126  88.6719589  20.9034786  65.2649384  88.6528168
  73.0770645  65.6569595  38.7521439  72.7716064  64.8214111  38.3988914
  73.0598831  66.2538986  38.0040779  76.5212555  13.7975082  49.3506966
  76.2725754  13.2429352  48.6112099  76.0034866  13.4652576  50.0840111
  14.0689459  10.3940392   5.0407953  13.5297995   9.6580534   4.7511787
  14.9644384  10.1351118   4.8233528  41.2093086  35.4492035  33.2390060
  40.9188118  36.1481438  32.6530685  41.3331642  34.6924248  32.6661377
  75.5066452  45.3804932  51.6847916  75.1212158  45.2195778  50.8235245
  76.4504395  45.3094025  51.5418968  47.7944908  66.7261200  31.6711063
  47.5009689  66.4127350  30.8156128  47.0155067  66.6752014  32.2250175
  36.5750771  39.0397377   6.2916908  37.3258781  39.5470734   6.6001430
  36.7496605  38.8948631   5.3617640  79.1244049  15.7048922  81.6151428
  78.9602509  15.3083429  82.4707336  78.9754410  16.6404419  81.7522202
  53.3468666  61.3240356  55.6484146  53.6991386  60.5580940  55.1951294
  53.8934746  62.0511169  55.3504066  16.1990585  54.8139801  64.2537079
  16.3543587  55.7458992  64.0999451  15.2723913  54.6886597  64.0492249
  80.8357925  60.5135384  42.7591705  79.9569397  60.8731422  42.6386261
  80.8983002  59.8116150  42.1113815  43.9422264  10.2452812  75.3151169
  43.4423523  10.6951990  75.9962463  43.7651215  10.7452393  74.5183105
   1.8839892   6.4078369  61.3182564   2.7284603   6.3761444  61.7678070
   1.2426430   6.2027111  61.9985695   4.8779249  20.2369003  15.5002022
   4.2063527  19.6704903  15.1201992   4.6142311  20.3409386  16.4144630
  57.0150414  13.1447754  78.1490250  56.8293495  13.6822901  77.3790741
  57.7487717  13.5855246  78.5775223  85.6284485  38.8683243  37.2940979
  85.3040085  39.0357819  38.1789360  85.1834030  38.0651321  37.0238266
  18.9373817  46.7734337  31.1816540  18.0149879  46.5692329  31.3356876
  19.0637627  47.6312103  31.5872154  37.1350555  54.7738152   0.9592942
  37.8744583  54.8976860   0.3641718  36.4441719  55.3319130   0.6023099
   5.0106707  21.3646049  68.7406235   5.8083663  21.4064159  68.2132111
   4.5827861  20.5543098  68.4639206  47.7003021  50.6443977   8.0877161
  48.6061897  50.5585518   7.7906837  47.7722588  50.9706841   8.9847069
  70.1815033   3.6634440   0.5487197  69.8484116   4.2819638   1.1988841
  70.2043839   4.1630273  -0.2674451  24.5184269  24.9402752  75.3134308
  25.2715092  25.2515621  74.8112335  24.2298183  25.7051792  75.8112869
  15.1939545  46.5842285  39.3607483  14.5435371  47.2036209  39.6917152
  15.0013266  45.7665977  39.8196678  26.5580139  28.6892090  73.2364197
  26.5126934  28.6507988  74.1917725  27.4316349  29.0340557  73.0517502
  26.0482769   1.9103489   5.1782827  25.6327248   2.7481267   5.3824315
  25.9573326   1.3961078   5.9804778  75.4427795   6.3883514   0.2562073
  75.7185287   5.8848958  -0.5097753  75.2498856   5.7269936   0.9207585
  31.4080715  55.5006447  55.5550766  31.4918652  54.9717751  54.7616653
  32.0638695  55.1414757  56.1527061  44.8438530  59.5043411  88.5210114
  45.7069130  59.1170082  88.6670685  44.2369270  58.7666245  88.5813293
  10.2865229  38.3881493  58.6609688  10.1302528  37.5506058  59.0972443
  10.3606482  39.0204048  59.3758049  73.2536316  18.8159618   6.5730939
  72.4325256  18.6908379   6.0973330  73.0825119  18.4583969   7.4443555
  73.5226746  45.3788719  46.9539528  73.9158401  46.0211449  46.3630753
  72.6633377  45.1977081  46.5732269  24.3998985  47.9013481  50.2299232
  25.2206135  47.5365448  49.8988991  23.7906246  47.1631050  50.2254906
  62.6752281  10.2439480  63.0994530  61.7392731  10.0839911  62.9784889
  62.8823662   9.8311558  63.9378624  72.9377747  42.6436882  66.1821518
  72.9054718  41.7380180  66.4902878  73.3991318  43.1161308  66.8751068
  59.8323021  22.3490772  22.1686420  60.2665482  21.5127144  22.3364487
  60.3181000  22.7284966  21.4363346  58.1404762   0.8967544  18.9953842
  58.0031548   0.5067973  18.1320705  58.4684372   1.7769517  18.8111916
  35.3073006  70.4901199  22.3787289  34.9696846  69.6634216  22.7234306
  35.8788071  70.2324371  21.6553936  81.7267227  65.5750351   1.7368604
  81.8510437  64.6559296   1.9735672  81.1610489  65.5492020   0.9651235
  66.5172119  49.6743279   1.3569132  66.4109116  48.7813988   1.0288774
  66.5700226  50.2144585   0.5684311  22.5165977  55.0852509   7.9501677
  22.6090050  55.9972916   8.2256203  21.9642048  55.1256294   7.1694865
  85.4165268   8.4995718  48.8264580  84.7861786   8.9402676  48.2566490
  85.9487534   7.9713569  48.2315140  45.1649551  46.2112617  59.7831612
  45.4737778  47.0153732  60.2006111  45.8275833  45.5568581  60.0043106
  76.1945114  30.0903625  43.1850510  75.6395874  29.8193378  43.9163742
  77.0391388  29.6746883  43.3584137  85.1593246  14.5755625  40.0384178
  85.1833344  15.3708239  39.5062370  85.7649384  13.9766827  39.6016006
  35.9530716  43.7826767  56.1000595  35.7116280  42.9822617  56.5661850
  36.2144012  43.4831772  55.2292900   0.4424819  61.1994057   2.2399952
   0.3385555  60.8301544   1.3630207  -0.0288056  62.0318794   2.2067530
   3.4658413  56.9712334  47.8825645   3.5901926  57.4381790  48.7088394
   4.1918950  57.2627258  47.3311043   6.5507183   1.8232251  51.8183937
   7.0850368   2.4884431  51.3845520   6.7215142   1.9500546  52.7516556
  39.8466721  62.1989937  45.5757332  40.7438469  62.5179443  45.6736031
  39.8901749  61.5819855  44.8452263  39.5015678  31.6007538   7.9663486
  38.9620781  31.3994675   7.2017126  40.3523293  31.2089386   7.7690668
  48.2993126  71.0254593  49.0648155  48.8307266  71.8214798  49.0782394
  48.3563843  70.7145844  48.1613045  67.7046280  11.5591745  26.0925064
  66.8191376  11.8476181  26.3137054  67.7075882  10.6224461  26.2893906
  20.0123005  32.4873085   0.3800041  19.8176212  31.5743237   0.5916377
  20.7055435  32.7326355   0.9927523  39.2580986  41.6202087   0.7985089
  39.6471863  40.7596207   0.9541776  39.5024948  41.8342361  -0.1018765
  28.7290173  63.0225677  79.1791992  29.2858143  63.5498466  78.6063232
  29.1793232  63.0299301  80.0238342  75.9175491  29.0059910  64.2506180
  75.4737930  29.2714634  63.4451141  75.7624969  29.7286777  64.8588257
  53.9312553   1.9843097  60.0594940  53.7149391   1.2235637  60.5986633
  54.8820763   2.0670354  60.1324768  35.9758568  15.0806065  77.9601440
  36.3875580  14.8436680  78.7911682  36.5160561  14.6539850  77.2950058
   2.1282620  18.4636745  74.6848755   2.9919946  18.8741970  74.6440125
   2.2713656  17.6526909  75.1727829  63.9435768  55.0085220   9.8202600
  64.5549850  54.7304077  10.5022173  63.9938316  54.3192902   9.1579418
   1.9946034  22.5120277  56.3593063   1.5480103  22.6627941  55.5262070
   1.5381966  21.7635937  56.7437172   2.0471961  31.0539627  57.5258560
   2.6384728  30.3238201  57.3427849   1.2167614  30.7957344  57.1259460
   7.2940555  34.8114891  16.1542511   7.9143705  34.4088326  16.7619591
   6.9256096  34.0755692  15.6654778  81.0540085  67.5197601  50.7085075
  81.1047134  66.5639114  50.7115860  81.7010956  67.7960281  51.3574982
  15.0311108  53.1131172   6.6717000  14.7931404  53.6368599   7.4367461
  15.1199255  53.7506218   5.9632282  10.1920567   9.3246565  19.4816380
  10.3222389   9.9027100  20.2333946  10.1003218   9.9181080  18.7362309
  41.2141800  56.5846405  19.9463940  40.9899521  57.3502617  20.4753361
  41.7611656  56.9321060  19.2419033   3.2816930  48.5041351  14.6396074
   3.0157712  47.6074257  14.8431587   4.0636549  48.6488419  15.1723614
  83.3798218   6.7877178  20.2097569  82.7318726   6.7495522  20.9132786
  83.5226593   7.7232480  20.0661888  58.3359642  24.8661270  63.1725769
  58.7208481  24.0384102  63.4606438  59.0764503  25.3698120  62.8346176
  77.9845886  14.5501013  83.8655167  77.8053055  13.6296005  84.0572662
  77.1193314  14.9460459  83.7616425  74.3913269  65.6065140  76.5833130
  75.2565536  65.1979828  76.6100922  73.9877014  65.2606812  75.7872467
  84.8250885  29.2317352  38.4590034  85.7602386  29.3162079  38.2730293
  84.6342926  29.9522095  39.0596237  72.1384659  35.7960243  30.7062969
  73.0865402  35.6997643  30.7964249  71.8135757  34.8995399  30.6226807
  41.0118752   5.0047188  74.4021454  40.1336327   4.7787757  74.7085266
  41.2593002   5.7671285  74.9253540   6.5894294  33.0575027  83.8183594
   6.9430604  32.2848167  83.3777542   6.4226017  33.6809502  83.1114578
  72.1187592  21.9613285  70.8650436  72.5241241  22.0954266  71.7217331
  72.6268768  22.5133076  70.2705994  82.6682892  43.7892685  61.2926445
  83.5156479  44.0788994  60.9545021  82.6683350  44.0670204  62.2086601
  34.5722847  37.0653229  12.7617455  34.9890442  37.8613472  13.0917377
  33.6344643  37.2234154  12.8700542  48.8711929  39.0065002  29.6293259
  49.2722702  38.2983971  30.1332684  48.8911667  39.7607613  30.2183266
  59.6780128  31.4108028  55.7813110  59.2181129  30.5769100  55.6846313
  60.5681229  31.1655483  56.0338631  59.7149277  32.6888466  30.9673424
  60.6617203  32.8292961  30.9767876  59.4099998  33.1640739  30.1944180
  48.1864967  65.7901306  21.9987926  49.0702362  65.9059067  22.3478432
  48.3206444  65.4342880  21.1203785  77.0302658   9.3806744  81.5075455
  77.1931381  10.2894058  81.2547379  76.7645035   9.4314547  82.4257050
  42.0522842  37.4734001  58.2249870  41.1539497  37.7929688  58.3092461
  42.3816681  37.8916702  57.4295044  83.8885956  18.1253204  72.9849625
  84.2819214  18.8239937  72.4621048  83.3924866  18.5839214  73.6630402
  47.9003258  12.7094564  67.9611053  48.7192345  13.2033062  67.9195404
  47.2593765  13.3362856  68.2965240  63.4213905  28.6480961  78.6319427
  63.6135826  27.9127693  78.0500565  62.7069664  29.1155949  78.1991882
  57.7242317  19.8673706  56.8656387  57.0950165  19.5980835  56.1964531
  57.2959480  20.5937271  57.3186417  72.0683975  43.7428131  27.0597706
  72.6340103  44.4190979  26.6870079  71.2022629  44.1486130  27.0967846
  58.6285591  63.3135796  53.6795120  59.0799751  62.5933609  54.1196709
  58.2298431  62.9106255  52.9082260  63.8922882  58.4382401  39.7524948
  63.7616081  57.6873779  39.1733971  63.2313423  59.0725899  39.4750328
  59.1329613  41.4310493  14.1088419  58.3465118  41.9531250  13.9502029
  58.8028030  40.5545082  14.3060827  73.4803543  66.7376022   1.7754230
  73.0102768  66.7902222   0.9432648  74.2463989  66.1965256   1.5839759
   7.9280949  49.3041649   3.5272145   8.7365580  49.2466354   3.0179901
   7.2656007  48.8928490   2.9721010  74.0095444  69.1121292  42.0536728
  73.0848007  68.8652802  42.0414009  74.0928650  69.7633820  41.3571396
  36.3292046   4.4299250  15.9600887  36.6598549   4.2611833  16.8423748
  37.0932961   4.3233027  15.3934937  56.9039688  68.1413422  44.0744591
  56.7374382  67.8561172  43.1760445  56.3510666  67.5743790  44.6121254
  83.2303925  16.3892498  42.0252151  84.0068741  16.9461956  42.0810394
  83.5303574  15.5297470  42.3210297  73.5932770   5.3885550  60.3376694
  74.2546158   4.8214159  59.9411774  73.0158005   5.6265068  59.6123199
  53.2507591   0.4335124  66.9255829  52.6627998  -0.2769125  66.6690063
  53.0152931   0.6230881  67.8337936  86.3172913  19.1613770  52.2131653
  86.6637955  19.8844872  51.6904068  86.8273926  18.4000549  51.9367409
  56.3927727  27.5913448   9.5918818  55.4620934  27.8146687   9.5779867
  56.4292870  26.6959877   9.2553787  70.0117950  61.3654823  23.9995537
  69.6753387  62.1582985  24.4172535  69.8069458  61.4783936  23.0713730
   1.9981066  46.8829651  25.7020454   1.2998074  47.5367584  25.7362118
   1.5498196  46.0468521  25.8292484  75.6834869  18.1273975   3.1104434
  75.8638077  18.2388954   2.1770163  75.5965347  17.1812134   3.2262354
  68.9681931  35.2586632  37.3841400  68.5668793  35.7365303  36.6583099
  68.5883331  35.6526833  38.1694336  24.3608017  51.4190979  57.0385056
  24.6209469  51.2971115  56.1254501  24.4051037  50.5420609  57.4193954
  30.4231434  33.8257065  69.2873993  30.7974129  34.0022163  70.1505356
  30.1559124  34.6852760  68.9618835  82.6734314   0.9988415  48.7247505
  82.9751511   0.9413694  47.8181686  81.7583160   0.7201872  48.6907387
  47.6885605  49.9590530  37.4235611  47.9110260  50.8674240  37.2195930
  47.5255089  49.5551987  36.5711823  81.3635941  63.4070892  15.1950932
  80.6676102  63.6443825  15.8078928  81.4996033  64.1957932  14.6700401
  15.6928177  41.5099106  24.0706654  16.6076775  41.3637199  23.8300552
  15.4467354  42.3079720  23.6029358  50.8872223  54.2876663  64.0442047
  50.8735771  54.9660568  64.7193604  51.8165321  54.1008148  63.9111671
  15.1214838  66.5413666  13.7850084  14.8166523  66.5818634  12.8785486
  15.1551056  67.4553299  14.0674524  26.0053959  25.5543251  72.7818832
  26.1348915  26.2035179  72.0904999  26.6424580  25.7917118  73.4557037
  53.7030869   2.8344612   2.1443717  52.8129044   2.7860720   2.4928939
  54.1318970   3.5058429   2.6750312  48.4847870  68.1208725  78.3600540
  47.6477280  67.6875458  78.1933289  48.3019333  68.7269135  79.0780411
  46.5069084  42.2720413   1.4268154  47.2490005  41.9612274   1.9453993
  46.7792244  43.1338348   1.1115569  60.0104218  48.1719704   0.9181013
  60.0484619  47.2283401   0.7620736  60.3478203  48.2815285   1.8071415
  17.0347385  67.9279938  16.2088070  17.4408188  68.6540985  15.7354116
  16.2092514  67.7743073  15.7492609   5.3936105  60.2977295  11.3396454
   5.0160913  60.9267769  10.7248211   5.8382187  60.8382874  11.9925995
  63.7956963  18.3714714  70.5934906  63.3729820  18.8019505  69.8503723
  63.9008636  19.0655212  71.2442322  36.7950935  40.5253716  18.9009933
  37.7346001  40.6132393  18.7402554  36.3944359  40.6192017  18.0367603
  67.3987579  19.3457985   8.1453199  68.1371536  19.1654110   8.7270927
  67.7177734  20.0319443   7.5590920   7.7535567  37.8322639  41.7559052
   7.0613556  37.4466553  42.2929306   7.5374560  37.5689316  40.8613701
  50.6331673  64.6006775  13.1555500  50.4204636  64.1922760  13.9947138
  51.5431747  64.8821106  13.2499752  39.8394470  54.5644379  33.7765999
  38.9901390  54.9530067  33.9861679  40.4441528  55.3062057  33.7579498
   2.7634048  57.4222984  17.1855278   2.6030474  56.5075264  17.4172840
   2.0306525  57.6571236  16.6161728   3.9977405   8.7010021   9.9155493
   4.8761554   8.8121262  10.2792387   3.4114547   8.8354244  10.6601505
  69.7913666  33.1817551  40.4474907  69.7108307  33.7058372  41.2444115
  70.4289474  33.6550674  39.9129791  35.4900246  14.7217236   2.5199010
  36.1810951  14.6717224   1.8594819  35.9538231  14.6748285   3.3559184
  15.8176651  47.7860031   5.2798691  16.6953144  47.4248734   5.4045691
  15.6834116  48.3560219   6.0370259  69.8686905  50.1230278   0.2382033
  70.0602112  50.6462669   1.0165144  69.0126266  50.4348450  -0.0553293
  76.9227448  71.0538635  65.0650558  76.8525467  71.8791580  65.5448456
  77.7899170  70.7179871  65.2918549  76.0738525   5.0489955  83.7373352
  76.8364105   4.6699238  84.1744156  76.3123245   5.9643283  83.5906067
  85.2650146  25.3791618  19.9811344  84.6392670  25.0229282  19.3504467
  85.3445206  24.6990070  20.6499386   8.7758055  15.1884298   4.5407958
   8.4932127  14.9214230   3.6661072   9.2517433  16.0067825   4.3993268
  36.9673157  35.0374756  29.7172050  37.7588158  34.5193176  29.5713520
  36.3784065  34.7800140  29.0078907  23.6913776  59.9380188  27.0280151
  22.9259052  59.5997238  27.4926033  23.4306545  59.9408264  26.1070118
  46.6836777  16.9759293   0.8388758  47.1871719  17.4881821   0.2061673
  47.2893562  16.8308315   1.5657377  51.3286781  47.3186378  59.7000771
  51.6651726  47.5298691  60.5709305  50.8648453  46.4895477  59.8171463
  80.9113464  47.5970345  35.0210381  80.3901215  48.3883553  34.8855019
  80.7943039  47.0923653  34.2161522  26.2827377  59.4878845  81.5728531
  25.8526478  59.4646263  80.7180328  27.1035576  59.9544525  81.4153748
  82.5814133  31.8198090  55.9483757  83.1275406  31.0342045  55.9767418
  81.9546738  31.6505470  55.2449722  62.8361435  71.4095764  83.1957397
  63.5186386  71.6760483  83.8117142  62.7741089  70.4604187  83.3028870
  64.4767990  30.7544250  39.2662086  64.3935928  31.6188774  38.8636780
  65.3663177  30.4743652  39.0504417  32.7683144  66.4032516  81.0761642
  32.8196754  65.4889832  80.7974167  33.4052505  66.8578568  80.5249100
  13.6316032  46.2452774  72.4859543  13.9795332  46.6333809  71.6831131
  12.6888084  46.4041252  72.4397202  45.7555618  49.2619972  67.5929642
  45.0364876  49.8683662  67.7703857  46.3999176  49.7869606  67.1181488
  73.4191742  56.4755440  74.5748215  72.9147339  55.8198128  75.0562668
  74.2230759  56.5803947  75.0837173  37.6573639  15.1815634  74.3345566
  38.4334145  15.7362642  74.4138336  36.9206696  15.7862701  74.4231110
  84.5183029   9.0145216  87.7578125  85.0359116   9.7813606  88.0033188
  83.8166199   8.9810200  88.4080048   2.8772540  29.1779842  45.5984917
   3.2494783  28.3988304  45.1854553   3.4541736  29.8918457  45.3268356
   4.6578507  32.7158928  42.4270515   4.7774439  32.3603783  43.3076973
   3.7091103  32.7286797  42.3007202  59.6694717   8.1899443   7.6466198
  60.6135597   8.2200851   7.8016224  59.2805748   8.3086071   8.5131693
  85.2333679  65.7753448  18.0974674  85.3385239  65.4192276  18.9797115
  84.4323196  65.3675232  17.7684689  30.3136749  43.8885307  40.2700500
  30.9737778  43.3763275  40.7371101  29.5121651  43.3704948  40.3438721
   9.0724220  59.3388977  24.0596695   9.8893013  59.3451614  23.5607700
   9.1052322  58.5251999  24.5627117  51.8827209   1.1783333  58.0313110
  52.4595757   1.3907115  58.7650490  52.4745674   1.0554364  57.2891235
   0.7038306  35.2375412  65.3744736   0.6791168  34.4658585  64.8086777
   0.2173092  35.9049568  64.8906479  78.7119675  37.4933662  60.1602249
  78.5337372  37.8441620  61.0328102  78.9046707  38.2644730  59.6268463
  71.2514496  66.8905334  50.1559753  70.4887390  66.4417191  50.5207596
  71.7144852  66.2134781  49.6625900  83.0285492  67.3812180  81.4407883
  83.4262543  68.2510529  81.4028091  82.8834839  67.2247086  82.3738937
   1.5713999  32.4676361  49.2723999   1.8428755  33.3242874  48.9427261
   0.7302426  32.3026428  48.8464165  26.3030643  67.1631699  65.8038177
  26.5141029  66.6830444  65.0030899  26.7289772  68.0131607  65.6927261
  79.5128403  11.7521458  13.7772589  79.8684311  11.8479910  14.6607723
  79.0603027  12.5789127  13.6102180  62.2993011  10.7248497  38.1163673
  61.9240532  10.6060114  38.9888916  61.6009979  10.4607506  37.5173187
  22.3314075  59.9550247  81.2754593  21.8066177  59.5580101  81.9705963
  22.8989468  60.5777168  81.7297592  81.4249268   7.3058758  31.9178829
  81.8177261   7.7229414  31.1510754  82.1708755   7.0572677  32.4637642
  72.9734802  11.5183201  17.3054867  72.0410919  11.3179493  17.2233562
  72.9993362  12.4459066  17.5403175   1.2982287  12.0872507  68.7713242
   0.5227097  12.5988417  68.5409393   1.9663417  12.3708935  68.1473007
   8.1812677  32.9260368  60.7075996   7.6919379  33.2389488  59.9467621
   8.3069916  31.9913960  60.5436707  51.8836250  30.1521931  71.9954071
  51.5069733  29.4358807  72.5065460  51.2267990  30.8472385  72.0369110
  16.9031544   4.3436074   5.1724958  17.6243629   4.9405193   5.3719540
  16.1201210   4.8928075   5.2108321  61.0163879  71.0837326  73.7785339
  60.0781860  70.9319992  73.6645889  61.0703354  71.9352646  74.2123871
  80.6780701  19.6766434  31.1039066  80.2442703  20.4981213  30.8732014
  81.4369736  19.9439316  31.6224098  24.4363785  54.4333916  14.4222841
  24.8094692  54.8057442  13.6232910  24.2891884  53.5115051  14.2108669
  48.9939651  68.2300491  53.2271194  49.5545921  68.2477036  52.4514809
  49.4738693  68.7381668  53.8811378  27.0428219  49.9691849  57.3699760
  26.8731308  49.0288239  57.3138046  26.5971355  50.3389397  56.6078262
  33.7846146  60.8803444  79.4165497  34.0503197  60.0007019  79.6846161
  33.9343452  61.4222794  80.1912231  27.8841553  56.2391090  73.2359772
  28.7219276  55.8105240  73.0608063  27.2918568  55.8880196  72.5710373
  79.8897247  25.3876686  85.6000061  79.9574280  26.3346138  85.7222519
  78.9881363  25.1785011  85.8441772  65.6463394  49.0379791   3.8608551
  65.9542160  49.2277260   2.9746051  65.1413040  49.8120537   4.1098261
  58.0235176  45.4322701  13.0237370  57.7310753  45.9287338  12.2593851
  57.4436188  45.7165871  13.7302170  71.8537979   3.6817465  61.9422264
  70.9381409   3.8707478  61.7370644  72.3527985   4.2094564  61.3187332
  24.6585941  47.9251175  77.9337387  24.6611462  47.1985130  77.3106308
  24.1651344  47.5950089  78.6845779  45.5658455   4.1292996  42.8624001
  45.1888313   3.4940195  43.4710999  45.7939262   3.6136689  42.0888786
  48.2805862  41.2872849   9.7656240  48.8618622  41.7938347   9.1983843
  48.4085388  40.3795166   9.4902706  15.6407690  22.7233829  68.0422592
  15.4133091  21.8408604  68.3349152  15.2235842  22.8063278  67.1847610
   7.4974236  34.9364090  67.4012527   6.8706074  34.3427505  66.9878464
   8.1118784  34.3586349  67.8538589  30.9673386  66.9349823  37.5478821
  31.2139606  66.2941818  36.8809624  31.7447147  67.0169754  38.1003265
  21.9527931  57.7991905  83.9869232  21.4274521  58.5414619  84.2857208
  22.8584900  58.0731468  84.1314621  31.7687874  57.9181252   8.5388575
  31.7401962  58.2615852   9.4318590  32.2314415  58.5902557   8.0384312
  54.9628258  17.5724754  81.6035919  55.4840126  17.7668190  82.3825836
  54.4368591  16.8119392  81.8509293  34.0140228  12.5526590   0.6394714
  34.5395432  13.3236418   0.8531221  33.2601509  12.9010496   0.1635169
  16.8972301  13.8281155  83.7710724  16.2747650  13.2335587  84.1897278
  16.6123219  13.8691845  82.8581772  86.3156128  46.9406586  33.8516312
  86.7697830  46.6705475  34.6497498  86.9772339  47.4154205  33.3485527
  70.7623749  59.7465286  83.2483902  69.9119415  60.0584793  83.5577240
  70.5936966  58.8554802  82.9421005  14.6301975  52.3181267   1.3812457
  15.3933449  52.6156006   0.8859196  14.3360424  51.5330238   0.9193866
  48.9675636  25.3349380  24.1421070  49.4260368  25.1825294  24.9684277
  49.2742119  26.1943798  23.8530388   2.7753441   5.0889459   0.5191841
   3.2824895   4.8835139  -0.2662031   2.7199359   4.2587810   0.9924579
  51.4932938  57.6658363   6.2687197  50.5858803  57.9456558   6.1481624
  51.6216660  56.9803391   5.6130934  57.2844620  69.4525604  85.3167191
  57.3427048  70.2767868  84.8335114  57.0242996  68.8073502  84.6592560
  78.1767197  21.1320457  74.1360321  78.6419144  21.9133530  73.8370590
  78.7256851  20.7798386  74.8366165  78.2485199  52.0034523  84.8127747
  79.0820694  52.4662628  84.7277451  78.3395844  51.4917526  85.6165771
  55.0627022  41.9283676  79.1994247  55.2540359  41.2022667  79.7930527
  55.8949890  42.1048126  78.7607880  74.7681808   3.3060105  26.8637371
  74.4218903   4.1790166  27.0485897  74.5854874   2.8029001  27.6572952
  78.9718857  30.1266193  84.8231049  79.7305832  30.6519127  84.5688019
  79.2820587  29.5981884  85.5584869  26.7498932  56.0766106  89.2797470
  25.9984741  55.6127892  89.6491623  27.0802670  55.4922218  88.5974197
  47.7147903  45.4328041  64.8716507  47.7260971  44.7766724  64.1748047
  48.0905571  46.2158966  64.4694061  17.7320728  49.8769188  80.6219025
  16.9573574  50.4108047  80.7980194  17.5722046  49.0597649  81.0940628
  18.1763783  12.1891489  12.4112263  18.8267899  12.4146061  11.7461214
  17.4837971  12.8403444  12.2993860   4.9717364  45.3644524  67.3459473
   4.9401340  44.4099884  67.2808914   5.8495402  45.5529633  67.6778488
  65.6397095  47.2630501  89.5024338  65.4251328  47.3989601  88.5795441
  66.1172943  46.4336472  89.5176620  25.5660439  62.4668770  53.7363281
  25.3725719  61.6000633  53.3793488  24.8633938  63.0252419  53.4035530
  11.9676313   3.8614473  21.1120224  11.8095865   4.7982073  20.9948254
  11.1988134   3.5464666  21.5873508  40.5852394  60.8421593  14.7268429
  40.9477844  61.4834824  14.1156950  39.7243996  60.6283989  14.3669930
  35.0803871  51.9410934  59.3827553  34.6032524  52.7696953  59.4273872
  35.6570473  52.0372887  58.6248360  53.6994858  35.2787323  35.8599091
  53.0292320  34.6048813  35.7462654  54.0684128  35.1059189  36.7260857
  57.6014748  36.5203705  41.6330185  57.9423294  37.2587166  42.1378860
  57.3216705  36.9065399  40.8030701  32.4979401  58.3368073  74.2807083
  33.2964249  58.1773300  73.7774963  32.8056717  58.5046883  75.1714096
  54.6549492  11.6178694  53.2763062  55.4584923  11.1833382  52.9904099
  54.7849083  11.7699137  54.2123756  59.1493759  17.6326466  30.1564484
  58.9582672  18.5564556  29.9943218  58.5355186  17.1589832  29.5951519
  61.5655060  13.1355724  60.5338326  61.7690697  13.3813515  61.4362679
  62.0648804  12.3324766  60.3858681   4.4788861  13.3778181  51.2894630
   3.7219138  13.7733049  50.8572426   4.3729844  12.4375296  51.1449814
  34.8734665  52.8395691  22.3494225  33.9909630  53.1179008  22.5942631
  35.4366798  53.5654793  22.6178913  58.2567940   0.0870913   3.3160143
  57.6202927  -0.1396445   2.6380098  58.7169762   0.8503587   2.9668922
  66.8902512  29.2062683  77.9019775  66.6412430  28.3490601  77.5564041
  67.8216324  29.2861595  77.6960983  78.5615540  21.4186058  59.9326248
  78.8379135  20.9204998  59.1633720  78.7141495  22.3328114  59.6935081
  30.4422436  45.2030907  78.4410706  30.0045834  44.4822731  77.9881821
  29.8446484  45.9445839  78.3446274  27.5351715  40.9117050  20.8608437
  27.8140583  41.5639191  21.5035477  27.7387409  41.3079910  20.0136452
  36.7022095  26.6079903  72.9143982  37.2727356  26.1504459  73.5319595
  35.8505363  26.1828213  73.0149612  63.5872002  20.7848339  22.7076244
  64.3214951  21.3134880  22.3952560  63.4853172  21.0352440  23.6258545
  53.3499870  61.4347763   8.9889765  52.4496422  61.5547028   9.2910223
  53.8788986  61.4892387   9.7849140  61.2605247   5.9471865  24.4574318
  61.2644005   5.6864429  23.5364380  61.0599518   6.8829842  24.4405823
   0.6421110  56.6390266  31.2910786   1.0303463  55.8266602  31.6159916
   1.2566191  57.3221779  31.5592518  17.4121227  27.2905369  10.2821064
  17.5585232  27.2141666  11.2249565  16.9054317  26.5109978  10.0544834
  85.1717834   9.4988241  33.6517982  85.2484131  10.0811090  34.4076462
  85.0464401  10.0876217  32.9075966  37.5917168  25.7547932  78.7600937
  37.7095337  24.8056297  78.7221603  38.3887520  26.1109581  78.3675308
  42.2061615  24.3592472  46.9898186  42.7633934  23.8245888  46.4242554
  42.3359528  23.9964485  47.8660431  20.8718243  42.6522560  58.2963829
  21.4623528  43.2956085  58.6883087  21.1743126  41.8105431  58.6373444
   9.5752687  53.2333565  34.5749855   9.0599527  53.5452919  35.3188782
   8.9419975  53.1532669  33.8616943  35.5234299  13.0984116  70.6637726
  34.6872292  13.5394955  70.8135910  36.1670609  13.6462145  71.1130905
  15.8414078  44.2567711  76.2903976  15.9184952  45.0831833  75.8136063
  16.7197609  43.8778534  76.2564774   9.9243631  53.6482124   9.9842892
   9.9542398  52.9115219   9.3738585   9.7051535  53.2518082  10.8275242
  22.8567581  66.4552689  15.4871378  22.8260365  67.1130142  16.1818771
  22.0513172  66.5950623  14.9891844  26.0698547  67.5896988  48.0445747
  26.1202831  68.2882614  47.3921165  26.9731770  67.4701080  48.3377304
  59.1162834  56.5488853  21.6061478  58.6689835  57.2942276  22.0069218
  59.3514023  55.9858322  22.3436565   4.1554070   0.7294081  78.2722244
   5.0374060   0.4968846  77.9819794   3.6866453   0.9439955  77.4657211
  84.5268097  53.2678070  78.1159134  84.0141220  54.0155525  78.4229431
  83.9387283  52.5186615  78.2116928  16.9534454  17.1743050  54.5189056
  16.0871429  17.4948349  54.2678833  16.8577499  16.9189835  55.4364471
  81.2577286  57.9548569  22.3202057  81.7374420  57.3266563  22.8600864
  80.4352493  58.0949516  22.7893887  85.2965622   9.7283020  58.4280548
  85.2901611  10.1594763  57.5734940  85.5228424   8.8183765  58.2355309
  61.0693207  66.4483185  58.5625114  60.7482605  65.8526306  59.2394905
  60.4457092  66.3513947  57.8428268  49.0684090  32.1929131  40.5178146
  48.3599243  31.8190289  39.9938965  49.3199883  32.9879417  40.0478401
  26.6597538  51.9021530  83.8654556  26.0830860  52.6131783  84.1449738
  27.3963528  52.3434219  83.4424438  74.7118225  35.5092354  30.5182858
  75.3249588  36.2442284  30.5275421  74.5852661  35.3145866  29.5896702
  48.1448097   9.7836733  21.1010857  47.9235992  10.4756298  20.4777927
  49.0518723   9.9644289  21.3476524  81.4459457  65.0555115  24.5757160
  81.8130569  65.8824158  24.2631588  82.1936417  64.4587784  24.6087017
  35.0658035  64.8564682   9.9234629  35.4868622  64.7518387  10.7766886
  35.4494362  65.6561508   9.5635109  20.3135147  54.3984070  49.7747688
  21.1870060  54.7857323  49.7179985  20.0617504  54.5086708  50.6916618
  24.7489681  37.7768097  69.4335480  24.1570244  38.3963356  69.8601913
  24.2331734  37.4075775  68.7167130   1.0802449  40.1757812  13.6154795
   0.4313694  40.6872063  14.0988426   0.7639542  40.1800575  12.7120562
  63.8965836  41.3697472   0.9550444  64.3936768  42.1328659   1.2496185
  63.1379700  41.7382355   0.5023237  19.8252583  68.8544235  68.6942215
  20.4368382  69.4888229  69.0680313  19.3898010  68.4657974  69.4528961
  16.1904793  16.0667267   9.8851271  15.2429333  16.1896954   9.8279724
  16.2968178  15.2423897  10.3598814  45.8207932  50.6749382  51.2897720
  45.7789879  49.9263382  50.6947212  45.1522827  51.2775459  50.9639168
  48.9743614   1.4868062  35.7812386  48.1301994   1.7218655  36.1664200
  48.8291512   1.5380656  34.8365097  20.8116436  31.1583214   7.1719937
  21.5808105  31.6817532   6.9469771  20.3690224  31.6638203   7.8537469
  66.2824478  17.3109398  81.2263718  66.6374664  18.1989269  81.1854630
  65.6756973  17.2613106  80.4877014  57.0959854   5.5277157  38.6606255
  57.6293144   5.0534167  39.2984619  57.0798149   4.9583616  37.8913383
   9.6570797  41.1888237  31.8487949   9.3205853  40.5693779  31.2012691
   8.9582672  41.8354874  31.9473782  70.3254242  27.1871548  11.2237759
  69.4005661  26.9730186  11.1012201  70.3334732  28.1306019  11.3852539
  46.8597145  65.9647751  41.5317154  45.9433708  65.7033539  41.4411240
  47.2585678  65.7344589  40.6926079   7.9191561  67.4905319  28.2630253
   7.2265306  67.5112076  28.9233837   8.1157904  66.5604477  28.1512032
   7.1956124   3.5826471  86.8255920   8.0394678   3.4474509  87.2567139
   6.5729389   3.0866055  87.3570557   3.1809494  15.5271282  19.4319324
   3.4145241  16.4553547  19.4234123   3.8624113  15.1135244  19.9618130
  82.4500275  13.8790541  46.3740234  82.4785843  13.0106859  46.7757111
  83.2693787  14.2944374  46.6430054  48.7142639  21.8669739  46.0099297
  48.9363594  20.9381905  45.9445915  49.3880119  22.2346878  46.5818405
  56.8663902  36.4342499  86.8495941  57.5223961  37.0671463  87.1417084
  56.6550522  35.9287872  87.6345062  42.6579208  57.0327950  69.7599411
  42.8634567  56.7213821  70.6414261  43.4038506  57.5826454  69.5201797
  72.6916733  18.1383839  22.7963181  71.8244095  18.3824196  23.1196442
  73.1858139  18.9581680  22.7939529  11.6420336   2.5281937  63.6106758
  12.1584692   2.9299331  62.9120140  10.9086027   3.1290417  63.7421761
  62.7612190  37.3294449   9.4631405  62.4685402  37.5940247   8.5910349
  62.4005890  37.9950142  10.0489702  69.7333908   1.3295500  44.0104790
  68.8506470   1.1279094  43.7000961  69.6696243   1.2777278  44.9641457
   4.1515212  68.6637497  71.8376923   4.8151102  69.0009232  72.4395142
   4.2491736  67.7125702  71.8819733  34.3096123  57.2939072  69.4263306
  34.3468742  57.7823296  70.2486954  34.2149239  57.9668083  68.7521896
  61.4765968   7.7265997  20.6575527  62.0525208   8.3905115  21.0367146
  61.4351425   7.9484830  19.7273483  22.8058376  34.9829178  11.4493942
  22.8610115  34.0389671  11.5982151  22.0798607  35.0863647  10.8341818
  34.0445023  27.4608631   3.5683548  33.7963562  26.5453053   3.6964393
  33.7110481  27.9102859   4.3449244  75.0783234  43.3639679  42.0490913
  74.7944412  44.2681732  41.9147377  76.0027084  43.4359741  42.2869186
  66.5857468  54.5015030  46.9915848  67.3138504  54.6487122  47.5952682
  66.5784302  53.5546341  46.8515358   6.7169528  27.4744205  82.9470139
   5.9042978  27.4518471  83.4523010   6.4306493  27.5289249  82.0352631
  67.9674149   0.5273068  53.4493599  68.8810806   0.6945595  53.6805992
  67.7063065   1.2921206  52.9364128  49.2982216  12.5741968  74.5627289
  48.9741631  11.7885752  75.0032043  49.6142502  12.2605782  73.7153778
  51.4981422  23.2391968  73.3059082  51.1255684  23.8468132  73.9448318
  50.7844353  22.6330357  73.1073608  39.4569435  69.4052124  88.7195206
  39.8611984  70.1995163  88.3703918  39.0164452  69.0100708  87.9671555
  51.2013474  37.4327278  55.4720345  50.7035866  36.7964134  55.9854279
  51.2644234  37.0409012  54.6009865   9.7297564  32.2958107   8.8410492
  10.1840515  31.7761250   8.1778936  10.1683836  33.1463547   8.8207102
  68.4796143   9.1844110   7.4561400  67.8016891   8.9930611   8.1042423
  68.8885651   8.3370838   7.2799950  84.1505814  35.5298882  84.0157166
  84.8117752  36.2220001  84.0212021  84.1056519  35.2488098  83.1018219
  52.3371925  37.2014618  40.4807091  52.7833443  37.0784874  41.3185997
  52.0062141  38.0989609  40.5150528  66.3131256  70.9543152  81.6072693
  65.5312271  70.5342026  81.9655533  66.6318359  71.5120621  82.3168945
  41.3527145  39.9701805  59.9913368  41.0070953  40.8178482  59.7116318
  40.7294426  39.3314133  59.6452942  71.5715027  21.1222668  61.4236755
  70.9599380  20.8781071  60.7289734  72.3603592  21.4037457  60.9603081
  82.6152802   7.3493891  45.9722824  82.6748047   8.2345066  45.6127586
  82.7467041   7.4638376  46.9134827  51.0647278  53.0671844  44.7565041
  50.6621513  52.2626724  44.4295082  51.3926392  52.8349495  45.6252823
  81.5513153  70.9174728  64.7430573  82.0479889  71.2083969  65.5078506
  82.1372299  71.0752411  64.0027618  68.7518768  13.3309679  24.2393780
  69.1248703  12.6802273  23.6446972  68.3665924  12.8151407  24.9476910
  21.3586159  27.2196999  87.6139374  22.2499237  27.0067558  87.8904419
  21.2750015  26.8213787  86.7475739  30.0544968  69.3704453  30.9635925
  29.4803505  68.9533005  31.6059132  30.9180431  69.3673019  31.3765202
  72.3091888  51.9235687  27.9866467  73.2019119  52.2686043  28.0017891
  72.3897018  51.0694427  27.5621300  86.1023178  30.4485836  67.8411484
  86.0422821  30.4260864  66.8861008  86.8969193  30.9516430  68.0194016
  14.3823948  43.4357643  70.5988007  14.2100010  44.3607483  70.7746277
  15.2955370  43.3091278  70.8564148  71.8276672  55.1195068   0.7708851
  72.2291489  54.5575409   0.1081313  71.3539658  54.5151138   1.3423257
  72.8209534   4.6678200  78.3099594  73.5092468   4.8041315  77.6588821
  72.3355942   5.4927564  78.3216858  23.8085556  56.5564995  31.4624672
  23.9125671  56.6517105  32.4092255  24.6972561  56.4130211  31.1371098
  70.3401794  55.0825157   3.6837163  70.6873169  55.8859177   4.0713692
  69.5314865  55.3556099   3.2505121  65.6928329   7.6409707  46.6675797
  65.8179779   6.7988930  46.2299957  66.0816727   7.5208077  47.5339470
  16.4920292  71.0399094  49.8960114  16.7866230  71.3469543  49.0385895
  15.6083164  70.7066345  49.7404175   3.3409719   3.2806408  85.0142288
   3.6268401   2.5693672  84.4409943   2.4190001   3.4111290  84.7924805
  53.6549644  45.0515404  45.6406326  53.6777649  44.6384125  46.5037880
  53.1653633  44.4370804  45.0938606  54.4796104  48.1089401  67.2323380
  55.3952217  47.8925705  67.0560532  54.4915886  48.5118866  68.1005096
  39.5546036   8.4190998  80.6937790  38.9075775   9.1036434  80.5235138
  40.3935051   8.8209543  80.4679794  62.8390656  44.3423500  88.5624847
  63.7727051  44.3567352  88.7730560  62.8087807  44.1853333  87.6187363
  18.5252876  54.1850624  57.9852982  18.9390106  53.6201820  58.6379700
  18.1355820  53.5782661  57.3558884  53.4706306  10.7791958  62.8534279
  54.2430000  11.3128176  63.0403099  52.8277245  11.0506763  63.5085602
   5.5295033  52.2113419  54.6078644   5.0276442  53.0229721  54.5328445
   5.9942989  52.1392136  53.7742004  57.4715996   3.3392720  12.0084209
  57.9425774   3.2029231  11.1863365  57.2486610   2.4571996  12.3058739
  63.8132133  18.0491791  16.4660435  63.4795036  17.3248806  15.9366446
  64.6436615  18.2852287  16.0526733  33.5044708  42.7832870  39.4852715
  34.4255867  42.7796860  39.7455826  33.0375481  42.4515152  40.2521744
  74.3361435  28.8392944  61.2806435  75.1175232  29.3919830  61.2951126
  74.6750641  27.9473057  61.2049980  31.4463387  19.9490528   5.2905831
  31.8311710  20.0652256   6.1592827  31.9227066  19.2088051   4.9146342
  21.2874203  68.8669968  80.5763245  21.6698532  69.7034988  80.8413467
  21.3112984  68.8851242  79.6195984  26.3781834   5.2091470  75.8400116
  25.8246250   5.7182837  76.4321136  27.2008038   5.6971097  75.8022919
  29.8135605  11.3906851   6.4396429  29.5778809  12.2248545   6.8456583
  30.1819763  11.6333981   5.5901771   0.5572829  27.0025158  39.1235123
   0.8532813  27.3143044  38.2682915  -0.0236126  26.2686367  38.9229813
  84.4759979  53.7721481  74.7078934  83.9280777  53.7047386  75.4898529
  84.0303040  54.4164734  74.1579514  63.7311096  69.4021301  70.0218658
  63.5565033  69.6662979  70.9251709  63.4614639  70.1549683  69.4957809
  52.1532555   8.1407843  13.9108391  51.5582161   8.7110195  14.3976545
  52.9999123   8.5852251  13.9541759   8.5984211  66.2409134  87.2872391
   9.3094454  66.0478134  87.8982925   9.0387249  66.4209442  86.4566040
  12.1520090  68.0792542  88.7516785  11.2232704  67.8665771  88.8435593
  12.5831537  67.5714569  89.4390488  33.0545044  63.8713837  38.4440956
  32.9164963  63.2817802  37.7027779  32.1916046  63.9510155  38.8506660
  56.7761459  60.7151146  21.3589497  56.4311066  60.5290337  22.2321911
  57.2284012  61.5533943  21.4537392  36.3116417  64.2773666  35.8417664
  36.5010986  64.3604050  36.7763481  36.0918999  63.3533173  35.7231064
  69.1458511  69.7053909   6.4127231  69.5573654  69.9202576   5.5756311
  68.2359085  69.9844360   6.3109031   3.7043493  16.0331707  62.1266060
   2.9602299  15.6573973  62.5970459   3.6555693  16.9711132  62.3113174
  65.9782181  24.9193268  81.9375381  65.1174393  25.1704197  81.6025085
  66.4691849  24.6524410  81.1603928  72.3467560  68.2935257  32.1690216
  71.8646851  67.9559860  31.4141006  72.7859650  69.0783463  31.8413353
  28.6764469  62.0535240  35.7623711  29.3887463  61.4390450  35.5855103
  28.5812359  62.5501671  34.9496498  66.3709641  11.0480871  10.4642200
  65.7369156  11.7514572  10.6037846  65.9417343  10.4581614   9.8445606
   9.1817465  61.6685028  34.7837372   8.6942062  61.3861084  35.5575523
   8.8207893  61.1443405  34.0687561  26.2805710  11.6251469  86.5590591
  26.8529034  12.2474279  87.0078735  26.7419071  10.7886553  86.6197357
  50.9058418  62.7396240  42.5114441  50.5680542  62.6687660  41.6186295
  51.8256302  62.9805641  42.4011116  63.6284752  53.6062355  54.5485039
  64.3932114  53.9192467  55.0316505  63.8354759  53.7841988  53.6310539
  37.3462486   9.4593601  37.1446152  38.1126633   8.8859205  37.1424904
  36.9077530   9.2761784  36.3137093  73.3505020  14.7034721  59.4153938
  73.0721741  15.0501652  60.2630768  73.1780548  15.4140644  58.7976952
  29.8130741  26.1565170   3.7601166  28.9462814  25.9761200   4.1239257
  30.3097839  25.3530731   3.9149904  82.9983826  33.1908226  18.9567127
  83.7609863  32.7419434  18.5917797  82.2494736  32.6828194  18.6447926
  48.9328842   5.3796024   8.5871096  49.7289696   4.8481450   8.5812626
  48.2224922   4.7481112   8.4739990  55.8792267  17.8026524  48.5549393
  55.8196106  18.4200420  47.8258934  56.4037437  18.2589283  49.2129097
   5.5333462  48.9252548  16.3998337   5.5069270  49.7173157  16.9366493
   5.8439651  48.2428665  16.9948921  12.7938147  27.8034744  68.2674408
  12.2945843  27.7795105  67.4510880  13.7087259  27.8350220  67.9878464
  67.0200806  50.3863525  51.6331100  66.1636963  50.8037834  51.7257729
  67.2912827  50.1942596  52.5307655  16.9703064  33.6885033   5.7277069
  17.2492085  33.0610428   6.3945971  16.7682648  34.4853096   6.2181211
  33.8584938  60.3188210   2.2292299  34.0472145  59.4769897   2.6438866
  34.2222214  60.9688225   2.8304224  70.8047485  18.6573486   5.1808882
  71.0911636  18.5085125   4.2797527  69.9732513  18.1880188   5.2485352
  77.0046844  51.0442963  23.3840504  76.9649887  51.9517708  23.0821400
  76.7890091  50.5246010  22.6096897  22.0652733  45.3407516  50.1675758
  21.6954460  45.9159203  50.8373833  21.4847431  45.4465599  49.4139023
  50.2419319  30.6072979   6.8313522  49.4269791  31.0973835   6.7222681
  50.5939178  30.9110470   7.6680560   5.3895974  15.3292074  53.0141029
   4.8645902  14.8920698  52.3436470   6.2841697  15.2996063  52.6748428
  46.9403572  59.3395653  43.2276230  46.4349098  58.5334129  43.1233292
  47.6998520  59.0802689  43.7493210  77.5505600  10.0557661  51.5322952
  78.0664902  10.6519670  52.0750580  77.4843216   9.2549887  52.0524864
  10.3105469  64.6256561  40.2067070   9.8527489  65.4263306  40.4627686
   9.7528877  63.9174728  40.5287743  24.7447529  10.4769058   1.8879081
  24.8054409   9.5873508   1.5397117  23.8629608  10.7662373   1.6534680
  48.4602547  18.9262733  88.8068848  48.8702316  18.2999954  88.2102890
  47.6008224  19.0968513  88.4215012  24.7482185  39.8768539  36.5444527
  25.5733528  39.7286720  37.0064354  24.2350311  39.0862427  36.7112007
   1.3780689  55.8277130  25.6361217   1.6153154  56.5105286  25.0086613
   1.7161676  56.1442604  26.4738083  67.4057541  63.9248047  76.4362640
  67.4960709  64.6210785  75.7856674  66.5437546  63.5461044  76.2637024
  84.3346786   1.2613124  15.6214075  85.0415497   1.1843817  16.2622280
  83.7185287   0.5687882  15.8601627  84.7663116   7.5085311   7.1766648
  84.7263947   6.5683594   7.0014062  83.8698730   7.8156633   7.0413637
  61.3383675  60.2744255   9.4644117  60.8230400  59.6346817   8.9730930
  61.0902824  60.1311951  10.3777418  34.2211685  66.7128677  84.5717392
  34.9610748  66.3888321  85.0853271  33.5030289  66.7782669  85.2012100
  66.5153809  31.6128483  74.3148651  67.4277649  31.6726036  74.5980911
  66.4142838  30.7071266  74.0221558  39.4370270  26.7320824  41.8723984
  39.1039810  26.2932816  41.0896072  38.7648048  27.3781300  42.0891304
  63.0622902  13.1461887  66.0372467  63.7264481  12.4653835  66.1450882
  62.6117134  13.1770611  66.8812027  43.7195740  43.6723251  67.3726883
  43.2218513  43.3178368  68.1094742  43.1323738  44.3144379  66.9737930
  54.5294037  18.3255959  28.9510555  53.8270378  18.8099346  28.5170860
  54.0939560  17.8613377  29.6659565   6.4548359  16.5147667  21.8560314
   6.1749649  17.0959225  21.1488094   5.9074965  16.7632141  22.6009636
   3.6929741  48.0148277  66.8850479   3.0466583  48.1976166  67.5670242
   4.1069541  47.1968956  67.1604385  41.4208603   7.0694981  76.2762985
  42.2499237   7.4101658  76.6121979  40.7847099   7.7596655  76.4639511
  15.3268309  40.5135498  40.6093445  14.6651392  39.8450470  40.4318619
  15.6582527  40.7578697  39.7452278   6.6388497  25.9602222  63.2222290
   5.6888800  25.8512859  63.1783829   6.8430600  26.5695133  62.5127983
  46.0428581  66.2414627  78.0569763  45.6736641  65.4453583  77.6746826
  45.7763672  66.2117844  78.9758453  57.3392715   7.5578914  83.9584122
  57.9353027   7.8240151  83.2583008  57.9073372   7.4164252  84.7157211
  48.8622131  31.1883965  66.2824631  49.6654854  30.7031612  66.4709625
  48.4650497  31.3367729  67.1406479  54.3281593   3.5383630  34.5210838
  54.8260269   3.5732243  33.7042961  53.7368507   2.7939494  34.4095726
  39.4118614  66.0521622  48.9799385  39.1754761  65.1448059  48.7874222
  38.5819702  66.4736633  49.2032089  30.6014881  44.4918442  47.4970741
  30.2144299  43.6179085  47.4455833  30.8281002  44.7071152  46.5923424
  40.6680107  33.6645966  72.1214676  40.4755020  33.5777512  71.1878586
  40.3213043  32.8629379  72.5130920  73.7046738  64.5937653  51.5762825
  74.2411041  64.3489914  50.8222542  74.1439056  65.3607178  51.9438362
  24.4151535  57.1773300  33.9402695  24.9833355  56.5687599  34.4125404
  24.4304829  57.9767456  34.4665108  51.7958679   7.9459963  41.8242607
  52.3006554   7.1462321  41.9718971  51.9556808   8.4774914  42.6041336
  56.9524803   0.9531485  57.5416031  57.2508888   0.9812843  58.4506645
  56.0073471   1.0948256  57.5952721  29.7007008   4.3820677  21.2671452
  28.9069233   4.9150772  21.3124256  30.4115734   4.9945302  21.4563065
  69.0506287  51.2524376  74.3091736  69.2725449  51.0605812  75.2203140
  69.7685318  51.8043327  73.9989166  57.2123337  25.8453617  76.9771194
  57.3900414  25.7499924  77.9128342  57.0965729  26.7870045  76.8500671
  50.5929146  51.0050926  31.0143757  50.3641167  50.5547104  31.8274193
  49.8495331  50.8431854  30.4335155  34.0970306   6.9129457   3.8451452
  34.1160469   6.9578962   4.8011003  34.1550751   5.9780407   3.6481276
  63.2350731  32.5878944  60.5259323  62.8519554  31.7131691  60.5915909
  63.6723785  32.5945396  59.6744881  33.0252686  49.5835342   9.7488155
  33.6197090  49.9044991   9.0706882  33.4761658  48.8272018  10.1241665
  45.4433594  12.7253361  84.5091782  46.2558136  12.2234793  84.5746460
  45.5672836  13.2825441  83.7408066  35.4305191  54.4261017  33.6610298
  34.9362297  54.6881790  32.8843536  35.6700974  53.5141754  33.4960289
  39.7638474  24.7301502  77.2745590  39.4884148  23.9794388  76.7484360
  39.7638779  25.4652176  76.6614456  41.5948067  39.9900551  43.5097160
  42.4870300  39.9922371  43.1630669  41.0369797  39.9215889  42.7348785
  51.2932549  10.0532999  59.9271240  51.5065308   9.2189589  59.5092468
  51.9657021  10.6575270  59.6125450  15.0041723   6.8832245  80.9586716
  15.9349442   6.7225957  81.1138916  14.5894079   6.7269731  81.8070755
  72.4858780  37.3389397  83.6434402  73.2587433  37.0939293  84.1522522
  72.0575409  38.0147095  84.1688919  66.0183640  32.5195389  87.0047760
  66.5882416  33.0676918  86.4653320  66.5367203  31.7339516  87.1791000
  25.9883633   1.0421382  18.2439499  26.1500854   1.8758122  17.8022881
  26.7845955   0.5327452  18.0930672  85.5771866  69.4374390  31.0459328
  84.9001312  68.8598633  31.3984032  85.8536758  69.9667740  31.7939911
  20.9020233  39.0531998  65.1909256  20.2088852  38.3938751  65.1580658
  21.5196304  38.7192116  65.8414993  22.9934082  68.1359634  63.9123726
  23.8551693  68.4136963  64.2229538  22.3832626  68.7545700  64.3139648
  53.9992371  36.6732330  73.7768707  54.5180130  36.8419342  74.5634079
  53.6952248  35.7713966  73.8793335   1.2100551  53.2656784  46.2340393
   2.0184302  53.1916428  46.7412682   0.8452712  54.1136627  46.4871864
  78.0559692  13.6195221  56.9981346  77.8990631  13.1913071  56.1565628
  77.2073593  13.5967236  57.4403763  40.1023903  20.6166954  69.9826431
  39.6411552  21.2948437  70.4762115  41.0259094  20.7525539  70.1945038
  12.4397297   5.5776234  18.2833977  12.2175703   5.5047765  19.2116051
  12.4137354   6.5174923  18.1039448  81.3189240  44.2986526  82.7636795
  81.5821381  43.4946785  82.3158264  80.4040985  44.1507683  83.0033951
  68.8472977  49.0204659  17.3468227  68.1085739  49.4656219  16.9316616
  69.5024261  49.7074089  17.4699001  48.2650833  24.8618565  45.6991425
  48.1571541  23.9231873  45.8523865  47.5267754  25.2654839  46.1554565
  59.6980591  41.0430450  31.8508759  59.6696510  41.9853973  31.6853523
  59.1666832  40.9219589  32.6377716  26.5224991  66.9905014  74.5834351
  25.7809658  66.5222473  74.9669724  26.6953964  66.5325470  73.7608643
  11.3274641  41.9733429  14.5299263  10.7243919  41.5559921  15.1450310
  11.3646793  41.3722992  13.7858868   1.2595452   9.8443069  47.8813400
   1.6428884   9.1236973  48.3813400   0.5352955  10.1543856  48.4249802
  37.0471001  63.7915154   6.3060012  37.2645493  63.1017075   5.6790104
  36.7517891  63.3218079   7.0860000   0.6257038  49.1299744  73.9869308
   0.1130890  48.6851768  74.6619263   1.5331129  49.0426140  74.2788391
  53.5124397  35.0695801  45.6031532  54.3647881  35.4438667  45.3803520
  53.7203064  34.2429314  46.0386696  25.0350285   4.2653360  59.1161690
  25.9850407   4.1499462  59.0963097  24.7214127   3.5705173  59.6950493
  32.0694122   4.2747746  85.5959167  32.6129990   3.7031393  86.1381149
  31.2403831   4.3374219  86.0702820  53.1746788  63.4795036  69.5599365
  53.2032547  64.3678741  69.2046661  53.2049141  62.9123421  68.7894516
  23.9440441  63.1018181  44.6736145  24.7622490  63.5857544  44.7857742
  23.5612011  63.0721474  45.5504189  60.0401955  18.0581093  58.5610962
  59.3024979  17.8951588  59.1488724  59.6953430  17.8743496  57.6872902
  39.2487984  54.6434937  45.5547638  39.6253281  55.3605347  46.0649719
  39.6474495  54.7305336  44.6888924   4.7878308  46.6108856  48.0585823
   5.7171073  46.4219360  48.1888733   4.4878583  46.9346123  48.9079666
  62.6009521  35.9906693  79.3719940  63.1617279  35.2538300  79.1294556
  61.7853889  35.5845184  79.6654816  83.1315918  41.0144005  58.8637047
  83.5024643  40.3672104  58.2638474  82.3806610  41.3751945  58.3923607
   6.9985042   3.2145739  33.2455254   7.6364326   2.7250633  33.7648125
   6.6441345   2.5706286  32.6323433  21.8627205  17.5902691  15.5841618
  21.1447983  17.8743706  16.1499405  21.5906239  16.7295094  15.2659063
  67.1397247  11.3956785  71.1692429  67.8187103  10.9910231  70.6293716
  66.4847794  11.7008657  70.5414429  11.8514919  47.4593925  25.8786049
  11.5171900  47.2075424  25.0177650  12.4118776  48.2159576  25.7059612
  44.1915970  65.3219376  41.1514587  43.6916122  66.1100922  40.9391899
  43.5359650  64.6256104  41.1903152  21.9886379  53.0263367  12.4301596
  21.3557205  53.7373428  12.3295603  21.5207787  52.2455215  12.1340742
  17.3257732  37.7348366  73.8870010  17.2059555  37.6253128  72.9436646
  16.4629898  37.5550117  74.2604980  63.7253494   2.5511730  64.2144928
  63.7329063   1.9924674  63.4373055  64.6335983   2.5534360  64.5166855
  27.6281605   0.2759542   0.6488997  28.0017757  -0.1538193  -0.1204761
  27.7019577   1.2114534   0.4601489  18.0689602   4.7892251  56.5029831
  17.9305954   5.7300367  56.6123466  18.8758545   4.6081748  56.9850349
  85.7497559  57.4932289  48.5937309  85.8695297  57.8284378  47.7051773
  84.8022003  57.3948135  48.6868973  76.8100967   5.7560210  80.2714386
  76.8941650   4.9397869  80.7643127  77.6070404   6.2440739  80.4786072
  56.7989655  27.4226685  82.9973907  56.1605911  28.0187359  83.3890686
  57.5091934  27.9925499  82.7023544  74.7866287  64.6834259   8.6237898
  74.3480072  63.9125633   8.2637787  74.6046677  65.3793182   7.9922366
  34.6016541  59.4760017  76.5764771  34.3590736  59.8218193  77.4354248
  34.8487473  60.2486115  76.0682983  55.9016724  46.4837456  11.2830372
  55.0293350  46.6348572  10.9191351  56.1757622  45.6466370  10.9083939
  11.4068832  19.9202366  69.7955246  10.5877895  19.6796112  69.3626099
  11.4712706  19.3189278  70.5374908  39.6493454   8.5338812  22.4380798
  38.8907013   8.6147127  23.0161400  39.5577545   9.2589207  21.8198891
  35.4430962  56.8813057  49.9804153  35.5746040  56.6207962  49.0687828
  34.5073204  57.0730133  50.0421257  28.0484161  13.5172348  87.4603195
  28.6345711  14.2708864  87.3920441  28.3911953  13.0133028  88.1984177
  67.9196625  19.3391266  47.2134552  68.2715302  18.8403988  46.4761009
  67.4230194  18.6975346  47.7213326  49.0010529  33.9926529  38.4517593
  49.4014626  34.5305595  37.7687073  48.1899338  34.4504852  38.6724586
  14.7439518  50.2445564  37.3062401  15.4483156  50.7051506  37.7622643
  15.0411425  49.3357162  37.2624207  48.9399490  62.6613235  63.3628960
  48.0958443  62.2102814  63.3460579  48.8027573  63.4461632  62.8323898
  61.8026581  69.3220978   5.2955604  61.8544350  68.4150009   5.5967755
  60.9216614  69.4032211   4.9301906  49.6953125  60.0070496  64.8874969
  49.7099419  60.6761398  64.2031479  48.8397942  59.5879288  64.7944412
  77.2490692  54.3531075  77.3366470  78.0407333  54.5864487  76.8518295
  77.1070862  55.0891190  77.9319305  17.2714291  58.8259354  21.3520908
  16.9423199  58.1517525  20.7576199  18.2052479  58.8874397  21.1510181
  23.6726723  12.7859526  12.0584736  24.2964497  12.3618546  12.6477747
  23.3690643  12.0825777  11.4846125  86.0300217  26.2170124  34.6953545
  86.9509430  26.1021824  34.9297638  85.5835800  25.4784889  35.1094856
  23.4946327  27.2631474  76.9147797  23.8857479  27.8550320  77.5573807
  22.8083706  26.8037968  77.3987961  69.3404083  17.4600506  69.5955811
  68.6875076  17.6747799  68.9293671  69.7856064  18.2891407  69.7706299
  79.1238632  66.4936676  42.9523621  78.6170273  66.1630020  42.2107353
  79.0557556  65.8059616  43.6146660  30.0263653  25.4705124  85.1739273
  30.1801548  25.3907814  84.2325363  29.1213856  25.1827126  85.2939987
  40.0860252   3.2791836  27.1908188  39.7851715   2.4926708  26.7357178
  40.1933594   3.9306362  26.4977665  39.2399979  51.8070297  12.0679026
  40.1185150  51.8530312  12.4451571  38.6549072  52.0087662  12.7981081
  40.5307961  40.9608955  33.2614326  39.9062958  40.2723427  33.0331192
  41.3788071  40.6184082  32.9789238   9.6345587  48.7445831   1.4788991
  10.0172663  49.6201363   1.4225668  10.1790380  48.2859116   2.1187372
  47.6619263  14.7848787  41.4678535  48.5000954  14.5722485  41.8783340
  47.1017418  14.0339670  41.6642151  77.8595505  31.3590698  47.1614761
  78.7462082  31.7041950  47.0568237  77.9782181  30.4120655  47.2344894
  77.7367172  53.6620941  21.0366096  76.9476547  53.2053757  21.3281879
  77.9580154  54.2452698  21.7626705  57.3101807  30.8181248  22.1057682
  56.7517319  31.4918518  22.4936600  58.0174904  31.3065834  21.6846371
   7.5776463  28.4959602  73.5635223   7.7025123  29.0030823  74.3656845
   8.3762197  28.6470757  73.0578766   7.0082755  47.2495880  -0.2619239
   7.9566541  47.3351059  -0.1644738   6.6537566  47.5444336   0.5768934
  56.3128395  63.7728310  55.2440224  56.6347237  63.5245552  56.1106110
  57.0704727  63.6690063  54.6683083  80.9533310  17.9282684  58.6290131
  80.2620392  17.7802868  59.2743340  80.9184952  17.1592846  58.0600815
  58.0598488  55.1247406  43.6692657  57.1037331  55.0802078  43.6597519
  58.2643204  55.9688339  43.2668610  29.5729198  66.7574310  73.6138458
  29.8934383  66.0574646  73.0450287  29.1115723  67.3533096  73.0236664
  70.7403412  67.8560562  20.5653496  70.6313400  68.7847595  20.3607731
  71.6154480  67.7963181  20.9485626  40.5861359  34.0671730  20.6061649
  39.8077888  34.2831573  21.1197395  40.7683640  34.8603935  20.1023502
  33.0419235  56.5040092   4.7920251  33.8793640  56.9158478   4.5791659
  32.6633759  56.2779617   3.9424162   6.1450453  59.1857719  26.8471146
   6.1659636  59.8956184  27.4889183   5.9553008  58.4020576  27.3628883
  67.5451660  22.2594910  19.4493904  68.3621902  22.7536526  19.5165634
  67.5870056  21.6286793  20.1681080  37.5121765  46.4830360  77.2572327
  38.1049919  46.2905884  77.9837112  38.0510941  46.9642754  76.6293716
  17.3134880  12.4783344  76.3976517  16.4420319  12.7567158  76.6792526
  17.1976700  12.2160282  75.4844131  28.5309601  71.1408310  47.5377655
  29.0314865  71.4424591  46.7796555  28.9848595  71.5196381  48.2905693
  66.4670410  71.7731552  18.1276321  67.3929749  72.0091934  18.1838856
  66.4701004  70.8509979  17.8710423  41.7975121  26.7714424   2.0229650
  41.2434731  26.9644756   2.7792802  42.1213646  25.8850765   2.1833003
   0.0293432  25.5830231  17.8457069  -0.6544803  25.8512192  18.4594555
   0.7266343  26.2273693  17.9675026  86.6724701  69.7864761  84.9296036
  87.1590958  70.5221939  84.5579071  86.1138077  69.4828873  84.2140884
  82.9398270  47.2251740  78.8651428  82.8946228  47.2927170  79.8188858
  82.4030151  47.9514084  78.5478897  27.2406960   8.3146296   9.6552172
  27.4427376   8.8871031  10.3952751  26.4277458   7.8762221   9.9065027
  50.9798660  10.9480963  64.4458923  50.4797401  10.5627193  63.7264519
  50.6492271  10.5090704  65.2295761  38.7683830   6.1305475  88.4469452
  39.7153358   6.0181146  88.3640213  38.4761429   6.3590631  87.5645599
  41.8022766  69.4597397  55.5895767  42.5925751  69.0839844  55.2016678
  41.1388664  69.3824081  54.9039078  11.6082563  10.5809088  13.9209299
  12.2690983   9.9050922  13.7699585  11.7294159  10.8341961  14.8360243
  54.3048401  29.4896297  70.3879089  53.4996452  29.7744198  70.8200989
  54.5200882  30.2037125  69.7879181  61.0766373  58.9107246  30.2304478
  60.1635094  58.7535439  30.4707127  61.1526184  59.8639870  30.1886330
  70.8384933  16.4907856  36.1773300  70.8186417  15.5649233  35.9352226
  71.3147659  16.9148540  35.4634895  24.5339756  71.0998230  63.6751785
  23.6611214  71.4903793  63.7178993  25.0173321  71.5149384  64.3895187
  23.2756557  32.9802475   7.2052097  23.7087708  32.9985580   8.0586195
  23.9903526  32.8830070   6.5759382  60.6169090  14.6075172  55.5894661
  59.9118843  13.9762716  55.4455833  60.7836952  14.5697536  56.5312653
  67.7839508  44.8521919  22.7260857  68.5640640  44.3200798  22.5695400
  67.8795013  45.1577454  23.6281605  13.5203705   2.3632700  59.1927872
  14.1178493   2.9388824  58.7153740  14.0084009   1.5467438  59.2992897
  71.5286407  28.7224579  35.6231956  71.9699631  27.9743080  35.2210274
  71.9633865  28.8306408  36.4690819  35.8401108  64.3393707   2.9640150
  35.0827255  64.9222031   2.9100969  36.5815887  64.9240570   3.1208000
  18.2514057  59.0151100  56.3141060  18.2270832  58.2529526  56.8926849
  19.0599098  58.9094887  55.8127098  52.6878738  12.1371040  71.4756241
  51.8186493  12.5185738  71.5987549  53.1253586  12.7301397  70.8647614
  50.6530380  20.6898689  33.7458649  50.2908821  21.2065887  33.0260925
  49.9957695  20.7510853  34.4390335  35.4303246  12.4627142  67.8619003
  34.8829155  11.7534876  67.5248947  35.2187500  12.5061607  68.7944107
  37.9914551   6.6588850  75.1080627  38.6843834   7.2012944  74.7313995
  37.1787910   7.0657511  74.8076096  41.7797928  47.6966972  30.8826675
  41.6551857  48.6029472  30.6008530  41.0050735  47.5010910  31.4097099
  52.9707260  45.9653358  23.5639534  53.5543175  45.3108215  23.1802063
  52.2382812  45.4576950  23.9133224  53.9934044  64.0868835  62.1184692
  53.4924126  64.8711700  62.3423767  54.8274536  64.4214554  61.7888412
   0.4171045  32.4471931  39.0277023   0.6488519  31.6080322  38.6297913
   1.2573266  32.8412704  39.2621460  47.0383148  47.7665977  30.9722271
  46.6114616  47.6159630  30.1288185  47.8128433  48.2870903  30.7591000
  79.8300552  -0.1972486   4.5667343  80.6872711   0.0649686   4.9023705
  79.5778122   0.5111470   3.9744668  77.8983917  55.8572235  85.4380951
  77.9537354  55.2758980  84.6796570  77.5887146  56.6891899  85.0800934
  81.9331818  45.2975655  75.0207520  82.7288208  45.2423782  75.5500412
  82.2360382  45.1811218  74.1202240  78.3662109  22.6771240  27.9099827
  78.4797440  23.5925636  28.1655426  78.8532791  22.1823311  28.5689049
  12.3631392  39.4994469  36.6377029  12.6278296  38.7863159  36.0566597
  11.5498705  39.8299599  36.2561455  79.7466202  52.6886787  78.9901733
  80.0713806  51.9388123  78.4917221  79.5826797  53.3621979  78.3300781
  68.5290527  15.9962997  23.2065697  68.6184082  15.0672617  23.4190235
  68.3342590  16.4159622  24.0445251  19.1091404  45.2054138  28.1300793
  19.5860786  46.0115623  28.3272839  18.6311436  45.4009705  27.3241577
  38.2736053   7.8294835  39.5615921  37.3193398   7.7741261  39.6120377
  38.5252800   8.3361340  40.3337288  65.3035126  44.0900726   0.7111841
  66.2200470  43.8414841   0.8312092  65.0382233  44.4440575   1.5600349
  47.1132050  51.1911469  48.6730423  47.7624016  50.9872780  49.3462563
  46.4880142  51.7691345  49.1104164  25.0001507  58.9734001  10.4447155
  25.1080475  59.9066124  10.6282969  24.7597427  58.5896339  11.2880182
  50.3604202  16.5096893  21.2914181  50.8591652  15.6950436  21.3533535
  50.7004356  16.9396210  20.5067024   9.9989510  21.9147663   8.0285788
   9.3114662  21.2596188   7.9086719   9.7281046  22.6496372   7.4782724
  39.2804642  59.0026283  46.5244255  38.5297432  59.4803696  46.8771477
  39.0293388  58.7921371  45.6250610  18.8934422  22.9175377   1.1095301
  19.2843666  22.6108513   0.2913900  18.7832909  22.1246490   1.6343403
   1.1004816  27.6975632  58.9640465   1.3371394  28.4399281  58.4080582
   0.8361770  27.0128307  58.3496208   8.9592075   2.2683032  88.7035065
   8.8471966   1.6016810  89.3812256   9.8059502   2.0656095  88.3057938
  23.8939934  69.3276749  32.8240585  23.1615334  69.9105988  33.0238838
  24.4515858  69.3686752  33.6010017  41.1841011  45.5477219  68.3510895
  40.9252548  45.2252274  67.4878235  41.4783630  44.7669182  68.8201218
  57.2155380   7.4995418  53.7562294  56.5141945   7.3747091  54.3955803
  57.7417641   6.7024589  53.8192635  11.3517179  31.4475613  52.2702370
  10.5915108  31.0228672  52.6676674  11.0750084  31.6454163  51.3755188
   8.6903152  29.1896400  84.8740692   8.0798731  28.4825935  85.0830612
   8.1844110  29.9908028  85.0098267  51.9258347  70.6219559  19.4344120
  51.1152191  70.1490402  19.2460289  51.6667442  71.5432205  19.4535542
  28.4327393  32.7468758  87.2984924  28.6378555  33.3761368  86.6069794
  28.0032978  32.0224724  86.8434525  11.6129341  44.2986298  12.6221590
  11.9845066  44.0578423  13.4707966  11.5054340  45.2486382  12.6686258
   9.6106453  58.7865067  37.2574692   9.3216724  59.3858910  37.9455605
  10.4990902  58.5386353  37.5133171  10.0100422  68.1156540  30.6807537
   9.7686548  68.9029770  30.1928120   9.2656155  67.9557266  31.2608242
  24.2850723  34.9091568  81.4997177  24.3748646  34.3176537  80.7525253
  23.9775486  34.3494186  82.2126999  23.3764591  22.3500538  83.9405441
  22.4665470  22.4970684  83.6823196  23.8730602  22.4346046  83.1266174
  68.0247574  21.7870007  79.5701981  68.1992416  21.8982048  78.6356354
  68.7776794  21.2948685  79.8975296  76.7049789  59.9194298  73.9910431
  76.7167206  60.8691368  73.8720703  75.7754059  59.6941910  74.0283127
  15.1258392  62.1502304   9.3223724  15.8520031  61.6888580   8.9027824
  14.8267555  61.5529213  10.0079412  36.6834717  65.0989609  41.7789993
  37.3202515  64.4951859  41.3966331  36.7436333  64.9450378  42.7218246
   2.3257358   7.4623399  71.9197998   3.0914524   6.9313774  71.7007370
   2.4638920   8.2861843  71.4524460  57.8511772  13.6994762  35.1360664
  57.4163361  14.5097265  34.8702850  57.8881645  13.7496910  36.0912323
   9.3086004  48.9128036  68.6655426   8.6194420  48.8184280  69.3231049
  10.1207438  48.9372292  69.1715622   2.8888969  44.4806213  37.9217300
   3.6014585  43.8530197  38.0425835   2.7650185  44.5226784  36.9735107
  44.2882881   5.4875054  58.0603905  44.5801468   4.7957001  58.6540718
  44.5579338   6.3000541  58.4885101  37.9471550   1.6598351  79.2421722
  37.3747597   0.9036315  79.1127396  37.3693962   2.4168656  79.1455841
  42.7682533  65.1630325   4.8207006  43.0358086  64.7293549   4.0104117
  42.7789268  64.4682465   5.4790239  72.0746460   1.8915647  87.2742767
  71.4058762   2.4497755  86.8775635  72.8966217   2.3581796  87.1230774
  50.6095848  42.0623817  25.5660896  51.0105438  41.4020615  26.1312790
  49.6846657  42.0588989  25.8125439   4.6471734  43.5718002  21.1076088
   3.7007766  43.5591774  21.2504559   4.9555721  44.3243370  21.6124001
  45.4465561  31.2051277  43.1811180  45.2266235  31.8305931  42.4907150
  45.7037735  30.4113350  42.7121124  13.3064547  49.0697289  83.8388138
  13.1272373  48.1372681  83.7178268  12.4574709  49.4946175  83.7166443
   6.8294392  27.7127514  77.6209183   6.7318592  27.6703415  78.5721817
   6.7766948  26.8011322  77.3338623  69.4391174  32.0469513   9.4789696
  68.6269913  32.1575089   9.9734011  70.1324387  32.1535568  10.1302567
  22.0659847  53.1782799  57.2815323  22.9919128  52.9444275  57.2167091
  22.0283432  54.0898628  56.9919853  69.1845398  61.8048210   9.9558983
  69.9194794  61.5906105   9.3812571  69.5414200  62.4433556  10.5732622
  72.1794510  30.4476795  20.4361534  71.4289017  30.8361988  20.8855457
  72.5266495  31.1557808  19.8936768  52.6504593   8.2115746  67.6130295
  53.2002640   8.4858446  68.3470078  51.9407845   8.8535767  67.5923767
  83.1386719  15.8499231  50.2068672  82.3728027  16.4240913  50.2075539
  83.3209076  15.6948090  49.2800674  71.3093414  33.7092400  23.6500416
  71.8637466  34.3031921  23.1439877  71.3488541  34.0482979  24.5443077
  79.8606796  51.7175102  64.4083405  79.3353043  51.3660622  63.6895218
  79.8995743  51.0055504  65.0469513  71.1102066  51.4440308  64.9180984
  71.4183426  52.2961197  65.2266922  71.0559769  50.9080429  65.7093048
  77.5947418  29.4104958  68.7837524  77.6873627  28.4933472  68.5258865
  76.7823715  29.4362774  69.2893372  19.5682278  26.6107597  71.9146271
  20.2233543  26.8370438  71.2544479  19.1470184  27.4430885  72.1292038
  54.6127625  45.9386826   4.3610702  54.3638115  46.6980553   3.8341846
  54.8283844  45.2621078   3.7192061  46.5991898  45.4795380  45.1768684
  46.5830345  44.8962059  45.9356155  47.3979301  45.2394905  44.7071648
   1.1369401   4.1607804  45.1502037   1.9516187   4.5051479  45.5161819
   0.7925568   4.8769069  44.6165390  20.5426292  38.0457497  18.6563339
  19.9122238  38.4973564  19.2174683  20.0510616  37.8398476  17.8612251
  52.2441521  60.3580322  41.1783447  53.0176849  60.8217735  41.4990120
  51.6016884  60.4486809  41.8820877  46.2439117  36.0007286  29.9736042
  46.2161369  36.8677864  29.5690384  46.6899872  36.1403618  30.8089199
  58.1681862  71.7750168  55.2410812  58.5239182  70.9036713  55.4155731
  57.5900230  71.9507446  55.9834290  85.6739960  17.6548424  41.9998016
  85.6868744  18.6101055  41.9403191  86.2199326  17.3620510  41.2701035
  20.5917187   0.3852074  18.9682312  20.9701328   0.3635717  19.8471889
  20.8444099   1.2401177  18.6196518   3.3790123  37.3864708  21.7580013
   3.4330153  37.6820793  20.8491936   2.4791896  37.5810471  22.0200882
  20.4479160  40.7628479  63.1479301  20.3433399  40.0956268  63.8262444
  19.5846786  41.1704369  63.0777817   7.8236728  37.7275658  38.9555435
   7.1526594  37.9696274  38.3172836   7.8438134  36.7709007  38.9307480
  73.5592194  45.2805061   1.1056106  74.4656982  45.3849716   0.8164427
  73.2027817  46.1688614   1.1020081  17.8881645  45.6155853  49.6036682
  18.2487411  45.6882172  50.4873772  18.0116806  46.4848442  49.2223969
  81.6875000  24.8505878  50.1739731  81.9870682  23.9433918  50.1149025
  82.4134674  25.3659191  49.8223457  50.2059402  60.9710770  61.0140915
  50.0867195  60.3212967  61.7067680  50.9787064  61.4681396  61.2824059
  41.1009865  10.0431347  71.9217148  40.4434891  10.3314238  71.2886124
  40.7307816  10.2743673  72.7736053  61.8587456  13.7441607  13.9277439
  61.2721024  13.0999022  13.5314951  61.6844788  13.6811142  14.8668318
  37.5027504  45.7842102  24.6771946  38.3470535  46.2340088  24.7098064
  37.7201843  44.8584557  24.7864342  81.1528625  44.8135567  29.4288654
  81.7759171  44.7389259  30.1516800  81.6664505  45.1745110  28.7062511
  53.8346863  35.5127411  69.9403076  54.6236801  36.0254784  70.1158676
  54.0506134  35.0000687  69.1613464  79.8053589  30.9344997  55.1997833
  79.4912796  31.7651501  55.5570030  80.1714630  31.1642151  54.3457184
  80.2998962  26.8871613  30.2276516  80.1363678  27.5800266  29.5877857
  79.8657913  26.1163063  29.8621864  36.7997055  29.5196800  48.3444977
  36.7789154  30.4766331  48.3508072  35.9381943  29.2592392  48.6703835
  68.5204697  46.0116158  25.3365307  68.7503738  46.7664528  25.8783760
  68.7541885  45.2528763  25.8712444  70.5972977  55.7697830  23.8269386
  69.6463242  55.7011452  23.9116554  70.7337189  56.1472092  22.9579315
  33.2824593   6.0701108  31.0790462  33.7696190   5.4854355  31.6596165
  33.9469414   6.6561613  30.7167797  45.7953835   6.8082418  36.5448761
  45.3285904   6.4947586  35.7702370  45.9821091   7.7278872  36.3561478
  21.9846210  65.8836823  70.0869217  21.7318020  65.9814072  69.1688995
  21.2284775  65.4673004  70.5005646  32.5599747  62.7686501  13.9132414
  32.7293587  62.6007347  14.8402491  31.7406921  62.3079720  13.7321825
  10.7339716  53.8466682  54.5677910  10.8509264  53.5720634  53.6583138
  10.6135111  53.0293121  55.0511665  78.2188187  49.1737747  39.7473373
  77.6021729  49.0366478  40.4664841  77.9741364  48.5185928  39.0938072
  59.3397026   4.7762461  53.7247925  59.5511551   3.8477271  53.8216019
  60.1460609   5.1723480  53.3944588  26.1250267  41.2011909   8.6075783
  26.4920921  41.0816994   9.4834881  25.3024521  40.7119675   8.6238146
   6.3178134  27.8046875  65.6758347   5.6755533  28.3379745  65.2075043
   6.3882093  27.0036125  65.1566467  40.8463745  38.5982933  10.9328442
  40.6710739  38.1406021  10.1106405  41.7054634  39.0004921  10.8046293
  51.5188332   4.4528375  21.0802574  50.8365173   5.0945101  21.2775612
  51.7928467   4.6615267  20.1871738  23.6154366  63.7717285  18.7477245
  23.0383492  64.1700745  19.3992805  24.1279736  64.5028763  18.4028149
  68.7152939  31.9837608  18.6493988  68.2499924  32.8086472  18.7882977
  68.1379013  31.3174000  19.0219822  49.1155701  12.7237816   5.1413822
  48.6215401  11.9879494   5.5029325  49.2290726  13.3220272   5.8799281
  55.9283676   7.2184443  65.0543747  56.3206711   6.9289136  64.2306595
  56.4674301   7.9603400  65.3286591  72.8035507  39.1389885  44.1591339
  72.7966690  38.7566032  45.0366096  72.7571030  38.3863716  43.5695229
  18.6863346  12.7105265   9.5723801  19.0873318  13.5795193   9.5892630
  18.1454735  12.7116261   8.7826347   3.4190283  45.6773911  15.4494658
   4.3680530  45.5540123  15.4684982   3.1538832  45.6378326  16.3683586
  24.4673672   2.2355878  78.5628891  24.1190853   3.1065192  78.7537003
  25.2902565   2.4021432  78.1031647   0.3689848   4.4495096  16.0063877
   0.5145704   3.7402875  16.6325188  -0.0219231   5.1516361  16.5264263
   9.7836761  57.4382858   1.2373077   9.0220108  57.7524452   1.7245466
   9.4175825  57.0630569   0.4364267  36.7922554  19.7593708   9.7609921
  36.9182510  19.7266045  10.7092981  37.6664734  19.6168041   9.3981571
  56.9563904  21.1961575  27.3846130  57.1952820  20.8348656  26.5310135
  56.1585655  21.6979408  27.2175293  29.7315178  43.0483093  14.3514080
  30.1826286  43.8881721  14.2655859  29.1455517  43.0128136  13.5953560
  59.2902985  23.4574223  79.5829620  59.3079338  23.5823193  80.5318146
  59.2437553  24.3441467  79.2254868  78.5752182  48.3529663  50.4960136
  79.3256531  47.7606430  50.4486961  78.2070541  48.2040062  51.3669281
  32.7678757   3.2203438   5.6619124  32.4010429   2.4127448   5.3021221
  33.0171738   2.9920256   6.5574303  79.7461624  71.5250549  32.7032433
  79.5112915  72.2093277  32.0764732  80.4786987  71.0655136  32.2928238
  38.3452873  16.0509396  85.4668884  39.2273712  15.9480877  85.8240814
  38.4362144  16.7266979  84.7950897  24.6326599  46.0652390  72.5879822
  24.2202835  45.2304726  72.8101196  24.0121231  46.4885559  71.9947128
  43.1930504  34.2491112  50.6065826  43.6133652  33.4687500  50.9679718
  43.3769760  34.9378090  51.2454071   1.2800887  15.0515203  21.5686665
   1.8132265  15.1452627  20.7792301   0.3934891  15.2771292  21.2871113
  84.7924805  12.6797161  70.3213959  84.8015671  12.9885149  71.2273712
  85.6627731  12.8952312  69.9861603   1.0811017  39.0619240  28.1287174
   1.1018282  39.2940636  29.0571098   1.1385763  38.1064949  28.1193924
  61.4747238  25.8464241  88.6130981  61.5133858  26.5661449  87.9832306
  62.2742233  25.9384670  89.1313248  13.8602390  70.9562378  29.9100037
  14.6714764  71.4203339  30.1167545  13.3620052  71.5723877  29.3730145
  43.1031418  63.5653610  70.8346939  43.4099731  62.6780357  70.6483154
  43.4733582  64.0993805  70.1318436   2.1453023  63.8308182  35.2256699
   2.0938811  64.0874405  34.3049469   2.1560397  62.8738518  35.2073517
  79.7385101  12.6172447  71.6820145  78.8675919  12.5015926  72.0619583
  79.8785477  11.8277063  71.1592789  13.1152096  47.9362755  40.3779945
  12.9406357  47.4147835  41.1614532  12.7282372  48.7908974  40.5680008
  63.0559158  43.9006500  72.8368683  62.1867523  44.2778282  72.9729843
  63.4617081  44.4653091  72.1790466  17.2248745  37.8848419  27.9948978
  18.0220604  37.7277756  27.4888783  16.5940399  37.2527275  27.6503525
  60.3687973  33.4265442  74.2225723  59.7986832  33.1242943  74.9295654
  59.8107109  33.9940681  73.6908875  21.0126476  62.2527122  44.5933762
  21.6384926  62.9766235  44.5709419  21.0518169  61.8749237  43.7147522
  64.6605072   7.1362739  75.8404617  65.1141968   6.3944507  76.2405777
  65.0520935   7.9067335  76.2518997  86.2140808  13.3054543  59.3078346
  85.9598999  12.9107838  60.1420135  85.3965073  13.3695202  58.8141823
  66.1839142  18.2182007  14.2020493  66.3121490  17.2765160  14.0879507
  65.5905228  18.4667320  13.4932804  68.5530701   1.6130943  61.5792656
  67.6716461   1.2667785  61.7185402  68.5456238   1.9309629  60.6764183
  26.1337872  43.3819313  43.2873230  25.9664383  42.6281700  43.8530731
  26.1198502  44.1337433  43.8796234  28.6897755  43.2482758  83.0437393
  29.0048466  42.3523369  83.1631165  29.2970562  43.7855110  83.5524826
  64.1975327  12.8434668  24.9674816  64.5241547  12.8727999  25.8667507
  63.8695374  13.7275171  24.8028336  75.7920532  31.7415752   3.4068122
  76.1116409  32.4229851   3.9982276  76.3076248  30.9673424   3.6326077
  52.9196358  27.3951321  62.8559914  52.0735321  27.1174450  63.2070351
  53.4172134  26.5830956  62.7598457  72.3658676  55.3652000  85.0828934
  72.1853485  55.9020119  84.3112183  72.7087173  54.5445938  84.7289352
  43.1177635  58.6293068  83.5001144  44.0548973  58.5720406  83.3137512
  42.7094765  58.7439270  82.6419754  68.1961670   7.8015313  85.8575974
  67.4837875   7.8640532  86.4938660  68.9375305   8.2301941  86.2852097
  60.0699425  20.3835506  85.3507843  59.5807953  20.5213490  84.5396271
  60.9787903  20.5727921  85.1175156  52.9181366  61.3593864  64.3005753
  52.9256325  60.5273666  64.7737732  52.3179054  61.9133606  64.7996368
  46.6553726  40.1348648  78.3236237  47.5913353  40.1612473  78.1248550
  46.2654457  39.6753654  77.5799484  46.5356789  48.6786537  72.8093948
  46.2894173  49.0825539  73.6415253  45.7634163  48.1765976  72.5490265
  29.6233044  43.7686653   8.1943884  28.8071156  43.3824158   8.5120087
  29.7021656  43.4547997   7.2935543  50.9525604  40.4785347  71.8348923
  51.7784386  40.0659714  72.0877686  50.4451447  39.7727814  71.4340515
  23.3904591   5.8782229  84.9443970  23.2238312   5.6038980  84.0426102
  24.3167820   5.6835184  85.0866928  32.1436729  70.5644989   3.2517855
  32.2648392  70.8707886   2.3530431  31.3831272  69.9850311   3.2068598
  34.5053444  16.2624092  71.4547272  34.4625511  16.3884716  70.5068283
  33.6870079  16.6348953  71.7830734  16.1756630  12.3673468  20.8460979
  16.0039425  11.4848585  21.1746674  15.3072348  12.7353802  20.6829605
  37.9558601  52.3373032  81.8694458  37.1983032  52.1198959  82.4126587
  37.7873383  53.2306824  81.5699387  41.3311386   6.9777355  66.5481033
  41.2537880   7.8762708  66.2273483  41.7146072   7.0670481  67.4205780
  28.2961006  51.3650894  69.9413681  27.8388844  51.7201271  69.1790466
  29.2065601  51.2826424  69.6576462  67.3922577  57.3615723  78.5400543
  67.6768417  58.2752914  78.5592422  66.4437485  57.4085960  78.4202957
  83.8568039  42.6238823  28.3553181  83.1425705  43.1398888  27.9813614
  84.5338211  42.6263008  27.6786575  69.7831116  20.6236858  52.0931511
  69.4187698  21.4388657  52.4380722  70.5760574  20.8930168  51.6295357
  55.4148331  30.6149311  45.6100693  54.6185341  30.9400253  45.1900101
  56.0841141  30.6674633  44.9277649  76.9602203  18.1355877  44.0574989
  76.0577545  18.1948967  44.3709793  77.0917892  18.9383602  43.5530396
  85.9959869  15.2853575  33.2809486  86.1024323  16.2319431  33.3751717
  85.9168091  15.1459999  32.3372612  62.2408829  20.6448765  65.8912659
  62.4400330  20.9157581  64.9950562  62.4328384  21.4171906  66.4231644
  72.0305176  56.6032715  12.0446005  72.1182785  55.8862724  12.6726446
  72.1912308  57.3938866  12.5597010  60.8723106  66.8180466  88.4240799
  60.7663345  67.3009720  89.2436981  61.5404968  67.3062973  87.9430771
  55.3175316  52.2300682  28.6292648  55.9204521  52.9265289  28.3691368
  54.4509048  52.5652809  28.3994446   9.9773827  11.0113497  85.6592636
   9.1106720  10.6193380  85.5526276  10.4895439  10.3408556  86.1113281
  78.6940689  30.6382771   4.9273367  79.3830032  30.7808475   5.5763965
  78.9086609  29.7933865   4.5319338  66.2127838   6.9161611  70.9316025
  67.0508804   6.6187301  71.2856750  65.5868759   6.7668653  71.6402512
  40.9302139  52.4662170  86.4910507  40.6946487  53.3855400  86.3661957
  41.8797989  52.4440727  86.3725967  49.7035446   1.7368028  33.1500282
  48.9052849   1.3309816  32.8119087  49.9071274   2.4270961  32.5189323
   1.0523026  37.3836823  70.6513214   1.0680248  36.5591850  71.1373215
   0.5258493  37.1939507  69.8747406  39.2945213  54.4336739  62.1615219
  38.4707794  53.9461479  62.1626854  39.8925629  53.8922272  61.6463394
  52.1760216  56.5987930  85.7669678  52.9525490  57.1536255  85.8404236
  52.2854767  55.9414253  86.4540710  68.3043137  16.5643997  83.0191269
  67.5474854  16.5815735  82.4333496  67.9338379  16.3884544  83.8840103
  36.2353592  43.5136147  17.6555710  37.0933647  43.1008186  17.7538433
  36.1342163  43.6339836  16.7113705  79.6267242  53.0765762  12.4032927
  78.7872925  53.4782753  12.6274204  80.2639084  53.5289040  12.9561272
  15.0294065  61.1811180  21.9545174  15.4858913  61.8855171  22.4146023
  15.6180038  60.9418068  21.2386150  86.3899918  39.2604713  72.4373703
  86.5154266  40.2093811  72.4289932  86.6143265  38.9813728  71.5496674
  41.4753838  20.6215458   8.7567616  40.6165733  20.2631474   8.9808846
  41.6613731  20.2708664   7.8857498  39.2238197  58.8349152  85.0753860
  38.8967400  58.3795090  84.2995911  39.4692459  59.7037582  84.7574081
  81.2727432  12.9696417  65.5726395  80.9236145  13.8177299  65.8466568
  80.7921829  12.3312168  66.0996170  13.8838692  68.9835739  10.6132746
  13.4083376  69.4941101   9.9579430  14.3193617  69.6392746  11.1579218
  53.3192177   5.5618281  74.3940735  54.0560684   5.5885525  73.7836838
  53.2292023   6.4641709  74.7005157  55.1192360  50.4021301  37.4062462
  54.6281929  49.6197433  37.6571960  55.6295662  50.1301994  36.6434555
  12.0781078  11.3472710  29.4129620  12.7117758  11.8873262  29.8852310
  11.2732496  11.8653746  29.4149685  22.4363976  37.5004272  57.4984016
  21.8909111  36.8943100  57.9997025  23.2388897  37.0097427  57.3210144
  80.4716797  64.4172440  51.7563515  79.8697815  65.0841675  52.0867500
  79.9061508  63.6856613  51.5089607  78.0803986  64.1025391  31.2949009
  78.7576370  63.4390259  31.4265423  77.2621689  63.6067848  31.2639618
  79.4320831  20.1476746   7.6083565  80.1271515  20.7517014   7.8696136
  79.6901474  19.8482132   6.7366018  27.4602356  70.0855255  24.2660122
  27.5617828  70.8049698  23.6428585  28.3134670  69.6517181  24.2721157
   8.1264601  69.5151825  59.8596039   8.4093666  70.3089294  60.3136559
   8.6413755  68.8142090  60.2592583  68.0164719  14.0877142   7.5241842
  68.7808151  14.6639137   7.5264459  68.3178177  13.2883968   7.9560609
  86.4847946  41.3855515   3.8270352  87.3984604  41.1315994   3.6967885
  86.0350266  40.5655708   4.0309310  27.5305157  62.3177185  12.2338724
  28.1922359  61.7685776  11.8133917  27.4587612  63.0842552  11.6651001
  36.2103882  29.5895290  24.5939941  36.5809402  28.9712887  25.2238369
  36.8364449  30.3132725  24.5720844  55.6447563  68.3545532   9.1393051
  55.5368919  67.5448074   8.6403971  55.5055084  68.0950699  10.0500813
   3.4009130  51.4387207  49.2661629   4.0556736  50.8694305  48.8619003
   3.4885755  52.2715187  48.8024826  21.5181656  47.0788422  15.8087368
  21.0604725  46.2979851  16.1202049  21.7238693  47.5693130  16.6045723
  79.8292236  29.7782707  14.6833973  80.1623459  28.8951511  14.5241337
  80.3234863  30.3331280  14.0800095  33.8354988  50.7589645  35.1150742
  33.7765808  49.8214378  35.2989311  33.6698303  50.8295517  34.1749687
  84.0425797  34.5006599  81.5779343  84.5342407  35.1399193  81.0623398
  83.5910721  33.9639244  80.9265671  51.6923866  45.3573265  66.9243317
  52.6052399  45.1566505  66.7177887  51.2802353  44.5017395  67.0440521
  52.2138138  35.0530739  58.7821312  51.3160782  35.3495789  58.9317703
  52.7574158  35.6957169  59.2379112  82.2347946  31.3515358   0.5062051
  81.9400177  32.1986694   0.1719806  81.8733521  31.3043289   1.3912838
  85.4988708  46.0652046   0.5491806  85.9774399  46.8917160   0.4852862
  86.1816483  45.3974876   0.6139832  32.1255951  42.3956833   0.6711911
  32.7175560  42.7291946  -0.0030397  32.1366119  41.4461021   0.5511826
  32.1407776   2.4701161  32.4056969  31.4026566   2.5813615  33.0048943
  32.6593933   3.2673330  32.5139313  41.3661423  14.3228645  10.2606230
  41.0491982  13.4498186  10.0291700  41.1070366  14.4371233  11.1749754
  77.4723663  68.6087723  44.7729492  77.3281937  69.5372849  44.5904312
  77.9158325  68.2772369  43.9921455  40.8388824  33.9094772  62.8649254
  40.5853348  33.3503342  63.5993004  41.7948647  33.9375572  62.9041786
  32.7190895  39.9189110  89.1332397  32.0763092  39.2130470  89.0637970
  33.5230255  39.5473442  88.7701187  24.5487728  60.1502724  39.1246796
  25.3166218  60.1209984  38.5539055  24.9037437  60.3338509  39.9944649
  57.4565811  12.1340961   6.7050853  58.3779449  12.0115175   6.4763961
  56.9776802  11.8709536   5.9191852  82.7063904  66.8512344  84.0654449
  83.4321823  66.2526855  84.2420654  82.0572357  66.6456070  84.7381668
  70.9822922  44.0934181  40.8431053  70.4002533  43.3891602  40.5576591
  71.7768097  43.9731178  40.3230057  55.6036568  14.3145370  45.4774933
  55.9527588  15.0827646  45.9293633  56.0432091  13.5723219  45.8923950
  18.2164249  11.9049864  24.5793037  17.2600670  11.9117126  24.6188488
  18.4275055  11.1628170  24.0128555  22.0833626  64.1929092  41.3576927
  21.9101887  64.9611969  41.9017334  21.9966564  64.5112381  40.4591484
   5.5873308  32.7385750  14.7882748   6.0899982  32.1420059  14.2336016
   4.7026844  32.7167511  14.4233685  60.4529457   4.2852969  73.2771149
  60.1175194   3.9730723  72.4367294  60.2150612   5.2121711  73.3005066
  32.9787827   3.5855658  13.5810051  32.6632309   3.7327714  12.6893835
  32.5356789   4.2528033  14.1051102   4.1542063  47.0111046  23.9063034
   3.9158435  47.7951126  23.4115887   3.3934300  46.8371086  24.4605389
  26.3834305  57.6545830  57.8115616  26.7555408  58.4878883  57.5228310
  26.1245537  57.8097992  58.7199249  47.6546364  10.2310686  68.9667740
  47.7085838  11.1156397  68.6050339  46.8239403  10.2169561  69.4421463
  40.9271736   4.7429471  15.2037706  41.4914932   4.1008692  15.6344843
  40.2324867   4.2205267  14.8028774  22.2682724  54.3161278  39.7274246
  22.0341949  53.4031715  39.5602341  23.2229996  54.3345871  39.6611900
   7.0841637  41.7595673  44.7881584   7.9529462  41.9071922  45.1618614
   6.9050965  42.5499268  44.2787476   1.2044655  39.0691376  49.7124443
   1.8219200  39.7277069  49.3942146   1.6071583  38.2319794  49.4817238
  61.5030708  69.6346741   0.2664581  62.4468842  69.5923691   0.4202845
  61.4210205  69.8266525  -0.6676964  74.3566437  34.6873970  34.9132347
  75.1778336  34.4640846  34.4750481  74.5643845  35.4668579  35.4285202
  40.3478317   0.3473378  31.1765823  39.6481667   0.3922289  31.8282585
  40.0150070  -0.2522059  30.5087452  69.2213821  33.7531586  61.3696594
  68.9808960  32.9141808  61.7627373  69.9724884  34.0514374  61.8825874
  83.0781937   6.4071474  79.1774826  82.9523239   6.4807711  78.2314529
  82.8122330   7.2598486  79.5215683  78.1948166  57.2486572  28.0363674
  77.9461288  56.8190269  27.2179527  77.6113129  58.0050354  28.0967369
  79.1259079  45.8907166  85.9666519  79.5059280  45.0554543  86.2389755
  79.8187027  46.5319862  86.1248932  47.8960648  47.9173126  68.7965469
  47.3441200  48.5489120  68.3353806  48.6147728  47.7394333  68.1898727
  26.8940353  46.9427261   6.0464530  26.9834499  47.7710571   5.5751734
  27.6813412  46.8892059   6.5882235  15.2230406  40.8577995  81.6615982
  15.4652576  41.7795601  81.7506027  15.6721792  40.4211693  82.3853760
  64.9799805   5.4852467  65.2759933  64.7961731   4.6557426  64.8351212
  64.8606262   5.2936769  66.2061996  83.4662704   4.7156596   6.8737350
  82.7526932   4.3908262   6.3246245  84.2175751   4.7694807   6.2830772
  66.7486572   5.8989372  26.1700153  67.0990067   5.0398474  26.4054966
  65.8107071   5.7503810  26.0499516  28.8313656  48.1406631  79.8833771
  27.9632931  48.2094078  79.4859390  28.6586742  47.9295692  80.8008957
  25.8423920  38.6083832  80.9904938  24.8989792  38.4504013  81.0257874
  26.1783600  37.9239960  80.4117279  86.1121750  58.7126884  46.2223434
  86.9800110  58.8554497  45.8445663  85.5225372  59.2235222  45.6677246
  80.5239563  41.2122765  85.2215424  80.0553513  42.0384636  85.3401031
  80.6732178  40.8917847  86.1110535  62.9229813  13.4544926  30.3475590
  62.6398239  13.1130514  31.1957779  63.8782768  13.4748726  30.4043789
  64.2049561  27.8757992  36.0461273  64.2136917  28.2169094  35.1518135
  63.6724968  28.5023041  36.5362434  62.6705437  42.6858902  62.6115608
  62.2566223  42.7618637  61.7518349  62.1991158  43.3124504  63.1605682
  53.8618660  62.2412605  75.4472275  53.2876167  61.5282211  75.1678619
  53.4302101  63.0346184  75.1302261  74.4300842  51.3476105  41.4531708
  74.8493042  50.7051086  42.0255966  74.6316223  52.1931229  41.8540764
  71.5940781  38.7467690  58.5495987  71.8993149  38.6839294  57.6445503
  71.9022446  39.6026688  58.8474159  11.6522245  48.4635696  74.5448608
  10.9923782  48.6210594  75.2201691  11.2523680  48.7896385  73.7386246
  13.5813551  38.7376862  39.6024017  13.7332478  37.8150215  39.3978233
  12.6384754  38.8563461  39.4878273  67.6709442  11.4024878  29.7607002
  67.9058151  12.1065044  29.1561928  68.4933624  10.9394236  29.9201908
  49.9055481  38.6536140  46.2622032  48.9573212  38.6757469  46.3910828
  50.1462364  37.7392273  46.4111938  24.3765640  48.3617706  65.5293808
  24.6901894  48.2355232  66.4248886  24.5359364  49.2880440  65.3481369
  55.2747688  66.3219528  87.5513382  55.2715683  66.3638306  88.5076218
  56.0511742  66.8183517  87.2924576  51.5156593  36.7514458   1.0636150
  50.7479630  36.8121490   0.4951163  51.4027100  37.4617271   1.6952604
  78.5450058   7.8146214  26.5077744  78.6179352   8.5724382  27.0879707
  78.1928024   7.1199632  27.0642223  86.2373886  47.6572876  75.8826904
  85.4648743  47.2120972  76.2309113  86.4707794  48.2949562  76.5573273
  78.6106033  68.8174210  17.6768169  78.1349182  68.0368042  17.9607010
  79.5123291  68.5187378  17.5588875  86.4962158  62.5014038  39.3213425
  87.3513260  62.5236168  38.8917770  85.9235001  62.0626373  38.6922874
  31.0412369  69.3615112  74.1448059  30.4649086  68.5973282  74.1343613
  30.8843670  69.7681732  74.9970093  79.5855026  17.3992367   3.1507072
  79.3084106  18.0970879   3.7443860  80.5033493  17.2449551   3.3742890
  73.2348862  60.1063805  39.0656586  73.8055649  59.3624191  38.8730927
  73.1835632  60.5887566  38.2404861   5.4070401  29.9212265  78.6186142
   5.7515392  29.3168945  77.9610901   4.7257519  30.4121189  78.1591568
  69.0135651  48.6654930  26.8625889  68.3754807  49.3756943  26.7940712
  69.4851532  48.8448639  27.6760139  29.0706158  23.0487213  20.0743256
  28.8829384  22.7595882  20.9673042  29.9430790  22.7015533  19.8885460
  73.1720810  27.4916878   2.1617494  73.4715271  28.3290482   2.5158546
  72.5599136  27.7310696   1.4659177  45.7882729  25.6545124  12.2474365
  46.2933311  26.4202080  12.5210381  44.8986588  25.9857788  12.1246290
  72.5101471  64.9322052  13.7006531  72.5708466  65.6837540  13.1109715
  73.2111893  65.0702972  14.3376017  59.2641869  20.9034271  88.2795868
  59.6876411  21.6437073  87.8449554  59.6053276  20.1324615  87.8263016
  82.1460724  35.1310577  74.0766830  81.7361145  35.3224602  74.9202118
  82.9268570  35.6844940  74.0587845  11.9215889  61.1421280   5.0180268
  11.2721596  60.4894638   5.2797642  12.2835464  61.4642792   5.8435187
  67.1114578  34.5040436  82.7908478  67.8929443  34.1699181  82.3505402
  66.3824158  34.0737610  82.3440933  74.5350189  16.7993851  10.1274576
  74.0232086  17.2171059  10.8201294  74.3740845  15.8628330  10.2423611
  78.0510483   2.6449714  70.9788818  78.9362793   2.3103445  71.1224747
  78.1461716   3.2753737  70.2649002  22.6858788  49.8794060  49.6974678
  22.5583935  49.9578285  48.7520447  23.4188957  49.2709351  49.7906494
  47.0941238   6.7333603  65.7082977  48.0126305   6.6381035  65.9602966
  46.8270798   5.8543191  65.4395905  36.8411179   1.1020405  23.7761593
  36.2559395   0.3674758  23.5911980  36.9897118   1.5105072  22.9233360
   0.1444745  35.8754654  68.1961975   0.5727397  35.5329971  67.4116364
   0.3877748  35.2616119  68.8891754  73.9353561  20.4484005  86.0391464
  73.0641327  20.0995178  86.2275162  74.5281830  19.7159195  86.2072830
  80.0929794  63.3472710  28.2102318  79.8952332  64.1649704  28.6668472
  79.3545227  62.7738075  28.4152946  69.0447845   6.4362111  31.2868023
  69.4973602   6.7673364  32.0625420  68.2629089   6.9835386  31.2137871
  71.5714188  56.2254906  21.4874077  71.8731461  57.0315514  21.0685310
  72.2412109  55.5772400  21.2697525   6.2542167   1.1126761  31.9864254
   6.8513250   0.3808182  31.8312569   5.3809443   0.7237393  31.9378891
  40.5506287  31.2505665   4.8183055  40.8836861  32.1476212   4.7938318
  39.6064682  31.3488979   4.9412804  44.3558846  61.6902466  12.2856321
  44.6049652  60.9418449  12.8279285  43.8787193  61.3051720  11.5506086
  74.2622681  44.7640152  49.4232521  73.5947189  44.0957222  49.5781555
  74.0936508  45.0688477  48.5316963  64.9843445  25.2945614  37.0482292
  64.1811981  25.6814556  36.6996460  65.2901917  25.9246941  37.7006264
  19.2652054   5.0839601  60.1369781  18.9600811   4.5608521  59.3957024
  19.3470821   5.9709606  59.7866096  22.7404003   6.9265161  21.2109413
  22.3667145   7.6219645  20.6697006  22.0392399   6.6937761  21.8195763
  80.6895370   6.2561831  88.0899124  80.6574860   5.3042164  88.1845856
  81.5900726   6.4401078  87.8226166  55.4685555  50.5420036   5.6755409
  54.5509949  50.2806435   5.5980296  55.4470406  51.4988594   5.6615472
  35.4951439  33.9795341  15.8759384  36.1722107  34.2875519  16.4783840
  35.8666573  34.1215019  15.0052748  78.7434692  42.0597610  62.8241005
  77.8626251  41.9162903  62.4780388  79.2376022  42.4108582  62.0832939
  66.4309845  33.0491524  25.1601353  65.8690643  32.5107727  24.6028004
  67.0802536  33.4175606  24.5610008  43.3424644  29.6837978  45.9834671
  42.6812973  28.9943752  46.0449905  42.8501816  30.4978752  46.0891495
  69.8442917  27.5358257   7.6220469  69.0201340  27.2162018   7.2548485
  69.5793381  28.1217194   8.3311014  35.6274452  41.0215645  83.5287933
  34.9294357  40.8825607  82.8887177  36.3778572  41.3057518  83.0069275
  25.2491035   0.2579124  21.4101906  25.5729809  -0.6350787  21.2922821
  25.2656727   0.6367041  20.5312862  42.4895363  55.4949799   4.8818049
  43.2830505  55.6841049   4.3810115  42.1694107  54.6685257   4.5202465
  58.0029221  16.8395443  37.8533745  58.4357376  17.0402069  38.6832123
  57.3736496  17.5507679  37.7333298  69.7028809  27.0018883  51.1739159
  69.2167740  27.2328434  50.3823395  69.6415100  27.7798500  51.7282104
  66.9389801  44.4589539  50.5565491  66.5428238  45.0929451  49.9587631
  67.3123245  44.9922752  51.2582703  80.3264847   1.3059403  46.7962151
  80.4134979   2.2388725  46.9919128  80.3627014   1.2572030  45.8409424
  72.4675217  39.2261276  32.9624825  71.6453934  39.0000420  32.5274849
  72.7349625  40.0502968  32.5557213  29.4054108  15.3003321  13.1656113
  29.0867271  14.6862192  13.8270779  28.6168900  15.5856962  12.7040548
  28.6044292  60.3191376   7.0735593  29.0422516  60.2481918   6.2253203
  28.4922600  61.2602997   7.2072196   8.9593353  19.7955971  29.8584766
   8.3276443  19.4817924  30.5055676   9.0782547  19.0565681  29.2618809
  71.4619904  34.9601250   4.1209831  72.3032913  35.3409195   3.8691058
  71.6872482  34.2809219   4.7567320  51.3915100  70.9501572  27.8343430
  51.2880898  71.0730972  28.7779636  50.5740166  70.5375977  27.5555382
  38.7360191  65.7167282   6.9103775  38.0553818  65.1395264   6.5642490
  39.4207649  65.1224442   7.2172570  47.0376625   5.8952475  84.4731140
  46.7524452   6.7418256  84.8169022  47.7582893   6.1080332  83.8801117
   9.0830250  23.2466621  65.7285843   8.3677254  23.3028755  66.3621597
   9.1370802  24.1241112  65.3499146   7.0877452  63.7364693   5.2200737
   6.6904016  62.9087524   4.9494495   7.2989688  64.1805496   4.3988519
  22.1848545  59.3801041  51.6565666  21.3844852  59.5723267  52.1451302
  21.9245338  58.7101021  51.0244598  37.8486710  31.7338104  79.3827438
  38.1798630  32.0997314  80.2028961  37.4418716  30.9055099  79.6370392
  19.5760288   6.7501860  18.5350170  18.8657627   6.4461675  19.1001072
  19.9615898   7.4863749  19.0099926  44.6641922  27.0271454  38.4794693
  43.7769127  26.7041416  38.6364098  45.0426483  26.3986168  37.8646889
  15.8718691  47.8621178  29.8756390  16.2434196  48.6887436  30.1836548
  15.0393782  47.7852707  30.3417797  33.6214409  17.7326527  87.5395889
  34.3522835  17.2895641  87.1085739  33.7453308  17.5486526  88.4707336
   1.8197095  10.1639595  38.0552902   2.4295366  10.7847881  38.4539299
   2.3497458   9.6813469  37.4209557  47.7494354   9.2107801  50.9727249
  48.1948929   8.5248795  51.4700584  48.2441177  10.0069523  51.1667061
   2.5323281  11.9447975   7.1425538   2.9175353  12.2262068   7.9724069
   3.1134572  11.2504892   6.8319798  85.4112549  51.4694405  48.7203407
  86.3068390  51.4491119  49.0576019  85.4935684  51.1994438  47.8057060
   6.6209636  50.8862381  41.4250221   6.7735462  51.4149246  42.2082443
   6.9438052  50.0155373  41.6571541  16.2193356  65.4715424  85.3976822
  16.9387512  65.9644165  85.0030365  15.4387617  65.7741547  84.9336166
  66.5487289  61.8513832   7.2766485  67.4812088  62.0671005   7.2901754
  66.1547852  62.5261726   6.7237482  51.5109901  17.5984287  35.9414291
  50.9561729  17.0115414  35.4276505  50.8957176  18.1817131  36.3857880
  18.7715378  16.8302841   3.0084939  18.1206818  17.5292854   2.9451480
  18.9929447  16.7927818   3.9389803   1.5306419  29.3324623  40.5118446
   1.4290121  28.6460285  39.8525200   0.6496128  29.4584656  40.8641853
  75.3817368  15.3840427  44.8830452  75.6085815  14.6644611  45.4720917
  74.8520126  14.9753113  44.1985283   9.6069479  42.1050186  80.5206985
  10.3332767  41.4817657  80.5358887   9.3140364  42.1093063  79.6094284
   6.5833654  45.7069817  28.0777435   6.5278873  46.2039185  27.2615299
   5.7050323  45.7651558  28.4537487  70.6012878   7.8930788  67.3138733
  70.1361923   7.3623424  66.6671600  70.2492828   7.6065865  68.1566391
  15.9544573  37.2276154  70.8836212  15.9487543  36.2869148  71.0604935
  15.2019472  37.3678322  70.3089066  81.4662476   4.4399672  59.3271790
  81.5941620   5.1236658  58.6695862  81.9015350   4.7765398  60.1104240
  61.4665260  33.6854515  21.1133003  61.5959435  33.8611717  22.0452900
  61.4500427  32.7305145  21.0496445  19.4742699  56.1343307   7.8234220
  19.9654922  56.2205162   8.6404324  18.7009678  55.6229973   8.0616941
   3.5466216  47.5880737  81.3931580   3.6720955  47.7018814  82.3352509
   4.3023133  47.0725174  81.1114349  38.7663879  39.7028809  77.8065796
  39.5965195  40.1602211  77.6725845  38.2368889  40.3131027  78.3199005
   1.5888604  70.8026428  82.1216583   1.4104716  71.5998154  81.6227341
   1.4664090  70.0929871  81.4910812  74.1345062  13.9397678  68.2280655
  73.8763657  14.7652369  67.8179474  75.0648193  14.0504398  68.4242630
  78.0604706  44.0131760  40.4628754  77.5449371  43.3829346  40.9661140
  78.0091400  43.6983185  39.5604019  33.9229507   4.3280277  33.1048470
  33.5105820   3.9824810  33.8965416  34.7506256   3.8518097  33.0385208
  43.7803001  37.1420670  26.7931538  44.3042336  36.5757065  26.2266216
  43.8095436  36.7166786  27.6501369  21.7478943  53.4551582  17.2386227
  22.5971737  53.3530807  17.6682014  21.3237514  52.6031914  17.3410244
  65.5183334  44.4430161   6.6184597  65.9250259  45.2559853   6.3186073
  64.6178741  44.6894341   6.8298240  54.2535515  34.3429642  29.9110680
  54.2363510  33.3859711  29.9209423  53.5748672  34.5882378  29.2822094
  82.5959854  24.9865284  60.2865372  81.7734451  25.4194889  60.0580597
  83.1053772  25.6614647  60.7351074  73.9925537  17.0068054  53.1180115
  74.3348465  16.1710644  52.8008270  73.3494110  16.7648125  53.7843742
   3.4501250  39.7212715  60.0541725   4.2253962  39.4199295  60.5278587
   3.5699143  39.3907623  59.1638680  12.7093554  61.5500832  60.9368324
  12.5967464  61.8189201  60.0250893  13.0666008  62.3239899  61.3723564
  18.7843533  43.5610504  43.8664207  18.8650951  44.2509613  43.2078362
  19.2609119  43.8974380  44.6253471  79.4642715  30.7510986  77.2278366
  79.8838730  30.0305042  77.6978455  78.5490189  30.7178078  77.5061188
  46.2334595  50.5524902  44.4342079  46.8197250  50.1161728  43.8160248
  46.3801422  50.0989647  45.2642860  22.1570988  59.9514847  46.8348160
  23.0691433  60.0877457  46.5782280  21.7284698  60.7867928  46.6483498
   0.4095000  29.9076900  37.3482666   1.1799567  29.3513279  37.2338600
   0.3610831  30.4188347  36.5404205  36.6655693  51.6115952  67.3031998
  37.3820305  51.0860519  66.9472275  37.0251503  52.4965706  67.3644333
  19.4790134   9.9434452   1.0121891  19.0290070  10.7678394   1.1968501
  20.2086315   9.9248991   1.6314992  69.9964294  24.6144505  74.6804657
  70.5989838  23.9008045  74.8899002  69.1659012  24.1784801  74.4897079
  73.8806305  64.2789154  32.8427429  74.0152740  65.0413513  32.2798996
  72.9331589  64.1428680  32.8391228  68.2084198  26.7884750  68.5007324
  68.4509888  26.9242401  67.5847855  68.9447021  26.3041058  68.8742294
  78.2589645   1.5667746  25.2887993  78.3367310   2.5136642  25.1722469
  79.0885315   1.2165629  24.9641323  29.8715267  64.1926575  10.8326845
  30.8068504  64.0081329  10.7469435  29.8342018  65.0376816  11.2807608
  36.1939392  56.3352394  62.4989471  36.6142998  55.4876328  62.6441765
  36.9067154  56.9121971  62.2245407   0.9128549  14.0730419  11.2135029
   0.5995252  13.5424204  11.9459629   1.2749518  13.4381266  10.5954418
  78.8811035  53.7332115  50.4241676  79.5612488  53.6747322  51.0951500
  78.4944611  52.8579636  50.3981361  55.5940361  28.7911320  73.6943359
  56.2090225  29.4247246  73.3247604  54.8174248  29.3080559  73.9085770
  23.8323765   2.4074202  60.9032555  23.3968239   1.6443257  60.5235023
  23.5354252   2.4245834  61.8130646  31.4346333  64.9646454   4.9050970
  30.5444698  64.6249084   4.8133245  31.5203857  65.1628799   5.8376107
  42.1570129  57.8839417  14.6374483  41.7732925  57.0113869  14.5500479
  41.4206047  58.4828835  14.5141373  60.2941208  51.4130402  58.5866623
  59.5654449  50.9941673  58.1286125  61.0587044  51.2258263  58.0420570
  47.0861855  43.1113281  63.5590172  47.0496216  42.2332726  63.9383736
  46.1997185  43.4559555  63.6669121  65.5742569  62.0067902  38.5456848
  66.1011505  62.7988625  38.4396477  64.8244476  62.1384468  37.9654465
  27.3482990  51.6295776  75.9856873  27.8432808  52.3914680  76.2869339
  27.9896736  51.0987206  75.5133972  19.7548370  41.4439049  14.3312502
  19.3264885  40.6072769  14.5123625  19.0416355  42.0266418  14.0704975
  61.4825058  30.4370975  77.6346741  61.7373505  30.7173519  76.7556229
  60.5530014  30.6572475  77.6961975  83.5731964  67.9398727  31.9305725
  83.6527786  67.2504349  31.2713528  82.7605591  67.7359772  32.3934822
  46.9771957  68.0232544  38.5459976  46.3341522  68.1422043  37.8470192
  47.1641159  67.0844879  38.5422745  72.3679428  64.4381943  87.3239288
  72.1032333  63.8194733  88.0046234  72.4833069  65.2682419  87.7864685
  34.7275085  53.3267746  36.1837463  34.1284370  52.6622505  35.8435135
  34.9449921  53.8652802  35.4228630  78.7957153  38.2913437  62.9007835
  79.0076599  37.5686531  63.4915695  79.5339279  38.8946877  62.9859467
  10.1880941  51.8457451  60.3859329   9.4416399  52.0997849  60.9286156
   9.8606720  51.1219635  59.8519249  16.6323357  45.5749321  32.5060959
  15.7736330  45.2975197  32.8253174  17.2177544  44.8531914  32.7354698
   7.8071141   3.4093082  62.0996132   7.9521055   2.8357952  62.8521385
   8.1992197   2.9410772  61.3625603  26.5241547  19.1792736  83.8201447
  27.2885876  18.8556633  84.2967453  26.8130188  19.2279701  82.9088669
  42.0817070  27.8166504  27.6680508  42.7584724  28.0128288  28.3159180
  42.2537460  26.9114990  27.4085560  54.1271515  54.1212425  75.8950348
  53.6821747  54.2037239  75.0515747  54.9442863  53.6662750  75.6912689
  70.9864578  11.6947727  12.3137264  71.0182266  11.2535505  13.1625757
  70.6568832  12.5713844  12.5116310  16.0932407  22.9372540   0.4598536
  17.0315895  22.7585831   0.3981141  16.0413284  23.8279953   0.8064303
  30.2912846  55.3495369  59.2567368  29.5228024  55.1854668  59.8033142
  30.6313229  54.4780922  59.0537872  78.7473602  39.7305603  73.1925049
  78.8567047  39.1227112  72.4612045  77.8035965  39.7466393  73.3515167
  85.3277817  65.8942184  47.3502579  86.0001755  65.3344955  46.9618797
  85.2773972  66.6496658  46.7646065  31.5590439  70.9151535  49.9468231
  30.8025131  70.8193512  50.5253716  31.3628674  71.6916351  49.4225960
   5.5283728  55.7293053  79.0659332   6.4057589  56.1065063  79.0015640
   5.1302814  56.1750908  79.8136215  40.6661072   4.7003236  79.5564575
  40.7044182   3.7829733  79.2858429  40.3237190   5.1617746  78.7909088
  12.5616627   5.4335628  23.1723843  12.2834044   4.7621651  22.5494652
  11.9607582   5.3384461  23.9113693  82.3750992  15.9516163  12.5461597
  82.2121964  16.4851475  13.3240004  83.3031769  16.0855770  12.3539066
  18.8623905  61.8939705  15.3334980  19.5469418  62.1851540  14.7311401
  18.2570648  61.3950233  14.7849884  75.0723648  38.7921677  24.6651726
  75.1419983  38.7049789  23.7144985  75.9404373  39.0844421  24.9431076
   3.9468126   8.2348890  81.7711868   3.2665403   8.9048214  81.8394012
   4.6303101   8.6409931  81.2381363  86.0283127  57.9151268  60.9187622
  85.2510147  58.4671555  61.0041962  85.7128983  57.1230278  60.4836464
  59.1118469  50.7088928   0.4858713  59.2432747  49.8189850   0.8130134
  59.2241821  50.6347237  -0.4618161   3.9742844  18.6385841  62.4480705
   3.3791575  19.2792034  62.0586319   4.7754817  19.1319256  62.6239395
  24.8813152  39.3495331  19.2687874  25.5833473  38.9722328  19.7989063
  24.1920071  39.5597572  19.8987827  71.8160095   1.5203317  70.9923859
  71.7481461   0.6010275  71.2502747  71.2356110   1.9822692  71.5973511
  59.3841438  20.6930141  65.8083954  60.3202477  20.6266899  65.6198807
  59.2902374  21.5296478  66.2638702  84.4863434  64.5917511  83.4177933
  84.7327271  64.7328644  82.5036697  84.0883789  63.7212524  83.4269485
  16.7869053  63.0413589   3.3632421  17.0680122  62.3600082   2.7525265
  16.1485081  63.5565414   2.8700221  81.5907440  15.2345371  30.0308151
  80.6401672  15.3410521  29.9948311  81.9299622  16.1279449  30.0854359
  58.6292839  55.7614861  28.2918930  59.3195267  56.2858200  27.8858509
  58.1806259  55.3450165  27.5560303  18.3098621  61.7758827  78.9343643
  18.0487156  60.8618546  79.0465698  18.8069458  61.7842674  78.1163940
  73.9293442  62.0854416  27.6128387  73.6112976  62.0924377  28.5156288
  73.1446304  61.9429436  27.0835476  27.6925907  10.2232199  73.8455963
  27.3089867   9.4794140  73.3810196  27.7862091  10.9011602  73.1763687
  20.5901375  43.5398788  37.1524696  20.1287136  42.9471741  36.5591545
  20.0122490  43.6165886  37.9116745  47.3228264  58.9396172  55.5283928
  46.9223976  59.0549736  54.6666603  47.1615982  58.0216446  55.7464752
  63.3809052  23.4794998  52.3786850  63.2948265  23.4478302  53.3314819
  62.8579216  22.7411766  52.0662766  39.6232872  51.8937454  58.3448944
  39.7278748  51.3426933  59.1205444  38.7482643  51.6841011  58.0183678
  63.6512413  43.7408371  58.4973602  64.1950912  44.4636269  58.8104591
  63.1408806  43.4761429  59.2626724   2.0234571  21.2481194  72.4250031
   1.1156813  21.5350342  72.3257370   2.5375545  21.9214516  71.9794083
  72.0737305  40.5253563  51.1134148  72.0793762  39.8664551  51.8077087
  72.7423096  40.2285194  50.4960594  17.1330833  46.7701607   2.2156382
  17.3473148  46.0732117   2.8357995  17.5971107  47.5382118   2.5488133
  81.1386871  31.7975826  41.0977440  81.8093719  32.3366280  40.6784096
  80.3227310  32.2777138  40.9566193   1.5625691   3.4155216  69.3104553
   2.2558355   3.9599922  69.6835022   0.7771940   3.6585522  69.8007126
  72.9432755  19.2785702  66.0113831  73.5796967  19.7490425  66.5497665
  72.1076889  19.7056885  66.2000504  29.6768112  47.3166122  86.5018387
  29.7105522  48.2629700  86.3621979  28.8152409  47.1622429  86.8892670
  17.4676132  70.7141647  31.5699253  18.2452965  71.0214691  31.1040878
  16.7823601  71.3377228  31.3294411  76.4668198  70.8240662  80.1834946
  77.4068909  70.9701157  80.2891846  76.0952148  71.7027206  80.1053925
  48.0168686  12.9089947   9.2352161  48.0339622  12.3142805   9.9850531
  47.3208466  13.5332336   9.4404335  77.8273087  32.7541542  55.8643112
  77.6525116  33.6825142  55.7099724  78.4671097  32.7460213  56.5762253
   1.8830075  37.7936058  46.5996017   1.0211926  38.1946678  46.7121010
   1.7225846  37.0344887  46.0390320  79.0463562   2.7886093  67.3421021
  79.1081314   3.5320687  67.9418411  78.2610855   2.3188639  67.6230316
  38.3642082  46.0264931  42.6103210  37.9271584  45.2715912  42.2161827
  38.6249123  45.7249031  43.4805565  77.6395264  57.2783089   6.1714449
  77.5452728  56.4873619   5.6406441  76.8566055  57.2920074   6.7219706
  83.5770798  44.4514122  88.3283386  84.2211533  45.0065422  88.7679138
  82.7484512  44.6571350  88.7611160  10.1590548  26.4772739  89.1975937
  10.0979137  25.5336037  89.3458481   9.5869083  26.6394482  88.4475403
  52.8296509  47.0718422  78.6314926  53.0565643  47.7974815  79.2130356
  52.4652138  47.4935265  77.8532944   8.0220146  52.8924332  53.0072250
   7.8873110  53.5577621  53.6820755   8.7627554  53.2171211  52.4952545
  11.1289434  47.1799507  12.7004004  10.2744579  47.5657921  12.5074930
  11.6250181  47.8889656  13.1095972  58.5825310  20.3456573  48.3898964
  59.2112579  19.6352539  48.5174179  57.8481140  20.1209469  48.9611855
  59.7541504   2.8579614  23.8479366  59.6708946   2.2181473  23.1408730
  60.6623650   2.7764239  24.1390190  21.0338650  25.3878937  73.8869171
  21.2958679  26.2240143  74.2722626  20.1641502  25.5538521  73.5232086
   6.1361647  42.2674332  62.2676468   6.1136341  43.1897964  62.5225410
   5.3537240  41.8889580  62.6686134  23.8709221  28.1113052  84.6663666
  23.8829346  27.8479500  85.5865479  24.4996471  27.5275307  84.2419357
  11.2687378  52.8513603  84.8402405  10.3874502  52.8544312  85.2138062
  11.4717550  53.7758827  84.6978683  63.2304077  58.8328781  57.1124153
  62.7812920  58.7404747  56.2721863  62.6320419  58.4405670  57.7482491
  25.2051182  25.5794697  42.1377792  24.3244286  25.3348198  41.8535881
  25.4055653  24.9699192  42.8480606   9.3895025  64.7113876  55.7059364
   9.4273424  63.8425484  55.3060265  10.2844458  64.8780594  56.0017891
   5.0307598  44.2010918  73.8378983   4.1429911  44.0233727  74.1485672
   5.1198530  43.6666527  73.0488052  84.5489883   2.0770376   4.4658618
  84.4009399   3.0227044   4.4711900  85.3647461   1.9595708   4.9526615
  72.1876984   5.9936070  52.5017891  71.7972565   6.7262220  52.0252800
  71.6612930   5.2353525  52.2484589  21.6039124  40.6871719  12.5367308
  20.7575359  40.8742561  12.9427814  21.9841995  39.9985428  13.0820780
  79.1843262  69.9174728   1.7371467  79.0537338  70.0476608   2.6764164
  80.1190414  70.0727997   1.6014915   2.5844464  68.7710342  83.8385468
   2.3728013  68.9153900  84.7608261   2.2090769  69.5261536  83.3856354
  51.0799980  55.0569496  15.0800810  50.8611526  55.8163071  14.5399761
  51.6407471  54.5190544  14.5210972  86.5579834  39.4608192  17.8133583
  85.8312531  39.8752174  17.3482018  86.5679092  38.5604515  17.4885979
  59.8060913   4.0043149  84.1572342  59.4513054   3.3419540  84.7502213
  59.3327255   3.8690765  83.3363419  38.4936447   5.5208883   4.0930805
  39.1993866   5.0196152   4.5015998  38.6633072   5.4514694   3.1535978
  76.5289230  31.6796703  29.6628151  76.5030746  31.2229004  28.8220272
  75.6401825  31.5959415  30.0083046  74.1034698  65.6530151  16.3480225
  74.9069366  65.1897964  16.1111450  73.6363602  65.0447998  16.9208393
  14.6185732  24.8080807  69.1911240  14.9979525  25.4235973  68.5638733
  14.9722137  23.9563599  68.9347229  34.9515381  38.1763763  17.4764175
  34.9622231  39.0899887  17.1910534  35.1238480  37.6745720  16.6797161
  63.5971603  57.7664070  42.8071136  64.0657272  58.1993332  42.0934982
  63.4945107  56.8616142  42.5120735  38.6233978  66.6505585  16.6103077
  38.4333916  66.6303177  17.5482407  39.5379562  66.9280319  16.5571384
  40.9094925   8.9128113   6.1911845  41.5082054   8.2150660   5.9248619
  41.4576073   9.5236940   6.6837530  63.6081009  31.9606628  34.1105156
  63.6211777  32.4247360  33.2734375  62.7395325  32.1403236  34.4704361
  23.2260590  55.9437485  80.2325363  23.1210060  56.5370560  79.4887772
  24.1150208  55.6006737  80.1415482  26.5143528  45.1824608   0.9954552
  26.0477257  44.8641663   1.7682296  26.5060883  44.4420662   0.3888381
  72.4856644   9.7423687  76.2172699  72.2339325   8.8784809  75.8908386
  72.2865295  10.3385601  75.4953766  53.4147491  54.4515343  55.3264923
  53.4550629  53.7077789  54.7252960  53.9811821  54.2006607  56.0561790
  75.2956009  67.2597198  50.8599815  75.4432983  66.7117844  50.0891495
  74.8706055  68.0458908  50.5171280  57.2054558  34.5586624  39.7119064
  57.6138191  33.7131767  39.5258293  57.7200203  34.9194489  40.4339104
  53.7034950   2.5343053  85.9502335  53.4161453   3.4471865  85.9326324
  53.7129402   2.3040481  86.8792725  16.5159111  65.9614487  32.8168335
  15.8177586  65.4604416  32.3951645  17.2519703  65.9062729  32.2074051
  85.9831085  44.7672882  31.0444126  86.0107803  45.0985146  31.9420509
  86.5080872  43.9672432  31.0680447  43.6761169  49.5871239   2.2392685
  44.4690552  49.0545769   2.3015263  42.9586182  48.9589806   2.3220899
  81.9314804   6.8370118  22.5654812  82.4667358   7.1510749  23.2942448
  81.1238708   7.3474646  22.6240768  58.9179916   3.5477343  39.3331261
  58.7237968   2.6104493  39.3290138  59.2754860   3.7144375  40.2052765
  13.5733414  58.8326912  30.0615520  14.3391390  58.4850388  29.6044693
  13.8490429  58.8972816  30.9759083  86.9216919  61.1681213  19.8971882
  86.5754776  60.2962189  19.7070522  86.7788086  61.2829247  20.8366756
  13.3454237  44.4081573  24.0997124  13.3935118  43.7916145  24.8303223
  13.9569807  45.1060524  24.3346043  77.5712891   4.8128915  16.3561802
  76.8702240   5.0935612  15.7679949  77.5926666   5.4823933  17.0399513
  52.4764328  66.3126526  51.0028114  52.6743698  66.2900009  51.9390488
  51.6083946  66.7127380  50.9511337   0.9937279  51.1563416  69.1014709
   0.6038985  51.9225769  69.5223618   1.3022320  51.4791603  68.2548065
  75.0722504  26.8610802  36.9159775  74.7852020  27.6016922  37.4501457
  76.0044937  26.7704964  37.1133308  22.2776890  42.7364006  69.2350311
  21.5891438  42.7839508  68.5718002  22.3003445  43.6124802  69.6199951
   7.7271008   8.2453775  19.5863400   8.5932741   8.6087866  19.4021931
   7.3594799   8.0535660  18.7236137  54.8316765  60.5409851  46.8561554
  54.4986992  60.2418213  46.0100708  55.7837181  60.4923592  46.7696381
  82.5839157   6.9418688  54.9620132  83.1149826   6.5143490  55.6338959
  81.7766037   6.4284620  54.9322281  64.1570816  71.6689911  19.2534103
  64.9270248  71.9519272  18.7600842  64.4569473  70.9070206  19.7491112
   1.7247369  14.8547850   6.1887078   0.9014317  14.6562471   6.6347828
   2.0663023  14.0004005   5.9249039  69.6934738  34.8947792  45.4990883
  69.1926193  35.6764069  45.7323914  69.9214706  34.4967880  46.3392410
  45.8816223  18.5888081  84.9646606  46.6659470  18.1396942  84.6494370
  45.9268684  19.4579582  84.5662079  21.7843170  26.6342010  17.0284271
  22.4314518  26.9777508  16.4124546  21.1352863  26.1986980  16.4758625
  59.0595894   3.0105925   4.0237579  59.3072052   3.0924919   4.9447412
  59.5229454   3.7251019   3.5867107  25.2762699  42.8843117   2.8733318
  25.6366825  43.3076859   3.6524899  25.4340954  41.9506607   3.0134084
  52.8945465  31.0564117  77.3877182  52.3000717  31.7987595  77.4961166
  53.7473106  31.3897114  77.6668930  41.7993317  15.7323236  13.5053635
  41.0981712  15.1225195  13.2756987  41.3509827  16.5619011  13.6697226
  76.7352676  17.5844002  76.1537781  77.6869812  17.6209679  76.0582657
  76.5960464  17.2848148  77.0521698  25.3770714  29.5823326  78.2872009
  26.1381359  29.1207809  77.9350891  25.5055008  29.5672798  79.2356262
  21.3784485  61.3528976  21.8069878  22.0763569  61.8836555  22.1909828
  20.9839020  60.9003792  22.5525036  64.4924393  42.6783600  47.3965034
  63.7829285  42.1003418  47.1159363  64.7402039  42.3511276  48.2612381
  10.6572294  51.3018150  20.6243324  11.2686729  51.6125793  19.9566536
   9.9252901  50.9364357  20.1273479  68.6532288   7.1692734  24.2402992
  68.1091080   6.6000853  24.7845345  68.2176819   8.0209599  24.2743244
  39.3618164  48.6135406  55.6612473  38.7832031  48.6580505  54.9000282
  40.1855278  48.2690773  55.3161697  66.3236542  51.2210159  60.9980125
  66.2961960  50.3691063  61.4335899  65.4318466  51.3547592  60.6770363
  41.4637337  47.6861191   2.4677358  41.4945717  47.0694847   3.1992018
  41.1252670  48.4953957   2.8508086  63.7570000  38.8848190  25.5987186
  63.2960091  39.0427361  26.4226017  64.6628036  38.7179070  25.8592739
   5.1338921  46.0114975  32.1133881   5.4243240  45.1197739  31.9217968
   4.5182023  46.2190895  31.4104900   6.9895506   6.1876578  88.8790970
   7.8631430   6.3829679  88.5400925   6.4495959   6.0719066  88.0972519
  82.5398560  39.2492943  71.2007446  83.0378036  39.8310928  70.6264725
  82.6950302  39.5914383  72.0811386  50.0949631  19.7944736  70.4355392
  49.7274132  20.2992268  71.1610489  51.0151367  20.0561848  70.4036331
  46.2382164  30.3008213  64.9923477  47.1571922  30.4887333  65.1831436
  45.7933655  31.1406841  65.1062164  58.3583755  38.6052208  82.3126450
  57.4550247  38.9184914  82.3579636  58.5195122  38.2138557  83.1711884
  51.3522186  44.3672676  60.1496468  51.8161163  43.8064613  59.5279312
  51.9177933  44.3881073  60.9216080  52.8246422  18.6891251   1.2727975
  53.4922333  19.1880455   1.7435745  52.0043831  18.9117184   1.7130940
  15.8705158  35.6607704  63.4013977  15.0129089  35.8925056  63.0449715
  15.7597198  35.7208481  64.3502655  63.4643593  70.3039246  72.6064835
  62.5402031  70.3633423  72.8486404  63.8883667  71.0011292  73.1068497
   3.5738013  60.1437836  84.0179367   4.2349315  59.7837486  84.6091309
   4.0080290  60.1783409  83.1655960   6.0611582  16.4619045   5.4690971
   7.0013452  16.4170303   5.2951236   5.9154000  17.3596001   5.7676406
  65.7144394  31.2202091  82.6056747  65.5925980  31.0282745  81.6758652
  66.5153580  30.7531986  82.8436966  54.4506569   4.5118093  53.4764366
  53.4952126   4.5689178  53.4864349  54.6336060   3.5898223  53.2956047
  81.1664200  36.7763329  56.9102402  82.0159836  36.3645287  57.0679817
  80.8519135  37.0179291  57.7814178  16.3632030   9.6138277   3.9329424
  16.7189789   8.7328691   4.0494218  17.1330490  10.1822996   3.9127400
   6.7961569  33.2978706   1.1514233   7.5093265  33.0211678   1.7268004
   6.0002837  33.0279350   1.6096299  73.0144348  33.0946999  48.2331276
  73.6484375  32.7369118  47.6116257  72.5412521  33.7615089  47.7354431
  49.7578354  61.4099388  26.0272236  50.4436035  61.1049576  26.6213112
  50.1166954  62.2064095  25.6359577  69.6329880  69.0382462  86.7712097
  70.3076019  69.0157852  86.0925217  70.1212082  69.0992203  87.5922775
  31.8285637  13.2796021  88.5020752  31.0678577  12.9778175  88.9985504
  31.5552464  13.2220612  87.5865326  27.4298820  57.2569466  77.5864868
  26.8714085  57.1951485  76.8115616  27.6317825  58.1895218  77.6624603
  10.0295753  21.0050812  11.9188499  10.3551826  20.1448040  12.1836796
  10.5742369  21.2471600  11.1698685  73.8876648  33.8092194  13.2534628
  73.2358856  34.2647591  13.7862778  74.1384201  34.4466972  12.5848989
  22.2883720  71.0181427  16.0946064  22.5827713  70.8664246  16.9926834
  21.4110126  70.6367798  16.0625057  80.1737213  13.7213783  39.0706863
  80.1667786  14.5469246  38.5862732  81.0895233  13.4432526  39.0568504
  39.8300972  48.3426437  85.1138840  40.1530800  49.1833153  84.7895584
  40.6161804  47.8797798  85.4038239  11.5765772  42.7936363  75.3006592
  11.2928534  43.6402588  75.6455688  12.2212133  43.0129395  74.6279221
  44.9640198   5.3827963   5.6992340  45.2528572   4.7623119   5.0300531
  44.5899658   6.1118150   5.2044125  40.8977394  63.6169624  67.6185837
  41.2486725  62.8867073  67.1088791  41.6678925  64.0243225  68.0150070
   5.3062453  45.1149864  35.9316902   5.0116153  45.5528641  35.1331367
   5.0788174  45.7223167  36.6357193  61.7943420  69.5162277  23.3917446
  61.5315285  68.7083740  23.8327961  62.7350998  69.4149551  23.2470169
  61.9541130  20.8980942  18.5178375  61.8259659  21.8245182  18.3139992
  61.2279816  20.4538670  18.0800838  66.4052811  60.5549393  77.6295242
  65.5038071  60.2835541  77.4565048  66.8853149  60.3093834  76.8386307
  19.5495739  53.9995842  33.7411232  19.1678295  54.6742249  33.1795540
  18.8026924  53.4708214  34.0218582   4.7040558  46.0542564  59.7831345
   4.3498063  46.6081085  60.4788284   5.5555682  45.7688828  60.1143761
  51.2271233  34.5209236   7.7407432  51.1498260  33.6365967   8.0988226
  50.4489975  34.6265526   7.1933894  79.2368317  24.4338570  56.6067581
  78.7421722  25.0918636  56.1183243  79.2863922  23.6832886  56.0147934
   3.2602143  54.5128288  57.4687195   2.6687126  54.8439560  58.1445236
   4.0691066  54.3081055  57.9377747  63.6907845  63.0848923  36.6490784
  63.8204079  64.0006485  36.4024658  63.4590302  62.6468163  35.8301697
  26.9596233  39.4049454  17.3182411  27.5404224  39.0697136  18.0012665
  26.2470016  39.8287544  17.7965584  75.4020996   4.6157284   7.9875684
  76.2981567   4.7523789   8.2952080  75.0088425   4.0400696   8.6434650
   8.3585911  62.2370148   8.8264847   8.6179285  63.0668907   8.4261341
   7.4024563  62.2728119   8.8539810  64.0029907  39.0438461  12.2507877
  64.0645828  39.5350456  13.0700312  64.4112854  39.6133957  11.5987568
  76.8082962  46.6909637  39.3186607  76.2367401  46.7790260  38.5559044
  77.3411636  45.9183235  39.1307335   0.4723843  50.0918655  30.3100758
   0.2622036  49.1690369  30.4530640  -0.3783642  50.5177536  30.2048283
  79.4218903  63.7631416  67.1807556  79.2177963  62.8479652  66.9883194
  80.3369522  63.7505798  67.4613495  63.4063110  17.9427319   7.6201572
  63.3001060  18.4045238   8.4518433  62.9372787  18.4832497   6.9844837
  73.7426453  54.5686913  20.9915504  73.5408554  53.6370277  20.9048328
  74.6755142  54.5928802  21.2046509  50.2860413  64.4396820  26.3663788
  49.4763794  64.8025665  26.0072155  50.2394829  64.6311264  27.3030815
  21.0632610   8.9164429  66.2851410  20.1528988   8.8651533  65.9938660
  21.3659534   9.7702274  65.9758453  67.1303253  38.4814186  85.2396317
  67.2819138  37.8663025  85.9571915  67.9658966  38.9361267  85.1334000
  45.8487701  70.3623276  56.8074608  45.2532005  69.9121704  56.2083893
  45.3095169  70.5692673  57.5707512  50.1319504  33.5311241  34.7656784
  49.6168442  32.8618469  35.2161980  50.3697777  33.1284409  33.9305038
   1.9189725  24.0943718  41.4564514   2.8256357  24.3124561  41.2405052
   1.8608515  23.1488476  41.3191948  57.4272614  51.5203400  17.7873936
  57.7357521  52.0150833  18.5465336  58.1699982  51.5202980  17.1835938
  63.0401764  15.3001537  24.7779579  63.1637383  16.2331867  24.9523506
  62.3106651  15.0454540  25.3429127  10.5202360  36.2289734  80.2379227
   9.9301252  35.4953651  80.4106140  10.0000038  36.8360558  79.7115784
  71.2540894   6.5374751  82.4741135  70.6652603   5.9178472  82.0433273
  72.1319275   6.2354074  82.2408981  29.6710415  34.4385262  81.8681259
  30.2527485  33.8488541  82.3478470  30.1789589  35.2430458  81.7632370
  23.0970116  39.6362801  71.2353210  22.8655243  38.8302650  71.6968231
  22.9018803  40.3345795  71.8602524  59.6447868  24.6855335  55.7325134
  59.6733780  25.0590363  56.6133728  59.4105301  25.4219036  55.1676102
  78.4969330  66.7284775  38.7128487  78.5009613  67.6732483  38.8665657
  77.5697632  66.5011826  38.6426697  73.3949814  38.1939316  26.4492455
  72.9524918  38.9814415  26.7658882  73.8092880  38.4649925  25.6300335
  10.6304779  55.5603142  47.8404999  10.7471199  56.3960342  47.3886147
  10.2308712  54.9877281  47.1857529  38.6122742  31.4519062  70.9245758
  38.0061989  31.1014938  71.5773544  38.2995415  32.3415947  70.7605972
  75.3198700  11.8612919   2.6364782  74.5744705  11.6135817   2.0894434
  74.9977341  12.5926294   3.1633594  55.4062576  69.3311768  17.9392033
  54.8129387  69.4016800  18.6870232  54.8293266  69.3255386  17.1754284
  76.6127167  37.1638222  74.2913895  76.0543900  37.6643448  73.6964340
  77.1193085  36.5889473  73.7176971  74.7966003  54.4933510  79.6115341
  75.2901230  54.7317429  80.3962860  75.0089798  53.5714417  79.4658813
   4.2090182  40.0616760  17.2981167   3.7448680  40.4399338  16.5513115
   4.9477396  39.5936470  16.9089222  20.7387295  28.2000484  66.7753372
  21.6305122  27.8735332  66.8951111  20.1791058  27.4596024  67.0094147
  69.9859619  18.9764729  36.0960083  69.0894852  18.9160271  35.7660027
  70.1801834  18.0984230  36.4239426  44.9126663  39.4963150  26.7927074
  44.4375687  38.8242455  26.3040009  45.5701294  39.0105438  27.2907047
  35.3330040  52.7760468  52.6146698  34.5999298  52.1950951  52.8179817
  35.7638855  52.3647537  51.8653984  70.4373779   8.8350382  87.2311096
  70.1887054   8.5024824  88.0935516  70.9601135   9.6151018  87.4168015
  20.9821663  51.0049324  56.1333046  21.4353485  51.6683426  56.6536369
  20.1959324  50.7996483  56.6391945  49.4371109   0.5575716  23.1020355
  48.5645218   0.1657530  23.1380138  49.2833328   1.4592615  22.8200073
  29.0101814  53.5894890  77.0063248  29.9278336  53.6957932  76.7556305
  28.7959576  54.3943977  77.4779816  65.3976288  13.2851934  18.7896729
  64.6600876  13.3419924  19.3971500  64.9914627  13.2068815  17.9264641
   4.5585136  22.4255142  57.0386887   3.7558634  22.6133919  56.5521851
   5.2578459  22.7925110  56.4978752  40.8360634  17.5314407  15.8950062
  40.8023071  18.0333443  16.7093678  41.7081871  17.1369457  15.8927660
  67.9049683   6.6228523  38.6130371  67.3107147   5.9393115  38.3034210
  68.7482986   6.4048319  38.2161942  15.8251810   1.8692790  19.2218037
  16.4173393   2.6127539  19.1085548  15.6387711   1.8523753  20.1605244
  68.8005371  45.9329872  72.9510498  68.5782700  46.5994110  73.6012039
  68.0221024  45.3782272  72.9009399  23.6704521   3.6895442  12.1713581
  22.7578068   3.9774976  12.1515198  23.6345444   2.8045695  12.5343485
  34.5481186  56.6958656  28.0535641  35.3478699  56.1717033  28.0101757
  34.5054550  57.1383247  27.2058372  34.1702042  49.2992668  30.9746494
  34.0979958  48.8658905  30.1242371  33.3055916  49.6824913  31.1223545
   7.1719103  40.1201248   9.9438992   6.2715335  39.8037033  10.0176086
   7.6804028  39.3434143   9.7106800  49.0720291  14.0007105  85.1500092
  49.8357658  13.5502577  85.5105972  49.3783607  14.3638535  84.3190308
   4.6224389  13.2962637  77.3603821   4.7286577  14.0206881  77.9769516
   3.6928980  13.3101549  77.1323624   9.5198355  12.7487288  20.1650906
  10.1538553  13.3762932  19.8180828   9.9453907  12.3820248  20.9401150
  59.7878265  29.2123451  58.0477180  58.8753510  29.3786259  58.2842903
  60.2893295  29.8323669  58.5771561  72.2559357  59.6750679   3.4459896
  71.9210281  59.4638824   4.3174658  71.8736572  59.0090218   2.8746064
  58.5216560   9.3452501  37.7283630  57.5944481   9.3395357  37.4907074
  58.6125832  10.0919256  38.3203430  74.3589859  20.2247772  17.8685608
  73.4672470  20.2689438  18.2136536  74.8514557  20.8533802  18.3963470
  42.5442314   3.8546734  28.1159134  42.5661621   3.6628442  29.0534382
  41.6957588   3.5220737  27.8231697  36.3033829  29.8460960  18.2119808
  36.6685219  28.9657116  18.1235065  36.4587898  30.0789738  19.1273232
  26.4088078  64.0334015  78.2890854  27.2577744  63.6663246  78.5355453
  25.8337498  63.8216896  79.0244217  64.5172729  40.9588356  60.2259521
  64.6811600  40.6622429  59.3307381  65.1806870  41.6312675  60.3807182
  18.4179840  20.6909809  12.4354649  17.7549839  20.1140347  12.8146696
  18.5835705  21.3446102  13.1148634  53.9506493  19.9754467   4.8359113
  54.5096970  20.0245819   4.0604858  53.2486305  20.6033516   4.6652308
   1.0168227  36.0964813  29.7642345   0.1702834  35.7917099  30.0909081
   1.2481989  35.4705276  29.0780296  12.9020433   9.6962681  59.2932549
  12.1212950  10.2444162  59.2145386  12.7806635   9.0107889  58.6362801
  79.4037323   6.3158913   1.3896590  80.0653076   6.3996749   2.0763409
  79.9077682   6.1951447   0.5849211  75.7818985  65.6240463  83.5225677
  76.1073761  65.1311493  84.2757950  74.9100266  65.9175415  83.7870026
  79.3252106  45.9951630  63.1008606  78.6082153  46.1237640  63.7218361
  78.9250870  46.1298256  62.2417908  65.0728989  18.8809395  60.6103058
  65.9615250  19.0462894  60.2952957  64.5625687  18.7236538  59.8159142
  68.5901871  13.7506609  28.5210934  68.8891983  14.6564827  28.4416313
  69.1284027  13.2650652  27.8959885   1.0507363  24.8134022  24.2495422
   0.9564019  23.8884525  24.4771442   1.4837316  24.8070488  23.3958988
  15.9411554  34.2260513  65.9968567  16.2666893  33.3955841  65.6496048
  15.0339499  34.0440102  66.2419510  86.5998993  59.4394341  63.7472534
  86.0428314  59.7963600  64.4390030  87.3275299  60.0579834  63.6826439
  45.0511551   1.7834485  29.9217815  44.1457863   1.7608870  29.6118908
  45.4415398   0.9792420  29.5796070  50.3032455  24.0878811  26.3101463
  50.5827103  24.6800232  27.0083580  50.1009331  23.2669868  26.7589569
   8.3073721  62.1264305  16.5425625   8.7168961  62.3790207  15.7150850
   7.4040961  61.9139023  16.3077106  12.7174492  63.6316452  30.6532764
  13.1881819  63.0018311  30.1074047  12.5814581  64.3882904  30.0829926
  85.4655533  36.5970840  51.0051994  85.6442642  37.3968887  51.4997749
  85.5925827  36.8478584  50.0902100  14.0028458  30.6673050  21.2739296
  13.4168730  30.9428864  20.5690022  14.8209486  31.1332741  21.1012688
  38.0472603  55.3207893   6.3587275  37.1727943  54.9659042   6.5187249
  38.0440178  56.1720886   6.7963467   4.9435596  50.7788353  36.9669228
   5.2154007  50.7474251  36.0496712   5.7641044  50.7884827  37.4597168
  37.0812531  34.3239021   9.1188955  36.6548462  33.9074783   9.8678970
  36.6517296  35.1758537   9.0419407   0.4662229   9.9683189  78.2173996
   1.2089210   9.3777294  78.0915680  -0.0652373   9.8561020  77.4292450
   3.3722644  45.5646286  86.1183777   3.2276196  44.6885567  86.4758835
   2.8438687  46.1394997  86.6720505  52.5451202  44.5224724  82.2547150
  52.7747803  45.4022255  82.5539246  52.6088219  44.5696793  81.3008041
  62.0668716  16.6396236  35.9908333  61.2304573  16.5940247  35.5276260
  61.8650932  17.1013336  36.8046761  79.8109360  63.8700485  73.3767624
  79.2688675  64.6147308  73.1162872  79.8612671  63.9324570  74.3305969
  79.0223694   7.1020780  78.6268387  79.6240768   6.3593531  78.6772614
  78.8578796   7.3394485  79.5394363  33.0073318  19.9018536  82.8081589
  32.9753036  20.1064758  83.7426834  32.1053772  20.0130386  82.5075760
  30.6476631  37.6300888  25.0704842  30.4860973  36.9342957  25.7076626
  31.5835514  37.8147125  25.1495934  38.2743759  49.5339355   2.0850408
  38.2846260  49.5980911   3.0400336  37.3454475  49.4938431   1.8576361
  37.2981606  19.2816486  12.3222427  37.7463951  19.2611313  13.1677570
  36.6389656  18.5903397  12.3837795  20.7397213   1.0827972  10.4614649
  20.6172485   1.9426024  10.0590134  19.8808708   0.6647629  10.3993940
  82.7133179  60.1757011  61.5271339  82.2575760  59.8882027  62.3182564
  83.0195389  61.0585556  61.7345810  20.7206345  40.4844093  -0.2804489
  20.0429058  41.0578384   0.0774525  21.2874756  40.2888641   0.4656641
  63.0373611  33.1745682  47.2126007  62.2384529  33.6181679  46.9276581
  63.7003098  33.8647270  47.2328873  45.7828865   5.1823196  20.8808556
  46.0948944   5.9130149  20.3470345  44.9057159   5.4461222  21.1587296
  23.4572926  33.9633789  59.1964111  23.8551559  34.5464478  59.8429184
  22.7196445  34.4624519  58.8456497  13.4756165  67.4419937  16.7190971
  12.7554569  67.5052185  17.3464756  13.2224693  68.0260315  16.0042248
  43.4479408  53.6687698  15.5781479  44.3261833  53.4408951  15.8830919
  43.5302811  53.7176895  14.6257515  16.0357838  24.6574497  60.7727890
  15.8112631  25.3565273  60.1586914  16.0879459  25.0934162  61.6233444
  27.9430447  66.5282516  27.7136421  28.2069130  65.6141891  27.8189926
  28.2562580  66.7689972  26.8417645  70.9064636  61.3906631  33.9387321
  70.1981506  60.7472458  33.9619713  70.4635239  62.2301178  33.8148232
  20.4988461  62.4365616  67.3146820  19.7372494  62.8895416  67.6766434
  20.6756496  62.8874435  66.4890442  79.6672363  59.7750740  21.0707722
  80.0498962  59.7210693  20.1950531  80.2823486  59.3012848  21.6305790
  21.7239475  21.2915611  71.4394226  21.2268047  20.4817924  71.3238525
  21.3886909  21.6641235  72.2549133  46.3535538  60.6053276   4.4100671
  46.6213036  60.0277634   5.1248832  45.6727371  60.1156044   3.9486668
  13.2412319  25.0692654  66.6507111  13.5868683  25.4778519  67.4443283
  12.4710941  24.5841522  66.9469986  43.2978401  51.2069435  27.2663002
  43.6078300  50.6632538  26.5420494  42.4286613  50.8616295  27.4700508
  63.2684708   4.5466223  55.3960686  63.2098198   5.4923115  55.5319481
  62.3684769   4.2347589  55.4908524  74.1280289  55.7825203  72.0966797
  73.4433517  56.0847664  71.4999390  73.9456329  56.2358437  72.9197540
  57.7734947  35.3600502  56.7824974  57.9779053  34.4268837  56.7221069
  56.8719406  35.3875084  57.1029282  27.2570686  47.1401176  68.4899368
  26.5897923  46.5542336  68.1325684  27.8290386  46.5679550  69.0015106
  70.4477768   8.0393620  35.9422989  70.2508163   7.9681988  35.0082893
  70.2955322   7.1594186  36.2869072  36.6361847   1.9048340  62.0685425
  35.8336029   2.2948120  61.7221146  36.3692398   1.0371451  62.3720016
  72.8055420  23.5082550  65.2624664  72.0382309  22.9850540  65.0306931
  72.4704437  24.1697788  65.8677139  35.6213531  63.6379852  62.6045494
  36.4648857  63.9773712  62.3053780  35.4110909  62.9391098  61.9851990
  12.5914135  68.4423370  51.5550385  12.6087465  68.4489822  50.5980186
  12.7748098  67.5331421  51.7915993  53.9235077   2.5142717   5.3572202
  54.0643425   3.2951231   4.8218060  54.8017273   2.1630337   5.5041699
  80.1018524  67.1960678  73.7181854  80.1841812  67.3059769  72.7708893
  79.1657104  67.0584869  73.8628845  21.6275063  30.1181831  87.0650101
  20.8391533  30.2488880  86.5380859  21.5166798  29.2489910  87.4503098
  62.0454674  69.2439194  43.0600395  61.3558617  69.0136566  43.6826553
  62.6133270  69.8444519  43.5428696  84.3885498  43.1975403  23.5442867
  85.3255463  43.0023155  23.5564289  83.9695358  42.3510971  23.3887444
  29.8597622  55.6093750  21.8729515  29.9519730  55.6523972  22.8247280
  29.0063152  56.0054207  21.6968575  59.8689308  50.7500687  16.5718517
  60.4948387  51.0264320  17.2412453  59.8254967  49.7982025  16.6629543
  60.3789940  33.5607109  80.5038376  60.1314774  33.9732056  79.6763077
  61.2693939  33.2421265  80.3557587  75.2792511  58.6552238  20.9946022
  76.1057739  58.8757401  21.4240990  74.7422485  59.4417953  21.0903702
  65.9906464   5.6843534  84.7196732  66.5399933   6.2909369  85.2161636
  65.1968155   6.1832080  84.5267792  85.4210434  64.8507538  65.4061584
  84.9140396  65.3739090  64.7852783  86.3210831  65.1588211  65.3000183
  11.7667618  18.5440903  72.2143936  10.9072628  18.1300755  72.2924042
  12.1572266  18.4509583  73.0833588  68.9674911  60.7756233  17.1821251
  68.6910706  59.8601837  17.1397648  68.3830719  61.2305870  16.5757465
  84.6409302  67.9964371  44.1865768  83.8957062  68.4541626  44.5756187
  84.2813339  67.1591415  43.8935623  39.0335846  52.9007034  27.6161880
  39.8920784  53.2863083  27.7909145  38.8121529  52.4339981  28.4220314
  83.4883041  30.1261654  65.0847015  83.8807449  29.3798656  65.5377579
  82.8793411  30.4998455  65.7216949  71.6026077  51.5430679  67.7584991
  71.6749954  52.4432297  68.0758362  72.5063629  51.2305031  67.7165298
  23.5640736  33.7833176  74.2437897  23.7221737  34.6526451  74.6119003
  24.4286861  33.4792595  73.9677048  14.0587950  57.8412170  75.9912567
  14.7066250  57.8591270  75.2868195  14.3637514  57.1505051  76.5795975
  16.1219006   9.9732008  59.3400192  16.5704918  10.7950325  59.5389900
  15.1941223  10.1689672  59.4709206  45.0765915  19.1565762   2.1572812
  45.4479408  18.6711731   1.4205902  45.0539513  18.5230675   2.8744886
  59.2948151  19.7222176  70.0349503  59.7819633  19.3732147  69.2885513
  58.4262924  19.3268719  69.9601135  82.4942474  65.9681320  56.4151535
  83.1846313  65.8705978  57.0709686  81.7560654  65.4719391  56.7688637
  64.2390594  25.1749935  87.5273819  64.7237930  24.3583202  87.6469955
  64.2856750  25.6082191  88.3796616   3.1828108  43.5458145  26.5902596
   4.0683212  43.7000122  26.2611313   3.3109317  43.0520134  27.4001846
  49.0345650  30.3687134   3.4443786  48.4687233  29.6861649   3.0835724
  49.8529243  29.9171047   3.6507020  15.4751368   7.6955786   9.4983597
  15.7017574   7.0718122  10.1881351  16.1733723   8.3496542   9.5280714
  35.8393898  44.9729652   0.6966502  34.9529762  45.3341637   0.6906091
  36.3357811  45.5658684   1.2608238  43.3169250  38.7451210   9.9134398
  43.2252884  37.9834061   9.3410501  44.0702248  39.2196503   9.5618830
  72.8987122  65.6110229  70.4594650  73.5275650  66.2846756  70.7182693
  72.0530167  66.0593872  70.4614563  50.2753754  58.8830376  68.8893356
  49.6772728  58.7947159  69.6314316  51.0873184  59.2131119  69.2740784
  13.4707527   1.8583573  10.7798223  13.7877064   2.5729356  10.2274189
  13.3313656   2.2617018  11.6366282  63.5540924  17.8838711  87.2809601
  63.2957840  16.9624443  87.3028946  63.0460739  18.2917919  87.9822083
  30.6125221   3.1894395  44.5255814  30.2468948   3.9278295  45.0127449
  30.1813641   3.2286925  43.6718903  78.8484726   4.6794252  69.1902313
  79.5465317   5.3206091  69.3237228  78.0597610   5.1125798  69.5166550
  79.4250870  10.2767324  20.3935623  78.8550568  10.7225409  19.7670212
  80.0710831  10.9378786  20.6421814  57.8795776  39.4715309  50.8546562
  58.7679291  39.8279457  50.8494415  57.9379082  38.6909485  51.4055824
  52.5223045  21.0754128  46.1462135  52.4519424  22.0272598  46.0736084
  52.6594086  20.9159184  47.0800209  65.4941559  63.3046036  33.3345375
  65.6110001  64.2527466  33.3945274  64.5453873  63.1816864  33.3035469
  66.8846588  57.6174202  28.1907482  66.7572556  56.6840096  28.0212116
  67.7989197  57.7803802  27.9587994  42.7012787   0.9765279  39.5329514
  43.2936897   0.5831392  38.8922310  42.3817711   0.2367528  40.0495529
  62.3419342   9.7791710  76.4496613  62.3819656  10.3034554  75.6498184
  63.2387352   9.7838831  76.7842636  25.6723995  69.5207825  20.5773659
  25.7553082  69.4710388  19.6250610  25.3757896  68.6487656  20.8378334
  65.8612518  61.7084084  64.8196030  66.4062805  61.2042656  65.4237747
  65.0365067  61.2241974  64.7801132  10.7543001  66.8285141  63.7326012
  11.1831226  66.3692474  64.4546967  10.4259157  67.6376038  64.1247253
  75.4268799  62.6874847  47.7394676  74.5454941  62.6690216  48.1123619
  75.3121109  62.3854904  46.8384361  14.3419971  64.4699783   6.4966373
  13.8331814  64.6631241   5.7092147  15.2287817  64.3076248   6.1749458
  64.6242905  52.3363724  88.5152283  63.8545074  52.1894798  87.9655991
  64.2757950  52.7295265  89.3153610  31.8845749  46.1749077  41.2409782
  32.5139046  45.6572838  41.7432137  31.3292027  45.5249176  40.8105049
  46.6371765   2.7947659  36.9581261  46.7023163   3.4819088  37.6213188
  45.9035110   3.0640767  36.4054642  29.0053844  43.1052284   5.3764501
  29.1163673  42.1557961   5.3264723  28.1547985  43.2687187   4.9690104
  57.6408386   0.8556451  72.1114426  58.1994896   1.4697925  71.6350327
  58.1388435   0.6412650  72.9002838  46.7012138  29.4720993  68.4419861
  47.2934723  29.0431290  67.8243713  47.2256813  30.1728687  68.8293991
  56.3674431  17.8177147   3.6814396  55.9623642  18.5455456   3.2098389
  56.7782097  18.2253666   4.4438848  67.2360458  28.1102390   1.9533054
  66.8659744  27.7649250   2.7657313  68.0460815  28.5425415   2.2238431
  66.4357834  52.1864128  75.5426559  67.2883224  51.9745598  75.1624985
  66.6407013  52.5399017  76.4082718   0.5202267  44.5630074  64.5757599
   1.0142049  45.2613106  64.1461182   0.0630709  45.0001221  65.2942047
  54.9479485  58.7222099  28.3117847  55.0849266  58.8061790  29.2554035
  55.6193237  59.2818680  27.9215660  43.5296555   3.8011293  12.3877544
  43.8883514   3.5770431  11.5290604  42.6490211   4.1269484  12.2018566
  12.9107094  15.5868759   2.4829006  12.1582308  15.5966568   1.8913668
  13.4110136  14.8139124   2.2212627  83.6076660  47.2095718  63.7827415
  83.5475693  47.5184669  62.8787498  82.9648590  46.5024414  63.8374634
  79.8350677  24.1622581  16.1085949  79.9178009  23.2292767  15.9112787
  78.9144897  24.3622322  15.9389477  76.1598740  23.1304092  59.6976204
  76.4558640  23.9143410  60.1603012  76.8627853  22.4943371  59.8301659
  77.3270416  18.5496979  12.0833845  77.6511002  19.1833591  11.4433136
  76.6114883  19.0035648  12.5286131  14.5011692  35.6266975  55.1181679
  15.1834583  35.3091431  54.5266685  14.7578831  35.2964935  55.9791527
   0.3571042  69.5392151  23.6589317   0.8589969  69.8589325  24.4086761
   0.9780926  69.5550842  22.9306774   4.8408003  38.3531189  78.1296921
   5.5732589  38.6268196  78.6818008   5.1476574  37.5524368  77.7042770
  17.3590736   5.3989153   1.4882401  17.3187599   4.4856782   1.7721497
  16.7420692   5.4502478   0.7582372  71.1417389  13.6269474  56.3572197
  70.6539001  13.7212343  57.1753654  72.0196686  13.3614864  56.6310806
  19.1321564  42.5308266  78.1413345  18.4886303  42.1844940  78.7595215
  19.3971024  43.3705444  78.5167160  66.9999847  68.6403885  74.3472748
  66.0986938  68.3422089  74.2248535  67.0476227  69.4643250  73.8624115
   9.3984394  51.4504395   5.2350221   9.0336752  50.6359215   4.8889880
   9.2628641  52.0897446   4.5356364  85.8532104   1.7799561  11.2294331
  85.2963791   2.4719417  10.8726110  86.3591385   2.2109632  11.9182768
  82.9545593  17.5458813  29.8036652  83.5887070  17.9047737  30.4243813
  83.0955124  18.0471573  29.0004902  16.5112438  53.7751961   9.6390095
  15.7796679  53.1764412   9.4889412  16.3790951  54.0959587  10.5311308
  83.1792755  10.9329176  65.4668579  82.7382660  10.0904989  65.3569565
  82.4671021  11.5676613  65.5452271  25.7043762  14.7171583  88.5816650
  25.1693707  14.8622532  87.8013153  26.2540073  13.9658089  88.3589249
  28.8285980  60.7120094  66.8011169  28.3501949  61.5222664  66.9767456
  28.2177124  60.0159340  67.0430374  59.0560417  52.8396149  14.5386343
  59.5003319  52.4188538  15.2747040  59.7273102  52.9050636  13.8594074
  76.4648972  15.6842661  68.9433441  76.2965164  16.3022919  68.2320633
  76.5138397  16.2299633  69.7282333  34.4721985  54.4142227  57.1077728
  34.9514923  55.0490837  57.6401787  35.1232681  54.0781021  56.4918442
  43.9974785  24.5442314  80.7116623  43.6586113  23.7392044  81.1032486
  43.2616653  24.8945103  80.2095566  32.5882454  43.6680603  85.7608643
  32.4485893  44.3900108  86.3736572  33.3075829  43.9634247  85.2027054
  59.6958008  30.1085663  24.9655132  58.8801613  29.6935844  25.2461491
  60.3456230  29.4065456  24.9991302  56.9088058  35.4939613  82.8346252
  56.6576004  35.1177940  83.6781998  57.3981819  36.2847824  83.0612259
  84.9560318  62.7872925  14.6172304  84.4800034  62.4344559  15.3689833
  85.5125885  63.4729462  14.9865017   2.7668474  33.6771126  38.5547867
   2.7442908  33.6852264  37.5978851   3.4008622  34.3562126  38.7851868
   8.0301714  26.8505611  31.6285534   8.0063581  27.8044453  31.5525799
   8.8885641  26.6618481  32.0077362  38.1503220  68.5767670  57.8176651
  37.7284431  69.3976440  58.0714722  37.4502182  68.0616226  57.4167786
  73.3684006   2.4300952   4.9738140  73.1554337   3.2373309   4.5055771
  72.6902084   2.3566573   5.6452994  41.7569275   9.8485050  19.5247440
  41.0029716  10.3368092  19.8554115  42.0862656  10.3788671  18.7991543
  85.4585800  58.9321594  29.2105961  84.5104141  58.9206924  29.0798626
  85.7173080  58.0115509  29.1685429  69.1189346  32.3674850  16.0422306
  68.2166061  32.6566086  15.9064569  69.1601639  32.1393242  16.9709244
  41.4539185  52.4495049  56.2842827  40.9967995  52.3331032  57.1171837
  42.1428566  51.7850494  56.2942734  68.0000153   7.5205488  16.7533779
  68.4570236   8.3400612  16.5642471  67.3208923   7.4643850  16.0811672
  30.0199070  20.0045795  82.9645233  29.3795357  19.7026997  82.3202972
  29.8086586  19.5153122  83.7596512  47.1124802   3.1527965  10.1020164
  47.7637215   3.6913722  10.5515194  47.5356102   2.3002224  10.0004730
  43.3651695  22.0631943  45.6636009  44.0961456  21.4708138  45.8396530
  42.8189316  21.5897045  45.0361748  49.7330437  48.3883133  74.1670990
  49.9312515  49.3179245  74.0540771  48.9417381  48.2472191  73.6473236
  26.1373081  35.1926918  19.9910183  25.9209728  34.2689095  20.1177368
  26.5510769  35.4566994  20.8128014  83.0330276  57.6138344  48.8552170
  82.9262466  57.5262756  47.9080315  82.3909988  58.2771339  49.1083260
  63.9971695  69.1376495  20.6740913  63.3403969  68.4424438  20.7136936
  64.3010330  69.2317886  21.5768871  33.6410065  54.5785255  69.7513275
  33.5320206  54.6754570  70.6973495  33.5903358  55.4719734  69.4115982
   7.8878989  70.0690842  27.4527416   7.7604566  69.1282120  27.5741634
   8.4454708  70.3317413  28.1851063  14.4466667  19.5883217  69.9958191
  13.5651112  19.8926277  70.2114334  14.9656038  19.7858124  70.7755203
   0.6609291  67.0176544  83.1859055   0.9272473  66.1148148  83.0121841
   1.4840671  67.4915390  83.3047180  83.3409805  62.9723587  25.3730354
  83.2406845  62.0668106  25.6665630  84.2875214  63.1005859  25.3109818
  82.9591599  22.1969738  85.2850113  82.8469162  22.3973217  84.3557663
  83.6130447  21.4981365  85.3020706  82.6271667  19.3997288  13.3487406
  81.6913452  19.2199039  13.2585869  82.8535690  19.0619755  14.2152834
  32.7688103  33.1396446  19.7650166  32.5433464  33.7165031  20.4948330
  32.1012878  33.3190536  19.1028538  82.2400970  41.4459877  11.0883398
  82.9926147  41.5700111  11.6667662  82.1148834  42.2987785  10.6720448
  49.2992744   0.9545410  55.6920700  49.5687675   1.6476918  56.2946854
  48.5392189   1.3158206  55.2359734  57.4571152  51.8536377  26.3035564
  57.2545128  52.7891312  26.3097630  56.7073135  51.4490814  25.8672504
  42.5012627  66.6029587  54.1284027  41.9122314  66.2710419  54.8059807
  41.9203568  66.8714294  53.4165726  58.0126419  52.1373978  39.2595787
  57.2871170  52.7103844  39.5076370  58.4430046  51.9238091  40.0874672
   5.4390216  62.1595535   8.8477945   5.1073308  61.4896736   8.2499027
   5.1484160  62.9873505   8.4649973  55.9529648  15.0948076  18.3104763
  55.6742363  15.0869713  17.3947906  55.3680420  15.7234068  18.7335129
  18.2039967  66.6259613  84.2169113  18.4225464  67.2998886  83.5732498
  18.9053020  66.6785202  84.8662491  77.2697144  45.5366707  67.2304764
  78.2201080  45.5963860  67.1334305  77.0735855  46.0703278  68.0005264
  -0.0290007  37.3802719  74.4709396   0.8502535  37.0029373  74.4985657
   0.0090964  38.0248985  73.7643738  14.5713587  49.7317619  67.6420898
  15.4949808  49.9604187  67.5378342  14.3807068  49.9183731  68.5613632
   8.3866339  49.2920341  27.4389973   9.1201115  49.8594856  27.6761570
   8.6827374  48.8340454  26.6523609  42.5666389   6.7755713  68.9556351
  43.2081299   7.4620795  68.7728043  42.9836235   6.2294550  69.6220474
  47.1924133  63.8904343  79.4321365  47.8838387  64.2499237  79.9879532
  47.1962509  64.4481277  78.6541901  68.4522476  20.9175186  68.4823914
  68.3995209  20.4039307  69.2884140  68.8326035  21.7525578  68.7549133
  37.3655167  28.9854298  45.8970261  36.5285721  29.0971756  45.4461670
  37.1394463  28.9931927  46.8271141  49.9056244  42.6079712  88.4579697
  50.3458328  41.7700920  88.3151093  49.4396362  42.7764091  87.6389999
  12.2904558  60.3520584  64.3567505  11.9041567  60.9358025  65.0096283
  11.6368647  60.3073387  63.6588631  39.0715599  68.0921478  62.4920235
  38.7555122  68.5497818  63.2710724  38.4324646  67.3941498  62.3484917
  77.2446442   2.5404410  51.4369087  78.1595383   2.2708199  51.3562584
  77.2768021   3.4970551  51.4462738  82.6735458  25.2950611  46.5692101
  82.6487579  25.3044300  45.6123772  82.4111404  24.4057503  46.8069038
  50.4865913  45.1417770  34.2076111  51.2310677  45.7390366  34.2801743
  49.7198944  45.7147636  34.1980095  63.3601151  27.4755440  52.9579773
  64.0906143  27.9469681  53.3584251  63.1675873  26.7664509  53.5714531
  55.0283279  41.0426102  84.0971146  55.4215660  41.3736916  83.2896576
  54.5026894  40.2930336  83.8176956  74.0996475  56.1874008  36.1652451
  74.2304611  55.2633362  35.9525986  74.9805298  56.5210457  36.3354111
  10.1110430  27.2849140  77.2223816   9.2967978  27.7582016  77.3933716
   9.9461842  26.8114796  76.4069672  31.3937283  28.0148411  87.2472076
  31.2247562  28.9472446  87.3824921  30.5414581  27.5967159  87.3698502
  68.1540070  67.7120209  31.7880898  68.6927032  67.5940628  31.0057030
  67.2550735  67.7287445  31.4596577   1.7053190  70.1830978   3.9177437
   0.8166418  70.4873199   4.1019473   1.5904098  69.4827423   3.2754600
  20.5655823  24.2454643   8.7512388  20.4284267  23.4240704   8.2792931
  19.8013058  24.3241787   9.3221292  51.1502991  29.0582752  10.7255211
  50.9603386  29.0060062  11.6622248  50.3209610  29.3226032  10.3273287
   6.8361487  62.5123367  63.4084282   6.5479808  62.0242729  62.6370773
   7.7394652  62.2281342  63.5480042  77.9483261  50.1808357  87.8091965
  77.0307999  50.4530258  87.8264236  77.9484634  49.3713417  87.2983704
  64.5013123   2.5607865  31.5301647  64.8113937   2.3241408  30.6560478
  63.8797798   3.2729161  31.3791695   6.1737199  52.4809074  26.5192566
   5.7808151  53.2966347  26.2086983   5.9361224  52.4380531  27.4455090
  30.8735123  55.0526199  79.4476089  30.9821262  55.6196480  78.6841202
  29.9273987  55.0201988  79.5892105  71.1463623   6.5038700  75.8483047
  71.5060043   7.0812688  75.1748810  71.7084579   5.7294436  75.8249359
  11.1714983  48.4408417  50.1676750  10.7170267  49.2488403  49.9292870
  10.6039829  48.0303879  50.8201218  19.1891499  55.6852760  72.0365372
  20.1009350  55.4147873  72.1447525  18.6928005  54.8670235  72.0547638
   8.6006098  64.7681732  27.7924480   9.2905655  65.1879654  27.2786713
   8.9682436  63.9194450  28.0389023  12.1787071  18.9872456  79.2209167
  12.5528116  19.8656311  79.1522293  11.9512520  18.8954659  80.1461563
  48.1061630  27.4122658  89.1880188  48.6588593  26.7944260  88.7094498
  47.2353058  27.0152245  89.1739120  44.5253677  36.8282928  65.1883774
  43.7882462  36.9338837  65.7898178  45.2921677  37.0808487  65.7026367
  83.1898880  68.7970963  72.0831604  83.9411163  68.5134125  71.5621948
  83.1315002  69.7394791  71.9258728  23.3763161   9.1032305  68.3257751
  23.9967670   8.4468946  68.0087662  22.6976757   9.1366434  67.6515656
   3.7488296  20.9221210  80.4106598   3.1757476  20.2976990  79.9657974
   3.6971400  21.7159672  79.8783417   9.9529009  60.9268723  81.2143860
  10.5517931  60.3958740  80.6894073  10.2511158  61.8266296  81.0812149
  75.9158096  30.4655361  72.4440918  75.6599731  29.9797344  73.2281723
  76.8709717  30.4057293  72.4263000  84.5251160  17.5221519  14.5321684
  84.4193726  17.3791599  13.5916348  85.4682236  17.6323757  14.6531363
  53.1738014  29.7375450  82.4659729  52.2530060  29.5114574  82.5973358
  53.1544418  30.4785748  81.8603897  53.5786591  19.8641014  17.3021927
  53.6132851  19.6308994  18.2299042  54.2701492  19.3403053  16.8975868
  37.1347694  50.2207985   4.7080874  36.5087509  50.8964729   4.9684701
  37.8654480  50.3234940   5.3178363  56.3017159  50.0521011  83.5438232
  56.8756714  49.6794510  84.2131119  55.8885384  49.2927666  83.1328201
  27.4758453  71.4369583  15.0158443  27.7253017  71.2947769  15.9289637
  26.5793800  71.1064072  14.9582071  54.3780365  52.0359688  82.8632965
  54.2389069  52.6845589  83.5533752  55.0476837  51.4502945  83.2165527
  67.4216156  19.6088448  76.1651688  66.8220139  19.3029690  75.4846268
  67.0452805  19.2798595  76.9814911  79.4813766  52.9909439  88.4581375
  79.9677353  52.8263245  89.2659683  78.7862930  52.3328514  88.4587173
  68.9105377  59.6399422  33.2812691  68.0802155  60.0569229  33.5113449
  68.7896805  58.7198982  33.5160980  84.8465347  69.1012878  11.0536690
  84.7867508  69.6600723  10.2788000  85.3624649  69.6116943  11.6777983
  30.5258789  32.0070610   9.4690924  29.6891689  31.5786991   9.2883835
  30.9914036  31.3932838  10.0372429  55.3323021  61.3710976  70.5622711
  56.2615318  61.1480141  70.5074997  55.3211174  62.2747498  70.8777466
  40.1614990  17.2499638  81.0463181  40.9890633  17.2514820  80.5653076
  40.4123383  17.4159546  81.9550247  74.0827026  51.0787506  53.5647011
  73.4938126  50.5906868  52.9891701  73.5061111  51.6615524  54.0587845
  20.2381763   6.3345003  85.6000595  19.9404945   5.7984276  86.3350754
  21.0807838   6.6869502  85.8864594  53.3094711   8.9938717  39.5920868
  52.7354279   8.3757792  40.0444870  54.0557671   8.4650908  39.3098373
  65.3022690  23.1699276   6.9842334  65.2900620  22.8984680   6.0664139
  66.2039413  23.4516315   7.1387072  83.0336761  46.0631790  51.8249359
  83.3978424  46.8647919  51.4493942  83.2694397  46.1042633  52.7517357
   2.2794828  61.7900772   8.4464951   1.3905671  62.1337471   8.3573275
   2.5783331  62.1162109   9.2953510  24.9567356  66.9754944  54.4614143
  24.9410515  67.3158112  55.3559380  25.8370419  67.1768036  54.1439705
  30.5995655  26.8361206  16.2405281  31.3465061  26.3358002  16.5691509
  30.3205643  26.3629379  15.4566345  40.4988251  55.8468361  54.4539337
  40.8400421  56.1908989  53.6284485  40.7336006  56.5085526  55.1045074
  48.1845322  29.8892746  77.4890594  48.1918907  29.3374348  78.2711411
  47.3997993  29.6187057  77.0123901  16.6155872  37.8646507  20.6246910
  16.6895447  38.1020966  19.7003632  15.7592745  38.1999054  20.8903294
  20.3710804  28.6037407  24.8011227  19.8922367  28.9320087  24.0400829
  20.2721786  29.2902966  25.4607372  64.6684647  12.3640375  59.7958221
  63.9219589  11.7828846  59.9414825  65.0033798  12.1125898  58.9351006
  83.4529953  14.5236015   9.3340044  82.6219101  14.5432882   9.8084993
  83.2068100  14.6306076   8.4152126  47.8914185  42.2722740  14.7877064
  47.2468262  41.8743134  15.3728170  47.8304062  41.7609024  13.9808569
  25.2697353  52.0290794  74.3726578  25.6609459  52.0072670  73.4993210
  26.0175323  52.0278206  74.9701767  19.5385513  44.8284836   8.6389732
  18.9889088  45.3566780   9.2178841  19.9712086  45.4665375   8.0715847
  41.9103775  51.3663254  15.4940748  42.3850060  50.9005432  14.8055935
  42.3967209  52.1825562  15.6101379  47.6423378   2.3126268  50.0027084
  48.1405449   2.3457451  50.8193626  48.2850380   2.5115490  49.3218269
  25.0272121  65.7321930  16.9298840  24.3176136  65.7629929  16.2882042
  24.9511108  66.5562592  17.4108791  83.7721329  26.3535652  68.7477341
  83.7906647  26.1797009  69.6888275  82.8442459  26.3166313  68.5155716
  54.8424644  66.2831955  76.7243042  55.4544067  65.5856476  76.4893875
  54.7922287  66.8314972  75.9413071  49.1918373  66.5563965  49.1310425
  48.3818855  66.8396683  48.7068214  49.6450691  66.0422897  48.4628296
  14.3856459  43.3768921   2.4808702  13.5436258  43.8314133   2.4554732
  14.7889452  43.6653709   3.2996271  53.5530777  46.0823822  13.4705057
  53.5832443  46.2000694  12.5210466  52.6591873  45.7891846  13.6472273
  75.9187241  22.6144753  26.5505714  76.8757782  22.6152573  26.5339603
  75.6659546  23.1725292  25.8151035  27.4646225  65.7097855  69.4944382
  27.2003422  65.8790207  68.5901489  28.3211670  65.2892380  69.4189377
  52.0919952  54.8333817  87.6240540  51.3354111  54.4074478  87.2210693
  52.7264404  54.1274376  87.7479553  31.2703438   0.6089793   7.9557033
  31.7957554   0.5463933   7.1580462  30.7754288  -0.2099419   7.9813776
  39.1964111  58.0648460   1.4660243  39.8993340  57.4197235   1.5431285
  39.2112961  58.3264046   0.5453736  36.5746155  49.2652588  27.9090252
  36.4280167  49.6871033  27.0623913  37.1751442  48.5450401  27.7169762
  82.7910309   5.7300282  70.3474197  82.8749466   4.8310847  70.6653671
  81.9092026   5.7719030  69.9774933  82.0703964  57.5260162  45.8227692
  81.8716736  58.4506416  45.9704475  81.2220764  57.1264229  45.6306648
  48.1702728  40.2855072   2.7503018  48.9657822  40.7372246   2.4686153
  48.4567909  39.7212296   3.4684465  39.7095757  61.0256157  33.3771095
  40.0181236  61.1827240  32.4847260  38.9122162  61.5500565  33.4506569
   0.6306522  12.7471027  63.2383652   1.1012386  12.0722504  62.7491264
  -0.2940642  12.5408611  63.1020012  20.2808380  57.5523338  66.1326218
  20.0985203  57.6163445  67.0701141  20.3129120  56.6116409  65.9585419
  49.9577217  37.3529510  73.0165787  49.6437798  37.5901909  72.1440048
  49.9222755  38.1698761  73.5141830  25.0084801  68.0329514  37.5193520
  24.1300068  67.6667786  37.6214867  25.5798035  67.4159851  37.9767036
  56.3608932   9.1283550  17.0414791  57.1277237   9.5023441  16.6074963
  55.8832588   8.6827679  16.3418007  82.0219193  61.8660622  50.5371475
  82.8011169  61.7630005  49.9908295  82.3458099  61.7843170  51.4341660
  86.2526932  48.7151299  78.6518097  87.0870514  48.9719620  79.0443802
  85.6028442  48.8952408  79.3311386  67.6802444  60.2531471  88.1554260
  66.7756729  59.9861717  87.9919815  67.7095642  60.4377975  89.0941925
  81.7705765  15.3674402  74.8750687  81.9475479  14.7804031  74.1400146
  82.6264572  15.7302217  75.1033020   1.6843569  35.4374466  72.4166565
   0.7675131  35.4803886  72.6882935   2.1777086  35.4434853  73.2369003
  32.1359177  68.4854126  63.5746460  31.2343216  68.5440521  63.2585449
  32.0741615  68.6739807  64.5110550  58.6891289   8.2467346  45.0212975
  58.0118561   8.2347136  44.3449898  59.5108109   8.1543427  44.5390739
  36.2403908  19.1090717  18.1545010  36.6587296  18.9485188  19.0003433
  36.8720398  19.6427155  17.6723480  22.5436058  51.3280983  73.7744904
  23.4619751  51.0585594  73.7610550  22.4262123  51.7358894  74.6324921
  60.4975586  56.2437935  78.5729523  61.2176857  55.6394119  78.7528915
  59.8643875  56.0765419  79.2710571  34.0474358  10.2623901  17.0065727
  34.1554604  11.2045975  16.8769321  34.3367195   9.8724012  16.1816750
  64.5570450  51.9188385  14.1191959  64.3785858  50.9979591  13.9284811
  63.6996269  52.2913551  14.3248768  15.2963495  61.3637733  33.5130157
  14.3748131  61.6225319  33.5061913  15.6498432  61.7577324  34.3105583
  31.4927540   5.6316986  14.6771441  30.6759663   5.4278903  14.2215624
  31.3072281   5.4435625  15.5971527  52.3554192  47.0084801   5.5028515
  51.8863220  46.2738190   5.1073098  53.2747383  46.8482742   5.2897387
  69.6848373   3.3852201  20.2712135  70.6318893   3.2468598  20.2580223
  69.5687561   4.2785239  19.9475384  41.5464401  71.2982025   9.0261421
  40.6494446  71.5558548   9.2388468  41.4728737  70.8462067   8.1855946
  10.4075975  48.1398544  56.5558014  11.3279905  48.2509384  56.3175392
  10.0889826  47.4549446  55.9679146  50.1593781  10.8505163  44.0879021
  50.1161880  11.0769711  43.1588783  50.9502754  11.2870836  44.4043236
  61.4321136   2.3443406   5.9620547  61.2057076   1.6315886   5.3645959
  62.3884659   2.3791268   5.9418736  20.7765522  18.3541069  80.3077698
  20.2858505  18.6416512  79.5378571  21.4841766  18.9930191  80.3931580
  80.4510345  10.5041533  41.5620918  80.0183868  11.3557243  41.6243362
  81.3829575  10.7130871  41.4980125   3.6857774  49.5310707  22.8270073
   4.4040475  49.9884033  23.2642345   3.5135102  50.0508919  22.0419312
   9.8505030  59.6641350   5.7104626   9.5795794  59.9111557   6.5946646
  10.0878515  58.7396088   5.7821870  62.8065224  29.3068371  87.5409393
  62.5124435  30.0952797  87.0847549  63.7288666  29.4728203  87.7357788
  39.4661369  44.8514137  50.3647957  39.2893639  43.9111366  50.3355446
  39.4764557  45.0642662  51.2979736  77.1830139  64.4181290   9.9019003
  76.3610153  63.9981689   9.6485424  77.4755402  63.9279366  10.6702538
  72.0874252  10.5890522  25.5048885  72.5520325  11.3848534  25.2458992
  72.5062637   9.8920832  24.9998722  20.8961449  48.9018517  19.2820873
  20.9093323  48.0594940  18.8276691  21.6969700  48.9037094  19.8064003
   8.3343639  43.8341827  29.9253521   8.9121265  44.5812912  30.0810814
   7.7478266  44.1263428  29.2276096  76.6067505  68.1137314  62.5912132
  76.2023468  68.9810791  62.6111183  77.5464096  68.2861633  62.6507607
  16.7203178  46.4762573  16.9090157  16.9744072  45.6663017  17.3513298
  16.9722786  47.1707306  17.5176620   2.0339522  12.8325434  71.7453156
   2.7434826  12.2039280  71.8781433   1.5154135  12.4611568  71.0315781
  66.3648376   3.1842201  64.1849365  67.1713715   2.7935495  64.5212555
  66.6115112   3.5484531  63.3348122  11.5327997  18.5005836  82.0657043
  12.3269148  18.6704597  82.5724182  11.0404863  17.8732319  82.5951309
  30.0005760  50.4625359  17.9302940  30.1869526  51.1580620  18.5609608
  29.2002239  50.7473335  17.4892063  79.7499695  16.2495632  70.3058014
  79.3127518  15.6537027  69.6975098  79.7794189  17.0863094  69.8418808
  80.1896820  28.3905277  27.9504585  79.4135513  28.9449825  27.8702621
  80.5794067  28.3961296  27.0762081  48.7737808  70.1136093  56.8079033
  48.8516197  70.9258499  56.3074570  47.8308907  69.9628754  56.8747139
  13.9633274  10.9620552  26.0989532  13.2350245  11.5805874  26.0421696
  14.5866899  11.2647734  25.4386406  83.0546646  45.0051003  31.2151413
  83.9229584  44.8299828  30.8523235  83.1341629  45.8685760  31.6205101
  62.9365959  30.3675709  47.5649147  62.7639503  30.1220970  46.6559792
  63.0150833  31.3213329  47.5446587  64.4097672  13.0392704  10.6864729
  64.4918594  13.1198673  11.6367340  64.6290283  13.9091082  10.3524952
  18.2712002  49.9217987  46.1312523  17.4601154  50.4011459  45.9621353
  18.8083763  50.0784607  45.3546410   4.2230682  34.9704056  66.2689667
   3.7868264  35.8215675  66.3070068   4.2353115  34.7489510  65.3378143
  51.6692200  25.0147076  22.6245708  51.1321831  24.2925167  22.9505558
  51.5299911  25.7206383  23.2558460  14.4850302  55.7643166  77.7493439
  14.5176697  55.2881622  76.9196167  14.0503492  55.1627159  78.3537903
  68.9483795  49.0316086  32.0759315  68.7793198  49.7294617  32.7089005
  68.0794754  48.7070351  31.8395004  81.9529266  70.0450821   1.0503806
  82.5663300  69.9711609   1.7814792  82.4493103  69.7429047   0.2897727
  85.3416367   5.0809937  31.6972904  86.1207123   4.5661497  31.9075527
  85.3401337   5.1336923  30.7415447  60.7232704  61.1533279  28.3418446
  61.1223526  60.8137436  27.5408154  59.7813187  61.1090660  28.1775246
  34.8964729  24.0983887  86.7024384  35.0716400  24.7374153  86.0116501
  33.9642868  24.2018394  86.8936462  19.2586460  17.2541542  30.6049824
  20.1938171  17.2141590  30.4047642  18.9957180  18.1372166  30.3455620
   9.6528454  20.4833260  16.4233456   8.9016247  20.1678257  15.9209929
   9.2909746  20.7058353  17.2811165  67.6163559  70.1865234  50.9570007
  67.4179611  70.2885132  50.0261574  67.3988190  71.0351562  51.3426437
  38.9191170  67.1787872  35.9693222  39.7226677  67.2134018  35.4503441
  38.7236214  68.0941925  36.1694450  74.8207169  56.7341042  83.4849167
  74.3839340  56.8506851  84.3286362  75.0258865  57.6234627  83.1965103
  58.2158585  52.8209000  19.7336769  59.0266075  53.3152428  19.6130753
  57.8073807  53.2150803  20.5043926  45.7059517   6.3366742  81.5161438
  45.0800667   6.4096045  82.2366867  46.3932877   6.9671946  81.7311935
  67.6277390  51.5376625  39.2861481  67.5423050  50.7103577  39.7599640
  66.7364044  51.8843880  39.2469635  55.7517891  20.9321671  34.0351830
  55.6486053  20.5022411  33.1862144  54.8822594  20.8885689  34.4329910
  51.8819656  25.4148369  35.8047791  51.2905006  24.6674042  35.8927765
  52.7254791  25.0266953  35.5722618  29.6113434   1.4630891  15.4212170
  29.1807747   0.8819608  14.7942142  28.9503498   2.1236436  15.6285477
  53.1513824  23.4654236  44.5596085  53.2150841  23.5758286  43.6109352
  53.9732056  23.0416737  44.8071442  76.9845276  26.1659565   4.8043113
  76.5084686  26.4501724   5.5845785  77.6842194  25.6063557   5.1412272
  61.0675964  61.6673508  52.0742531  60.5428925  61.4441528  52.8430824
  61.9341087  61.8706779  52.4264565  70.4760666  25.2490292  68.7500458
  70.3148727  24.3766060  69.1093826  71.1767883  25.6068783  69.2951660
  28.0959530   1.7041763  63.7131882  27.4993153   0.9979678  63.9612312
  28.0821304   1.7043301  62.7560883  17.3437729  32.0320358  64.7393112
  18.2984009  31.9708233  64.7051010  17.0507584  31.6766758  63.9002075
   8.5512486  12.6867371  10.3943167   9.1926746  13.0368462  11.0125628
   9.0636959  12.4669552   9.6162910  53.3561363  22.7371883  77.6343307
  53.4483261  23.3093815  76.8725433  52.4185600  22.5501766  77.6813507
  45.6137161  39.8419914  72.3258133  46.1530952  39.9885330  73.1028748
  45.6589699  38.8974380  72.1774902  11.8197470   6.7801800  73.0763397
  12.3437252   7.5463734  73.3100662  11.6696167   6.8706813  72.1353302
   4.4176464  22.0457630  36.3722191   4.0355234  22.8890362  36.1291084
   4.1192994  21.8973942  37.2695541   0.7622736  60.6122513  23.4453545
   1.5214746  61.0517349  23.0623379   1.1338092  60.0128059  24.0925446
  54.7305069   3.2204733  46.5500832  55.0599136   2.9128723  45.7056274
  54.7674599   4.1749625  46.4883041  17.9903946  43.9071350  22.8084793
  18.2476120  43.1409798  23.3213902  17.2039661  44.2345772  23.2449913
  29.7595444  43.9660072   0.3822594  28.9563370  43.4480515   0.4352647
  30.4268379  43.4158211   0.7924390  52.7987175  20.1065807  82.5231628
  53.3048210  20.4312763  83.2679214  53.4319458  20.0558014  81.8071518
  43.5651665   6.9263253  83.6978302  42.9227562   6.3580899  84.1228638
  44.1361351   7.2164011  84.4092178  29.4885330  34.0700531   6.4219532
  28.9598007  34.4304276   5.7100515  29.8353882  33.2497749   6.0711455
  48.4274673  57.7068138  52.5090904  47.7295036  58.1717148  52.0476303
  49.1140633  58.3629875  52.6284943  30.8083019  18.2999058  78.5435638
  31.6946640  18.6509323  78.4576950  30.9354076  17.3642902  78.7007294
  31.4622860  10.9991341  13.2979822  31.8679047  10.1451244  13.4475574
  30.6245689  10.9503632  13.7585058  79.5839233  24.8996239   9.3383484
  80.4965820  25.1877193   9.3214321  79.2553177  25.1947079  10.1875677
  30.9052258  51.1460381  68.8012390  31.5009575  51.8566551  68.5638428
  30.8087997  50.6356506  67.9972229  21.4743481  42.4451256  55.6065254
  21.7230587  43.2450180  55.1433372  21.5795841  42.6621780  56.5328331
  44.4864006  68.1533279  46.2143440  43.9839325  67.5891190  45.6266174
  45.2769432  68.3703690  45.7202072   0.4159795  13.9525442  78.5482864
   0.2872234  14.7090540  77.9761429   0.9983732  14.2704077  79.2382202
  75.5062561   4.8016253  42.5272293  74.7417450   5.0972261  43.0215683
  76.2508774   5.2035775  42.9746780  66.8882904   6.5882521  78.3690948
  66.4752350   7.3679533  78.7401505  67.7628708   6.8799992  78.1117554
  75.3504257   8.0776482  36.5359764  76.1715469   7.6850505  36.8323822
  74.7109451   7.3677492  36.5937614   1.6971840  23.0020294  75.4729767
   1.9106414  23.5568962  74.7227859   1.7645196  23.5851688  76.2290497
  84.3679504  13.3652363  66.0184250  83.6233749  12.8206177  65.7630157
  84.3599548  14.0902119  65.3934631  56.8519211  62.7295113  47.5114784
  56.1605873  63.3365173  47.2472191  57.6081810  63.2894783  47.6868172
  54.5208855  67.8393021  22.3064747  55.3883667  67.5767975  22.6143665
  53.9276466  67.1849213  22.6753750  80.5637207  50.9213791  18.9254551
  81.0362549  50.1447716  18.6257477  80.6481476  50.9000854  19.8786869
  77.1042328  60.0038605  41.0882263  76.5849304  60.6409264  41.5788498
  77.5079956  60.5138969  40.3860359  80.3133392  51.3810921  45.0513763
  80.9715958  51.5186157  45.7325630  80.8206177  51.1754074  44.2661400
  58.3525352  70.7400589  87.5328217  57.6118736  71.3448944  87.4900589
  58.1317482  70.0466766  86.9109650  86.7237549  26.3162041  83.7180786
  86.9696579  25.7460995  84.4466019  85.7995529  26.5137463  83.8699265
  45.6154366  63.6167870  33.2741470  45.3197670  63.1481705  32.4936295
  45.8559799  62.9259720  33.8915176  58.9069557   3.4134662  15.2975349
  58.0672874   3.6088221  15.7134924  58.7680244   2.5732563  14.8605261
  30.6989956  39.0999451  17.0289574  30.8766155  39.3542595  17.9344997
  30.1665382  39.8145256  16.6795368  56.1307068   2.0818524  23.1873055
  55.3868332   2.4963808  22.7502098  56.3052330   1.2959582  22.6694794
  85.1101074  54.5497627   1.9967041  85.6013260  54.1376343   1.2860044
  84.4005814  55.0183640   1.5571470  81.6511459  14.7124777  58.9569817
  81.3168182  14.9658499  58.0965996  80.8826675  14.3881636  59.4265556
  77.2586899  18.2537746  33.8073540  77.5382385  17.3509159  33.9587822
  77.5203247  18.4373837  32.9050980   3.3935239  59.6394424  72.9898834
   3.6757076  60.3192902  72.3779984   2.6384184  60.0196495  73.4387665
  56.0009727  25.5433998  69.2365112  55.6547966  26.1425190  69.8979111
  56.9344444  25.4777870  69.4378967  12.3967562  69.9144440   2.5447705
  13.3198090  69.6610718   2.5423529  11.9206858  69.0846329   2.5763204
  79.2721634  61.0029526  62.5552635  79.7112808  60.4394989  63.1923866
  78.3423615  60.7990685  62.6559525  58.5106277   7.7612114  11.5400991
  57.7962608   8.0312824  10.9630604  58.8659973   8.5818043  11.8815250
  83.2647934  60.6185760  57.0622482  82.9428024  60.3341560  56.2068787
  83.9270935  61.2797356  56.8611221  58.0762215  16.3993340  63.3539391
  57.4012222  16.4189892  62.6755447  57.7876625  17.0462360  63.9977455
  66.5114899  22.3031864  66.8333511  66.3398056  23.0008812  67.4657898
  67.3048248  21.8764420  67.1569824  77.1076813  54.8293495  30.0954132
  76.1726303  54.6572304  30.2062836  77.2272186  55.7215538  30.4208527
  18.9184933  42.3958931  26.6449871  18.3274918  42.1609154  27.3603439
  18.4475136  42.1409149  25.8516426  20.1467705  53.8941345  42.8069344
  20.2390976  54.8152046  42.5633392  19.6940784  53.9135971  43.6500969
   0.4092990  41.5649261  59.0473557   0.2591417  42.4579430  58.7371902
  -0.3797392  41.3480034  59.5439377   2.8952577  13.9283867   1.2960470
   2.3796413  13.1674232   1.0290146   2.7861190  14.5547152   0.5804823
  84.8946457  58.9650230  39.0170021  85.1782227  58.2972717  38.3925629
  84.8838272  59.7772598  38.5106621  40.7635956  22.4402523   6.1110029
  41.5906754  22.7881355   6.4443951  40.0985107  22.7999477   6.6979551
  43.6096725  29.1149979   5.3287234  42.8721962  28.5328445   5.1458092
  44.1804657  28.6051083   5.9035621  10.3790541  51.8247566   7.8071289
  10.0401144  51.5704880   6.9488173  10.9732113  52.5525475   7.6240053
  55.7282639  35.2732697  48.9762955  55.5815544  35.2978401  48.0307236
  56.6184464  35.6064987  49.0892944  78.3458405  37.1889000  51.5173454
  77.5204239  36.9521255  51.0944290  78.9076385  36.4242630  51.3910561
  28.9908695  32.4947510  77.5231094  29.4170990  33.1679192  76.9926376
  28.1415901  32.3604584  77.1024933  67.0595245  50.2922478  34.1351891
  66.8411331  51.0324516  33.5689392  67.5769501  50.6765556  34.8428688
  81.0185089  62.5075226  18.9804764  80.3976059  61.7964020  18.8223095
  81.8338013  62.0653954  19.2172356  36.7037849  16.7556267  68.5388870
  36.9552422  15.8591747  68.7611008  37.0747147  16.8996201  67.6683121
  71.3857422   0.7753691  28.7930927  72.3194046   0.9643114  28.8869648
  70.9479065   1.5463650  29.1537800   0.1252533   8.1881723   5.0533152
  -0.4622194   7.8044052   4.4022923   0.7118871   8.7488203   4.5456076
  18.5576210  54.9917412  77.4988861  18.9254112  55.4726067  76.7574539
  18.0224953  55.6369133  77.9610825  25.2374516   6.5353751  10.5095863
  25.4802246   5.7063580  10.9219255  24.4304504   6.7963009  10.9533186
   9.3659935  38.7272758   8.4045115   9.3768339  39.0289192   7.4961476
  10.2417059  38.9288063   8.7342739  46.2632370  20.1261406   8.4781818
  46.0783730  20.7009525   9.2209120  45.5336113  20.2710171   7.8757825
  25.2623043  42.1545982  25.5432568  24.5628414  41.5212288  25.3825512
  25.2872219  42.6902390  24.7503510  11.5120182  45.8199577  60.4146843
  11.6292219  45.7028961  59.4719276  11.5728645  46.7658768  60.5479774
  48.8586273  34.1570854   6.3176875  48.4046440  33.3280830   6.1663980
  48.3453636  34.8032341   5.8326302  28.4288578  60.8141251  83.2454224
  29.0255966  60.1755524  83.6357574  27.7426910  60.9333153  83.9020844
  32.0342026  69.4647751  79.1310196  31.4101486  68.7721863  79.3480606
  32.8856163  69.1078873  79.3839111  72.0287933  48.6106987  11.0741339
  71.6169434  49.4727821  11.1326408  71.2952728  47.9970093  11.0346098
   0.8584661  68.7344284  80.2181625   1.4539860  67.9864273  80.2638626
   0.3374967  68.5780334  79.4305344   7.9298449  66.3154297  62.7889328
   8.2998400  65.6766891  63.3983192   8.6876898  66.7971573  62.4575195
  77.3348770  54.5096817  12.4329166  76.4033356  54.2952843  12.3828802
  77.4087448  55.0793686  13.1985741  27.7767925  67.3837662  39.8563118
  27.5129204  66.4830856  39.6682243  28.6343288  67.3000031  40.2732620
  31.7313995  65.3766251  35.2783241  31.2124043  64.9730530  34.5826187
  32.0408707  66.1994781  34.8996658   8.1090612  68.7964630  54.0661545
   8.8981037  69.1607208  53.6649590   8.1201239  69.1308746  54.9629707
  55.0135689  71.4764557  40.6311798  55.6946030  70.8941345  40.9678268
  55.4878235  72.1215515  40.1066170  13.6731796   8.8404360  83.5581589
  14.6093979   8.9483938  83.7257080  13.5450926   7.8927741  83.5161667
  85.0571823  12.2930689  45.5186157  84.6518707  12.3017702  44.6515083
  85.5026245  13.1378365  45.5832748   2.1018887  46.0458069  44.9973679
   1.7142414  46.1886673  44.1339111   1.3834137  46.1995354  45.6108742
  79.7277145  52.0425987  41.9880180  79.1675110  51.8692398  42.7445564
  79.1655121  51.8781052  41.2309837   8.2381201  30.2888775  60.1337357
   8.2500200  29.4631062  59.6498032   7.9745364  30.0430412  61.0204849
  86.8761826  16.6863384  16.9433441  87.0907593  17.3651237  17.5832195
  85.9197769  16.6474133  16.9470692  36.5785217  50.3013535  74.7005997
  35.6239281  50.2372017  74.7300644  36.8528938  50.2115097  75.6132278
  37.0763435  39.7977219  60.4083519  37.2793312  39.3052101  59.6130791
  37.2087784  40.7134972  60.1632919  65.0058289  28.0071373  33.0653763
  64.6647644  28.6829643  32.4795723  65.8244171  27.7264252  32.6562920
  84.7766647  63.1236267  69.2402954  85.5305405  63.3188667  68.6837158
  84.8329239  63.7611732  69.9520569  59.6070976  60.9118042  88.5256424
  60.3177032  60.5164413  89.0305786  59.5055618  60.3386726  87.7657394
  28.8720245  53.2361984  82.3868027  29.5283108  52.8997231  82.9969711
  28.9071541  52.6357651  81.6421738  43.8739014  37.3034973  60.2075729
  43.1336174  37.2392159  59.6041794  43.8660202  36.4742088  60.6855392
  47.4297600  32.3348541  27.8856697  48.0836296  31.6487942  28.0198822
  47.1631508  32.2361183  26.9716644  61.8573380   2.0624170  48.6101112
  61.8333931   2.1313241  49.5645294  61.1012192   2.5693939  48.3143272
  31.4570560  52.4880371  59.9015198  30.7094765  52.0002975  59.5558815
  31.5116520  52.2236252  60.8198509  64.7078018  34.4141197  19.9380379
  64.7897873  35.3673706  19.9667301  64.2320938  34.1904526  20.7379818
  62.5845451  57.4182167  87.4447708  63.3458939  57.7396164  87.9277649
  62.4696808  58.0473175  86.7325439  21.3867149  48.9584923  76.3150482
  20.4692955  48.7401810  76.1509933  21.8202496  48.8195229  75.4730453
  21.6248779  33.7571449  76.2611847  21.3163357  32.9086418  76.5791092
  22.3167057  33.5414543  75.6358185  62.0458412  15.1485453  83.1849442
  62.1329346  15.9815845  82.7215958  62.8737335  15.0480995  83.6547623
  23.8430843  66.2284546  44.8292084  23.2495880  65.4987946  45.0069313
  23.3429279  67.0081863  45.0702438  81.4121017  17.7761459  46.5089111
  81.7980499  18.4218349  45.9169960  80.8686295  17.2274857  45.9433632
  58.1456490  27.3413696  61.3429489  57.3298531  27.8417130  61.3237877
  57.9265747  26.5098667  60.9224205  51.5274696  49.1159325  51.8138351
  51.7569084  48.5999260  52.5867043  52.3266945  49.5981750  51.6019096
  29.9319515   4.3496757  28.5902672  30.3962593   4.8331285  29.2735863
  29.6287022   5.0247521  27.9831905  15.8105698  60.5195160  38.6347771
  14.9855051  60.9787025  38.7917709  16.1560440  60.3418808  39.5096054
  47.9641190   5.3259244  87.9362183  47.9115257   4.7204604  87.1967087
  48.3748512   6.1110783  87.5741959  75.1122360  20.9944954  83.4638290
  75.7248306  20.2621956  83.3952332  74.6077652  20.8113232  84.2564087
  48.4801064  65.1372833  61.7272186  49.1938477  65.7664413  61.6225166
  47.9964371  65.1843414  60.9025459  52.5361252  35.9156303  81.7305374
  52.1468925  36.2234497  82.5490570  51.7870102  35.6892052  81.1793671
  35.9156990  60.8818512  34.6227531  35.5178185  61.3940697  33.9187927
  35.9223022  59.9838905  34.2913132  50.9086952  63.2346497  65.3323975
  50.1243896  63.1327858  64.7932129  50.7728386  64.0590363  65.7994766
  60.8641586  39.2153244  75.1511459  60.7211418  38.2891960  75.3462448
  61.7473183  39.3944778  75.4738922  58.5647888  24.9565239  69.6831207
  58.8593178  24.0507298  69.7780991  59.1864281  25.3473778  69.0690994
  74.1817017  37.3543129  12.5890627  73.8090134  37.7713509  11.8122644
  74.1044846  36.4158020  12.4173870  17.7800617  11.5227098  15.3108702
  18.3248692  10.8128872  15.6508226  18.0141144  11.5817213  14.3846035
  27.2797871   6.7398787  12.7492380  27.9714661   7.3970838  12.6724749
  26.4664364   7.2437644  12.7210903  23.8111019  49.0618896  32.3048668
  23.0768147  49.3173027  31.7464638  23.4174900  48.9118690  33.1644020
  44.1062164  20.5763321   6.5839705  43.4973907  19.8401909   6.5234952
  43.5719414  21.3033791   6.9036303  35.0113907  39.7511330  87.4081192
  34.3545723  40.2393990  86.9117203  35.4196396  40.4062424  87.9741592
  56.5697365  48.5937233  49.8322067  55.9178238  47.9958801  49.4663887
  57.3531036  48.4474487  49.3019447  85.9328156  26.1072063  25.7434521
  85.6050491  25.3233585  26.1843414  86.6058655  25.7819672  25.1455765
  56.3551674  24.0178394  23.8365211  57.0591049  24.1918106  24.4613724
  55.6162910  23.7418556  24.3788528  32.2114449  56.9555626  35.1172676
  33.1337242  56.9995613  35.3696442  31.7361889  57.2496872  35.8943481
  31.0013523  53.7040710  16.3240318  31.1717396  53.9686470  15.4200411
  30.3145313  54.3001709  16.6226501  22.1017265  38.9511757  14.7086935
  22.6164074  38.7903709  15.4995661  21.7702389  38.0885773  14.4591484
  85.8109360  53.3210716  44.4647903  86.6066895  53.1306839  44.9615402
  85.4228134  54.0725327  44.9130135  69.3446121  40.6273346  84.9987030
  69.3196411  41.5419197  85.2800293  70.2222290  40.3276863  85.2358093
   8.1918106  21.2911873   0.2458274   8.4072084  21.6441708  -0.6174443
   7.6711240  21.9779682   0.6622992  20.3397026  55.7656403  52.4227562
  21.2730083  55.9750175  52.4592819  20.1879368  55.2133865  53.1897087
  70.9848785  63.9398804   3.2889047  71.4939880  64.7484741   3.2321212
  71.4978714  63.3738708   3.8657105  26.9749756  44.8177528   4.0714355
  27.5864220  45.2354546   3.4648926  26.8249874  45.4750824   4.7508864
  55.2747765   5.1038280  72.5006714  55.1669579   4.3451042  71.9271317
  54.8574219   5.8233447  72.0270233  38.8307800  70.2154541  17.8935871
  38.1024284  69.8132172  17.4203606  38.4132271  70.8218155  18.5053101
  68.3922195  68.9346008  14.0543661  69.0800018  69.5414963  13.7807713
  67.6835403  69.0771103  13.4269133  63.9082298  49.8775024  31.3898277
  63.3383942  49.9654541  30.6257687  63.4182434  50.2876320  32.1025238
  64.7679749  30.7903881  77.0217667  64.2844772  30.1303596  77.5185776
  65.6768341  30.4911137  77.0472107  59.8191757  24.8870888  67.3233490
  59.2640419  25.6657600  67.3649063  60.5896568  25.1682911  66.8298798
  22.2586308  43.5648308  20.5268307  22.1960354  44.5066605  20.6857967
  22.9471416  43.4784546  19.8674946  80.6108017  43.6407356  33.9689751
  80.3191605  42.7471237  34.1496315  81.5314941  43.6497116  34.2306595
  12.6403389  14.6192617  88.5489655  11.8119984  14.7174091  89.0184860
  13.2588091  14.3183804  89.2146912   5.3180494  25.8748856   7.4050035
   5.0762863  25.8714886   6.4788442   4.8837037  26.6490650   7.7630835
   6.5978293  26.4675255   0.3954735   7.4823599  26.6841373   0.6902899
   6.4053674  27.1163521  -0.2814423  54.5088997  19.1842918  32.0330467
  53.6282692  19.5309715  32.1763496  54.3661613  18.3013706  31.6920109
  72.4044876  52.4676895  58.1044006  71.9738464  51.6152153  58.0406685
  72.3684845  52.6851768  59.0358696  55.6896667  34.9289055  26.0599480
  56.1229172  34.6000938  26.8476086  56.3128738  35.5519104  25.6861649
  40.5096893  26.3801804  75.0987778  41.4437675  26.3787727  74.8896561
  40.3426399  27.2575779  75.4430161  57.0893555  49.4914627  20.1376724
  57.5345917  49.7982445  20.9275322  57.2507133  50.1775360  19.4899883
  11.2030153  21.0821648  81.2158661  11.2128038  20.1340981  81.3474274
  10.3044300  21.3427582  81.4180222  41.5791855  52.6254196  22.6589603
  40.7540741  52.7551498  22.1914215  41.5083008  51.7460899  23.0304222
  52.5159454  68.2863388  74.8293076  53.3303528  68.6867828  75.1336365
  52.4108315  68.6080704  73.9339447  50.4096565  20.7723789  83.8024750
  50.5214767  20.1365318  84.5091782  50.9607162  20.4415169  83.0931854
  60.7140579  16.6174374  17.2689705  59.9117203  17.0603619  17.5451965
  61.3709564  16.8903217  17.9094791   9.8993282  57.7888756  34.6703987
   9.0177956  57.7664566  34.2980690   9.7795076  58.1518135  35.5479813
  47.5424194  68.2838287  88.4711151  46.9360657  68.6512299  89.1142197
  48.2131920  68.9579010  88.3619690   5.5485830  69.0586243  57.3434944
   5.2317719  68.3732071  56.7552223   5.3919930  68.7116928  58.2217636
  53.7595177  69.9592743  45.4425964  53.8684502  70.5642090  44.7088203
  53.7330170  70.5229340  46.2157860  20.4957771  63.4574280  10.5400753
  19.5466671  63.5324593  10.6390257  20.6188946  63.1382179   9.6461077
  31.4621639  17.0759487  14.0289745  31.3515968  17.4332085  14.9100943
  30.5739040  16.8605804  13.7446442  64.5679626  50.2997589   7.2829885
  65.0361328  49.4797096   7.4397078  64.1783676  50.1911087   6.4154372
  75.8262177  34.1026268  68.5923691  74.9532776  33.7099419  68.5912399
  76.1100616  34.0580826  67.6793060   1.1220837  39.3313637  53.9522972
   1.4746175  39.0990829  54.8113632   1.3575581  40.2520447  53.8377342
  70.3792953  62.1683655  29.4730835  69.9021225  62.9639778  29.7087479
  69.8792953  61.4601402  29.8788509  77.5942459  67.1876984  27.3169098
  78.4508057  66.9828262  27.6918221  77.0541916  66.4245300  27.5222244
  35.0601959  46.1926956  13.7167435  35.7527161  46.8527412  13.6853065
  34.5351028  46.3589973  12.9338932  22.7095108  43.5716095  82.4404449
  23.5685863  43.9180489  82.6816864  22.7508659  42.6443672  82.6744308
  58.0402679  40.0794487  39.1939545  57.4106483  40.4053917  39.8370476
  57.7029037  39.2195396  38.9429970  52.8667030  15.6980553  41.5881767
  53.1207695  14.9734631  42.1597099  52.9098320  16.4722576  42.1494102
   8.4868650  65.7446823  79.4210968   9.3483696  65.5109940  79.7666931
   8.6582508  66.0306244  78.5238266  25.3106537  27.0644665  70.4400177
  25.8452702  26.4868279  69.8952713  24.4455338  27.0466156  70.0307770
  83.4401321  44.8626595   2.0169652  82.7226334  44.6561203   1.4179920
  84.0602875  45.3612328   1.4849285  73.5281219  41.1062088  88.6719360
  73.7178345  41.7119751  87.9554977  74.3671341  40.9933167  89.1186523
  29.6816120   1.1411107  24.6140671  30.0509949   0.2592656  24.6603012
  29.6097603   1.4188689  25.5272598  54.7500153  54.0091743  85.0942917
  55.0537071  54.8878937  85.3220215  53.8539162  53.9713135  85.4286575
  11.7509117  43.8239250  46.4438171  12.3608084  43.7748299  45.7077141
  12.1729727  44.4169846  47.0654106   8.0078926   4.0276380  74.1762695
   8.8961649   3.8178387  73.8878479   7.9605217   4.9825749  74.1306305
  20.1164646  53.6016388  75.0172195  19.3674068  53.2439232  74.5405807
  20.4334526  52.8711014  75.5483170  39.9992981  28.1677876  76.8651962
  40.0159340  29.1241150  76.8278732  40.1778984  27.9607468  77.7825089
  78.7836609   7.4636416  81.2349396  79.6986237   7.6168437  81.4707489
  78.3284683   8.2586555  81.5123978   4.0068374  68.5498505  28.1953659
   3.0602186  68.6890945  28.2228508   4.3715639  69.4174042  28.0205555
  10.4709415  27.0986443  69.7887726  11.3061838  27.2383690  69.3425903
  10.3183994  26.1560478  69.7218628  46.9783783  53.8791466  42.3819923
  47.3683624  53.5587387  41.5686798  46.3900681  53.1765594  42.6585693
  26.6310215  63.7390900  45.6309624  27.3758278  64.1358414  45.1792068
  26.6779976  64.0870056  46.5214577  63.7193832  66.2663727  18.3617382
  64.5198746  66.7107086  18.0824261  63.4740868  66.7045670  19.1766281
  11.7554989   9.7259579  70.9560623  12.6532936   9.8798046  70.6619034
  11.5494890   8.8442698  70.6455460  55.0560036  15.3282299   3.8400092
  54.3369560  15.3003550   4.4712195  55.4206009  16.2085819   3.9310136
  52.0423889  64.6862183  55.7301445  51.2008781  64.2570877  55.5754051
  52.4804916  64.1293030  56.3736839  84.4305420  27.9822102  86.0945892
  84.3587646  27.0335178  85.9894028  83.5969238  28.2435799  86.4857330
  37.2840614  22.3669662  82.7651062  36.9907150  22.1114101  83.6396790
  38.0108643  21.7742615  82.5735550  70.0786514  19.5316792  75.4067154
  70.5294647  18.7294044  75.6700668  69.2076569  19.4559345  75.7964172
  59.2428055  55.9232254  80.9593124  58.7131424  55.6687355  81.7149048
  59.0084038  56.8374176  80.7994843  53.4492569  18.6634884  67.8483124
  53.3900528  19.5978088  68.0477371  52.6148682  18.3015537  68.1466827
  15.5204563  54.4606094  51.4560966  15.0491066  54.8131561  52.2109299
  16.3528099  54.1536217  51.8155098   5.0641294  57.3677368  60.2607079
   4.3251801  57.9426575  60.0615807   5.5215836  57.2677803  59.4258575
  83.4013672   3.4811659  24.5040894  83.0622406   2.5920391  24.4007530
  84.2734070   3.4521570  24.1104546  31.8110027   3.7703335  38.0706673
  31.3513470   4.4711537  38.5330505  32.7234612   3.8603101  38.3455429
   9.4274778  47.3585014  48.0384674  10.2333851  47.4037094  48.5529594
   9.6945009  47.6049957  47.1529350  17.3082561  42.6240807  14.4902239
  16.6494980  42.0402145  14.1142340  17.2073059  42.5212593  15.4365158
  66.1348419  28.2837677  54.6694031  66.0409164  27.3659668  54.9244576
  66.5324860  28.7046814  55.4315987  73.6623993  30.6624470  41.8123360
  73.0169907  30.3637085  42.4529915  74.5076752  30.5088882  42.2344208
  46.6405106  21.2258720  81.1179199  46.1063461  21.4006748  81.8927383
  46.6560478  20.2713490  81.0480804  24.3752480  49.5264015  27.5724144
  24.4537563  49.4634209  28.5243092  23.6302166  50.1106529  27.4316711
  79.1691284  31.1009331   1.8007888  79.0314713  32.0349922   1.6432561
  79.2749176  31.0310936   2.7495575  42.0725975  15.3902330   7.0837746
  41.8239594  14.9401960   7.8911638  41.2584038  15.7814989   6.7671776
  68.2530441  37.4212112  24.1163177  68.4225922  37.3542786  23.1766338
  69.0390472  37.0617981  24.5277176  25.4554882  51.7609978  17.5858440
  25.9231033  52.1718292  18.3130188  25.8632851  52.1275291  16.8012505
  76.1595993  66.5834732  14.3736820  76.5138931  67.4096909  14.7024298
  75.2246094  66.7528534  14.2582436  44.6543465  16.1468201  63.8888741
  43.8677597  16.0774021  64.4298859  45.3636322  15.8481483  64.4580307
  39.6042404  50.7074814  35.9496994  40.0768814  50.1098938  36.5291214
  38.6800842  50.5293961  36.1241989   2.1721034  55.3705978   6.9715171
   2.1608930  55.3686676   7.9286499   1.6751256  54.5906754   6.7245960
  34.0625229  44.9575500  30.3612518  34.2115974  44.6861649  31.2669888
  33.3756485  44.3705177  30.0452919   7.7102537  58.9367485  52.8828125
   7.3678064  58.3862152  52.1786270   8.4849548  59.3536911  52.5056763
   2.2138450  20.6897793   0.2667069   2.0581613  20.6010971   1.2069887
   1.3527801  20.5628586  -0.1316525  76.5006943  40.1185799  85.1257324
  76.9695206  39.3330956  84.8438797  75.7523270  39.7859650  85.6212540
  63.1160545  12.4077129   8.3724003  62.2621651  12.4870300   8.7976189
  63.7347450  12.7661228   9.0087929  45.2289886  68.0333786  18.2209148
  44.6271439  67.3826065  17.8596554  45.5612106  67.6325302  19.0241470
  33.5110397  22.3888702   6.0968213  32.5849609  22.2562904   6.2993779
  33.5558434  23.2814751   5.7540646  17.4152184  35.2672386   7.8758383
  17.7289925  35.2787018   8.7800760  16.6688805  35.8665771   7.8736825
  29.0883217  66.4143143  76.2416534  28.8852768  66.4550476  75.3071213
  28.5262012  67.0799484  76.6381226   1.8831292   9.1613941  30.7699490
   0.9383616   9.2931499  30.6906624   2.0239191   8.2588205  30.4839935
  72.7453156  35.1707191  15.3169918  72.2532654  35.4135933  16.1012955
  73.2715225  35.9444275  15.1152153  36.9320946  60.2023315  39.9287224
  36.1189728  59.9841118  40.3841820  37.2082672  59.3798714  39.5243416
  16.7240257  18.2424717  83.1361694  16.1176758  17.6711178  83.6074677
  17.3064671  17.6419334  82.6710358  61.3451614  38.2955818  78.4512024
  61.4317360  37.3808708  78.7195969  62.2204895  38.6640816  78.5705338
  58.9047966  32.8709946  20.2052803  59.6011276  33.4867897  20.4336395
  59.0454597  32.6838188  19.2771568  54.3789253  57.0619621  67.1585693
  54.9504013  56.2949219  67.1946487  53.5946236  56.7991714  67.6402740
  67.2898560  57.7429314  52.0654297  67.4729156  56.8040581  52.0302048
  66.7798920  57.9173622  51.2743874  68.3840485  46.8875046  69.6455765
  69.2106018  47.3702278  69.6496735  67.7300568  47.5300446  69.9206619
   9.3738546  47.6796379  52.1652451   9.4546051  47.1303368  52.9449806
   8.9402542  48.4743996  52.4760132  73.3854446  50.5765457   0.4037764
  72.9697266  51.3516922   0.0262062  73.3363266  50.7151527   1.3496133
   3.6038127   2.1200211  24.4480133   2.8889613   2.3224094  23.8444748
   4.3453050   2.6289608  24.1202908  79.1355972  27.1363525  14.2465115
  78.6732559  27.8341541  14.7107782  78.6775055  26.3352203  14.5006189
  10.9141197  53.2863846  62.6519432  10.9987030  52.5800781  63.2924232
  10.8654861  52.8390503  61.8071022  58.5295792  61.7031593  11.8021717
  59.3332825  61.3156738  12.1487932  58.1545372  61.0198975  11.2465391
  47.1171608  23.6486073  73.8457336  47.1508369  24.3795319  73.2286072
  47.0229149  22.8727283  73.2931366  21.3754578   4.6484208  88.9119110
  22.0855694   4.0236688  89.0590744  21.5607662   5.3681164  89.5151749
  62.3934021  64.6122208  67.2457657  62.1309700  65.5308380  67.1866379
  61.6829529  64.1908188  67.7294159  70.6880798  30.2663383  38.9930878
  71.2694397  30.9970531  39.2035980  69.9974060  30.3116112  39.6542625
  54.8562813  56.8513222  61.1607094  55.0222397  56.1514778  61.7923012
  55.7172127  57.0515518  60.7933693  59.9174080  10.3471251  62.5146675
  59.5818024  10.6389141  61.6670456  59.5166512  10.9419231  63.1485748
  51.3511124  59.0121193  51.7867203  52.2514648  59.0757141  51.4680481
  51.4286613  59.0783997  52.7384682  73.2009659  41.9466743  32.5560875
  72.6774673  42.2756844  31.8253822  72.7988129  42.3352776  33.3329315
  49.6407280  46.6583786  28.8776054  49.9997139  46.5998878  29.7630100
  50.2923279  46.2256393  28.3258953  52.8560104  61.8102608  86.4381027
  53.5669212  61.2244339  86.6981812  53.2822990  62.6551857  86.2945480
  36.2506981  21.6993961  80.4812851  35.2937088  21.7182102  80.4745178
  36.4849701  21.7631321  81.4071808   1.3829874  13.2178736  30.7652645
   1.3785040  12.3179054  31.0912533   2.0352135  13.6647978  31.3047924
  63.5934944   0.9311721  59.0693398  62.7775650   0.8306925  58.5790405
  64.2798157   0.8888819  58.4034576  16.1083374   0.7910053  80.4212341
  16.2523994   1.2528776  79.5953064  16.9331970   0.3347344  80.5875320
  13.4755316  42.2972260  73.2669601  13.1559362  42.2342529  72.3668900
  14.4097042  42.0982895  73.2038879   5.6554050  19.0575562  65.5550766
   6.1009049  19.4001484  64.7802277   4.7379851  19.3008480  65.4310532
  71.0932465  59.6622238  43.8197632  71.4767075  58.9508667  43.3067741
  70.7245102  59.2301483  44.5902023  77.4396667  22.8384514   9.7561693
  77.4235153  23.7915688   9.6693411  76.7409592  22.5333500   9.1774168
  54.3978004  52.5855293  21.1184101  53.4764786  52.8108101  20.9894028
  54.4257736  51.6326637  21.0317917  17.4344521  28.4880314  22.0102272
  18.0840473  28.3065109  21.3310318  17.4115696  27.6904926  22.5390377
  67.5121078  57.4555244  65.3809586  67.3506546  56.9184761  66.1566849
  66.6422577  57.7426033  65.1031265  63.0870934   6.0036540  43.4821358
  64.0232620   5.9714265  43.6790810  62.7796936   5.1097989  43.6329956
  68.5344543  70.9967575   2.4013889  69.3998413  71.1299515   2.7881696
  68.3133926  71.8427353   2.0119209  10.8890219  45.5334206  75.9918823
   9.9716349  45.7897987  75.8975296  11.3751326  46.1999779  75.5064621
  74.1668396  59.9203682  54.8544388  73.3174210  59.6262093  54.5255127
  74.7301102  59.9383812  54.0807266  53.8919983  25.0296021  60.5385323
  54.0031738  24.4423180  59.7908897  54.3163071  24.5743923  61.2658424
   3.1225948   6.4138379  27.5602436   2.7322042   5.9576058  28.3056831
   3.7534907   7.0174317  27.9525166  78.4857330  37.9406624  81.1433105
  78.7611542  38.5825233  81.7978287  77.5298157  37.9433441  81.1926651
  53.3833313  63.2794228  42.0199280  53.8390694  63.8914642  41.4420547
  53.9148903  63.2604218  42.8157425  44.1647148  58.2339439  54.5361214
  43.7496986  58.9380646  55.0343208  44.7296906  58.6851578  53.9088707
  52.7423019  66.2340546  43.9494820  52.6244583  66.6859512  43.1139374
  51.8711319  65.9028091  44.1675873   7.3090649  33.3996887  71.1637192
   6.7606874  34.1529579  70.9444046   8.0284491  33.4354935  70.5332947
  13.1945763  34.5989456  14.3903847  12.8667974  33.9170685  13.8040104
  13.8518562  35.0641937  13.8729286  21.6864052  11.7356358  68.9801407
  21.6523323  12.6905355  68.9232407  22.3749084  11.4834528  68.3648376
  41.8134193  38.7967644  89.3567123  41.8596420  39.1211052  88.4573288
  41.1504936  38.1068497  89.3287506  60.7446518   1.6312798  17.5177574
  60.0835800   2.2939322  17.7180347  61.4947319   1.8688344  18.0628986
  41.3060760  56.0091972   9.4236612  42.1883736  56.3749886   9.3605509
  40.9129257  56.1831818   8.5684462  59.0814438  47.8727875   8.4170313
  58.8953171  48.0592995   9.3372507  58.4221306  48.3706474   7.9336348
  13.2359762  56.8828011  65.6318359  13.3510799  56.0171928  66.0238876
  13.7647305  56.8567696  64.8343506  76.2812271  26.1296177  11.8171740
  75.8394623  26.5635376  12.5471010  75.8621750  25.2709255  11.7599392
  71.9966660  70.7504959  45.1417046  72.8023911  70.2345428  45.1706200
  71.8506317  70.9145813  44.2100525  26.3081684   9.8452263  20.3183289
  25.8763962   9.3594532  21.0210590  25.8816586   9.5386667  19.5181160
  25.5164547  53.3868980  59.0777397  26.1405792  53.8741035  58.5398407
  25.3097305  52.6090775  58.5595741  50.0948029  31.5757713  49.0997925
  50.4387436  31.9143009  48.2731514  50.6251335  32.0027084  49.7726250
  21.6658936  65.7821426   6.3235459  21.6698380  65.6849136   5.3713045
  20.7712002  65.5621185   6.5830626  74.4657516  69.2749329   9.7753429
  75.0191650  69.6292877   9.0793581  74.6739807  68.3408585   9.7947378
  -0.2144590   2.1157291  31.4434185   0.2995903   2.7668071  31.9209995
   0.0242050   2.2481494  30.5259571  43.3211212   2.6733093  56.9135284
  43.5945892   2.1825554  56.1385422  43.1845894   2.0045805  57.5846405
  66.5649033  42.5799255  60.5833702  67.4149628  42.1663246  60.7335930
  66.1896820  42.6807899  61.4581642  13.0754471  48.5420036  18.1729431
  13.7075510  48.4814377  18.8891888  13.6102142  48.6941948  17.3937798
  18.7448349  61.6010704  87.9710999  18.6255360  62.1908836  87.2267075
  19.1283684  62.1515694  88.6538010  33.4925766  55.4032516   8.6898155
  32.7980499  56.0619316   8.6883678  34.3001213  55.9064560   8.5854712
  58.4894409  47.7896156  24.8860016  59.3057709  48.2873878  24.8406429
  58.5086937  47.2269287  24.1118927  67.0873947  12.0045595  54.5075760
  66.3561401  11.4897814  54.1662483  67.6642227  11.3593693  54.9165154
   8.1730118  13.2732716  80.5638657   8.0421324  13.8593588  81.3092499
   8.3377714  12.4169350  80.9585419  84.2490616  56.0643349  10.4415789
  84.0749130  55.4598427   9.7201281  85.0865250  56.4700241  10.2172842
   7.1957273  31.2032509  85.6227646   7.2031002  31.7902546  84.8667221
   6.9960217  31.7724419  86.3659821  21.8666878  44.1226234  29.6669025
  22.5234356  43.7450371  29.0818043  21.1111565  44.2890854  29.1032581
  55.5177765  68.1453552  11.8965397  55.2506218  67.6332932  12.6598568
  56.2383614  68.6898193  12.2136354  29.5980301   5.3891668  74.3487473
  30.3581257   5.1882501  73.8027420  29.7002163   6.3147502  74.5702972
  53.1795464  39.0871544   4.9393744  53.3557281  39.1689873   4.0020938
  52.4697685  38.4473190   4.9946957  44.4242172  29.6941586  23.3616276
  44.4511719  29.4135952  22.4468670  45.2328300  29.3505173  23.7414761
   2.1653247   5.6883154  34.5521126   2.0294330   5.6640115  35.4993057
   1.6861145   6.4641862  34.2612267  67.1787720  50.1709137  54.4911003
  67.6495056  50.9856148  54.6668816  66.2540741  50.4108200  54.5512428
  62.8916397  44.3090515  49.7871094  62.1726608  43.6853981  49.8888817
  62.5772171  45.1081467  50.2099762  16.8355408  70.6581116   0.8754158
  16.2398472  71.3981018   0.9929067  17.3217583  70.8663712   0.0776358
   3.8098068  47.6473351   3.7510736   3.4314375  48.3530502   4.2755108
   3.0659564  47.0858192   3.5328593  38.3180161  46.2643661  69.5603638
  39.1295700  46.0047951  69.1241989  38.5925674  46.5325165  70.4372559
  61.8556366  59.5976372  15.4196539  61.2205887  59.3784828  16.1015034
  62.0833359  58.7558632  15.0249367  79.0632553  -0.2312061  69.9919968
  78.2821045   0.2752980  69.7695236  79.7085876   0.0214074  69.3317261
   6.6214857   8.2044497  17.0017147   7.0746198   8.8991604  16.5239315
   5.7162323   8.2536821  16.6945934  76.7880478  52.4311218  80.1257477
  77.7217102  52.5050354  79.9281616  76.7458038  52.4191170  81.0819397
  54.7792282  35.7028618  14.6016598  54.9993439  35.3018456  15.4424725
  55.6068268  35.7211494  14.1210585  49.5705528  50.7463913  50.3988113
  49.8859940  49.8650551  50.5987473  50.2619057  51.1318626  49.8605995
  51.0763512   2.0904832  44.7194481  51.0386353   2.4028411  43.8154335
  50.4201927   1.3947527  44.7600365  61.9657364  61.0482712  49.3996658
  61.6287880  61.4870720  50.1807861  61.2982559  61.2030640  48.7312813
  36.8582344  37.7798805  28.9113464  37.0038948  37.0135002  29.4660282
  36.5802193  37.4173851  28.0701923  45.4408150  53.1792450  49.7397728
  44.5523529  53.0335350  49.4147568  45.7054253  54.0118141  49.3485680
  35.1973267   3.4918709  41.9889717  35.8813324   2.9192915  41.6418114
  35.6049576   4.3571725  42.0253448  16.7065678  52.4896851  43.2591515
  17.3635731  52.5677795  43.9508705  16.2600899  53.3363724  43.2561951
  84.2025528  28.1918926  43.2979050  84.1662750  27.3000507  42.9521675
  83.6313171  28.1745205  44.0657692   1.4573784  57.5727463  81.5755539
   1.5721798  57.0505714  82.3695221   1.0050123  58.3626175  81.8716888
  78.7299957  36.2296104  45.9132347  79.3902359  36.3193207  45.2260170
  77.9135666  36.5089531  45.4989281  69.6014404   5.6168766  62.4504280
  69.0695343   5.8395200  63.2144547  69.0166855   5.1037159  61.8927956
  65.7027206  29.5610733  10.8539104  65.3840714  29.0854855  11.6210527
  65.2345276  29.1683960  10.1171427  41.3560867  33.4289055  31.1043148
  42.1251221  33.7597122  30.6402168  40.6728096  33.3858032  30.4353580
  10.4344749  65.9282074  26.1945210  10.1562538  66.8317337  26.3444118
  11.2760391  65.8588257  26.6452847  77.6739044   9.0691957   3.1806540
  77.7976532   8.3506393   3.8008106  78.4819107   9.5788984   3.2403097
  73.0874176  28.7531204  38.0125580  72.6191177  29.3577652  38.5881767
  72.7386017  27.8903885  38.2367325  35.7583199  48.0712357  20.4307232
  36.0359383  47.5656967  19.6667938  36.3471336  47.7898903  21.1309910
  68.2237473  66.3055801  59.7381554  68.1773987  65.9917908  60.6412697
  69.1515961  66.4940872  59.5974197  70.4713440   8.1990805  44.9818115
  70.3251190   7.7464280  45.8124504  70.3044510   7.5339670  44.3139763
  21.6265087  48.5410995   1.7668504  22.0525532  49.2361946   2.2684078
  21.8434887  47.7373886   2.2392862  78.6867523  55.1298637  82.9002151
  79.2433929  55.6596947  82.3295441  78.9498138  54.2272339  82.7205200
  14.4508038  16.1671238  72.2272644  14.9562893  15.6727352  72.8724747
  13.7783012  16.6140728  72.7412796   4.2202773  44.0454979   3.9951744
   3.6752717  43.6071320   4.6486540   4.7570872  44.6554222   4.5011964
   0.5760858   5.5016494  50.5755119   1.2217356   5.0896168  51.1496201
   0.2314442   4.7817597  50.0471077  38.8649673  50.2407341  61.6468697
  38.6805534  49.3524513  61.3416214  38.0017242  50.6315269  61.7822266
  51.3812103  35.6860847  71.0274506  51.2968330  36.2238464  71.8148117
  52.2467346  35.9029236  70.6809311  25.3128052  22.2126522   6.4043369
  25.4973545  21.4298706   5.8852735  26.1742058  22.5250816   6.6811175
  28.5876961  43.5296440  65.8992462  29.3924351  43.8736153  66.2869415
  28.3839931  44.1392136  65.1899033  34.7890282  68.2480621  23.6007080
  33.9107933  68.0699997  23.2642117  35.0500336  67.4341125  24.0315266
  86.5728760  49.9665108  23.9646301  85.8623810  49.7354622  24.5629978
  87.3525772  49.9969444  24.5190430  68.2622147  28.4631138  31.3604813
  68.1534195  27.6284294  30.9047413  69.1784363  28.4670868  31.6375370
  45.2535553  47.2980499   1.1557422  44.3345375  47.4856262   0.9648224
  45.4297791  46.4751015   0.6997445  50.7132988  52.9143944  22.8314171
  51.3172035  53.4632721  23.3316784  49.8944511  52.9468155  23.3260574
  37.8351593  40.6732979  64.6183472  37.8333015  39.9149551  64.0342712
  38.3030090  40.3740196  65.3979492  73.5125427  14.5433054   7.0414457
  73.5978775  13.7637787   6.4925489  74.1154251  15.1770945   6.6527610
  72.6658020  40.2647209   5.5437441  73.2572784  39.5146904   5.6056986
  72.9144211  40.6990509   4.7277908  55.0006866  21.6922874  52.9807930
  55.2881355  22.1084175  52.1681175  55.6864662  21.9043026  53.6140289
  28.1233826   6.1808457  16.8692379  28.6201057   5.6616716  17.5016575
  27.7021809   5.5322995  16.3051376  62.2013855   6.7193322  12.9687223
  62.0641937   6.3501258  13.8411303  62.3854866   7.6452737  13.1267452
   5.6065788  47.6472626  57.2675209   5.5176368  47.0302887  57.9939270
   4.9999781  48.3565521  57.4800758  10.2191248  35.5864182  10.2375555
  10.3182878  36.5361671  10.3037138  10.5856276  35.3664207   9.3811045
  79.1734543  14.1338339  87.0071716  78.2232513  14.0720673  87.1048050
  79.4624863  13.2277794  86.8987274  86.0633163  50.4155083  62.9363747
  85.2761841  50.3209610  63.4727669  85.7708435  50.2221909  62.0456924
  33.7525063  55.8360977  31.7440720  33.7515984  55.2349701  30.9991722
  32.8261833  56.0021629  31.9189606  82.9577942  11.1345692  73.8898087
  83.7468033  11.5192575  74.2715302  82.7381973  11.7134094  73.1597748
   3.1557853  31.9343777  26.6812553   3.3271680  31.3490887  25.9434910
   2.2991090  32.3162041  26.4900856  13.3727655  54.4245491  12.5540371
  13.8850050  55.1585464  12.8932867  14.0264959  53.8106995  12.2192869
  38.8887329  40.6518097  27.8033104  39.7608185  40.9553604  28.0554104
  38.5219879  40.2828789  28.6068153  70.4247513  11.0138884  16.6384563
  69.9085159  10.7334785  17.3941669  69.8997879  11.7036476  16.2324104
  33.0358543  69.9782639  47.7920189  33.6997108  70.6666565  47.7516022
  32.4695129  70.2341232  48.5200462  38.1613197  41.9043694  59.1295471
  38.8015404  41.3772087  58.6515846  38.4432220  42.8083725  58.9897537
  85.9356995   9.9032393  65.6726227  85.6318054   9.3146811  66.3636169
  85.3092804  10.6269369  65.6817474  85.4121628  12.8978090  51.5008583
  84.6211472  13.1929588  51.0498428  85.9507904  13.6851397  51.5797424
  67.6317215  32.4896736  32.0568733  67.7820053  31.5917740  32.3525429
  67.1708603  32.9074440  32.7844086  30.3241272  59.3057480  50.9692230
  30.2128544  60.2131996  50.6857109  30.2186394  59.3372383  51.9200706
  13.4515009  57.1065903  68.8124619  14.2423935  56.6067047  68.6103821
  12.7315836  56.5192413  68.5822983  46.0822372  70.1356049  43.7849197
  46.9292679  70.5662460  43.6695061  45.8552589  69.8156738  42.9117851
  10.4985714  50.2866707  12.4407730  11.2711353  50.8478012  12.5079031
  10.5791826  49.8697433  11.5829229  17.8488922   9.3632536   6.6962304
  18.3386250   8.9088573   6.0107245  17.9157162   8.7889595   7.4590883
  29.3111134   5.3318148  68.8111115  30.1219730   5.0127807  69.2072830
  28.8556805   5.7788353  69.5245438  34.5032501  25.2763977   0.5422416
  35.1368523  24.5952644   0.7677152  33.6566010  24.8300610   0.5562651
  62.4753342   9.7183151  85.8942719  62.3905983  10.3720245  85.2002106
  61.7781601   9.9346380  86.5134506  86.1691360   3.7360194   2.4090235
  86.7502136   2.9798107   2.4910610  86.3655243   4.0962801   1.5442257
  60.4566841  52.0487595  77.2435074  59.7211304  52.5923882  76.9612732
  60.1678352  51.1510468  77.0794678   3.7336631  63.1641808  27.6034279
   4.5426431  63.0889091  28.1095066   3.6724389  62.3372192  27.1252861
  40.6635551  53.8928719  64.2538223  40.0922165  54.2265015  63.5620918
  41.1168594  53.1511383  63.8530998  70.7038269  69.3326874  34.0835075
  71.3227005  68.8453903  33.5396538  71.1617737  70.1454163  34.2979584
  57.1891479  11.5858593  82.6501007  57.8719025  11.4867840  81.9865723
  57.0802956  12.5323715  82.7422791  70.1234283  58.7460823  24.7482433
  70.5545578  58.2547722  24.0489750  70.0344620  59.6325989  24.3983803
  15.9523640  70.1182251  27.9069023  15.1456480  70.4712601  28.2821465
  16.3174152  70.8428192  27.3990307  84.0018158   2.6031129  45.4649315
  83.0977173   2.4912713  45.1711159  84.4643173   2.9353874  44.6955681
  63.0003700  45.0993576  68.5046921  63.4013062  45.5435295  69.2518158
  62.6111794  44.3081055  68.8770905  54.0565262   1.7697244  15.5876932
  54.2180481   1.7621437  16.5311375  54.2255249   2.6739478  15.3230219
  31.5817776  30.4079666  71.5425034  32.0442467  31.0164700  70.9662476
  31.6674290  29.5577164  71.1112595  68.6099701   3.8504090  45.3848190
  68.4843369   4.0443182  46.3137169  67.7863693   3.4468422  45.1108665
  76.3746490  41.1141624  55.8683281  77.1531296  41.3036385  56.3920593
  75.7397766  40.7723885  56.4979019  43.0024567  15.3837490  81.8542786
  42.5809517  15.7896061  82.6118011  43.5465813  16.0779514  81.4824677
  73.1979523  55.2840500  59.6735916  72.3364792  55.6847687  59.7898178
  73.4020844  55.4191666  58.7482224   7.4403667  17.9297562  81.4617691
   7.3812909  18.7958202  81.0584412   7.8376298  17.3782578  80.7877808
  56.1890106  23.0639744  44.5142555  56.9546776  22.9483356  45.0769386
  56.5528297  23.1943245  43.6385384  55.9258919  16.2401066  61.2427711
  55.1921654  16.7548847  61.5787506  55.5221596  15.4423103  60.9010773
  86.2346725  34.3276787  43.6678848  86.6784897  33.7305870  44.2701683
  86.0812683  33.8042068  42.8813248   8.6219559  64.2081757  83.1820831
   8.5298328  63.6238556  82.4295425   8.2097139  65.0255661  82.9025269
  28.3609638  50.5987434  43.0239182  28.5450039  49.7691269  43.4644814
  29.1520786  51.1210251  43.1565514   1.1421123  54.0847359  32.0331383
   1.2251518  53.6185989  31.2012424   1.7953446  53.6775398  32.6020966
  53.3805733  19.5687275  39.4078140  53.3475456  19.7712555  40.3427582
  52.7754745  20.1922340  39.0061607  42.5692902  36.4766541  20.1964779
  42.9214859  36.4246063  21.0850067  42.2912064  37.3876877  20.1020451
  73.6698151  70.2683182  78.8018112  73.8003922  69.6451263  78.0870972
  74.5523071  70.4513321  79.1242294  37.7562370  41.5219269  14.3577375
  37.5651054  42.3839302  13.9880743  38.3234787  41.1039085  13.7098751
  61.0736961  20.5644836  81.9123230  61.0032425  19.6887169  81.5324554
  60.1922913  20.7589607  82.2309723  72.7203903  44.5951500  10.4259615
  71.8531876  44.3021927  10.1460066  72.7269287  44.4537010  11.3726301
  57.7144470  19.7687473  40.2862129  57.2314682  19.4745369  39.5139389
  57.0780029  20.2794781  40.7865372  75.8926773  23.7019882  37.8490105
  75.5373154  23.6041756  36.9656181  76.2903976  24.5726433  37.8521385
  51.6865501   8.4536934  11.1851072  51.2424393   7.7620330  11.6756201
  51.3777237   9.2668304  11.5846920  35.2421875  44.4238930  59.2010002
  35.8484993  43.6933441  59.0788651  34.3744316  44.0201950  59.1850281
   2.7732148  66.3307877  70.7867050   2.2993972  65.8725510  70.0926208
   2.1929708  67.0490799  71.0389023  72.8624573   6.8653541  46.7152519
  73.4478912   6.3555450  47.2752495  71.9993286   6.7648053  47.1166573
  17.5392399   4.3429136  25.0419540  17.5868053   3.8884044  24.2008896
  18.3396530   4.8667068  25.0767479  28.3875866  53.9576416  68.4573669
  28.6344109  54.3337669  67.6124725  28.9919300  54.3570213  69.0830612
  66.4411545  60.6462326  58.5698624  66.9767151  61.2816238  59.0449333
  65.6457825  60.5625801  59.0957985  44.2566948  14.1944799  20.8345680
  43.7815781  14.4090014  20.0317745  44.3146133  13.2390423  20.8305588
  66.6977158   9.9861650  61.8193970  66.4324570  10.9013100  61.9109383
  66.2106400   9.5260830  62.5029984  59.5535774  31.8837318  15.0103378
  60.5002098  32.0254173  15.0169601  59.1800880  32.7634773  14.9576092
  47.1951828   7.9480491  44.4519577  47.3871956   7.0332170  44.6579781
  47.4617538   8.0488148  43.5381622  58.2310677  44.7708817  46.3701057
  58.5080147  45.6857643  46.4203262  57.5574379  44.7615356  45.6901283
  79.2502670  52.4685516  81.9673157  79.8366776  52.6461906  81.2319260
  79.6460495  51.7201118  82.4138870  76.7867966  30.2850742  34.7681961
  77.4580612  30.9201546  35.0178070  76.3245621  30.0920601  35.5838623
  51.0845566  51.7610741  60.2923126  50.4202156  51.0896912  60.4476280
  50.6271896  52.5890465  60.4389763  70.3928299  50.8112640  53.9706764
  69.6616974  50.8006859  54.5883789  70.9989319  50.1504326  54.3056068
  38.2034416  63.9875031  83.9507217  37.4165764  64.3808823  83.5734634
  37.8779335  63.2540321  84.4725418  25.6789112  37.5869560   7.7927446
  25.1871643  37.2997131   8.5621004  25.0976086  38.2091637   7.3555079
  33.6569939  50.0380783  43.1039848  32.7384148  50.1552315  43.3462982
  33.6430092  49.3522110  42.4364357  32.7596130  51.6026497   5.4930215
  32.7999191  50.6477814   5.4397612  31.8554688  51.7905273   5.7449322
   1.4239223  11.7739592  23.2980900   1.3230424  11.6199169  24.2374115
   2.3573914  11.6417570  23.1325893  37.3343887  69.5735855   1.8645731
  36.9516716  70.2261734   2.4509885  37.3443146  69.9986954   1.0070120
  70.8849487  35.1594810  20.4795551  71.1742554  36.0403976  20.7172966
  69.9714966  35.1226616  20.7632465  61.0855255  48.6933403  24.7251091
  61.1895599  48.4964447  23.7941723  61.1318321  49.6481400  24.7746086
  62.5106964  28.1598091  41.5728569  63.3113251  28.2414341  42.0910873
  62.6603889  27.3928852  41.0200005  61.2859459  40.3083344  48.7132988
  61.4206696  41.0601311  49.2902603  61.8279419  40.4946251  47.9466400
   7.3382206  48.6404457  60.2692909   6.4205046  48.9124069  60.2774582
   7.3432765  47.8298035  59.7603035  75.6984787  65.7682419  38.0099716
  75.0442886  65.3903122  38.5977097  75.5756760  65.3017120  37.1832314
  77.8705521  21.1076221  41.2258377  77.6253357  21.6665783  40.4884987
  77.0368652  20.7936611  41.5760155  47.0221519  15.6480532  50.4022560
  46.9701271  14.7385683  50.1083794  47.5076485  15.6061440  51.2261314
  28.9256458  64.8822174  83.5783768  28.2232475  64.8342056  82.9298706
  28.5775318  65.4486465  84.2670059  81.7488556  68.1564331  68.8930130
  81.6944427  67.7346802  69.7505646  82.3653336  67.6159515  68.3989792
  45.7910309  25.1829395  78.6840668  45.6353073  24.7545166  79.5257492
  45.4607658  26.0733452  78.8038025  62.0021591   6.9446850  29.8483505
  62.9579620   6.9112206  29.8089943  61.7807808   7.8260961  29.5477867
  81.9168625  28.7431030  40.2737465  81.6564865  27.8263340  40.3630257
  81.1981430  29.1501999  39.7900658  79.8043671   0.6595631  22.2114735
  79.0387039   1.1381403  21.8937397  80.1494675   1.2029594  22.9198933
  69.0816879  65.8937607  66.8954544  69.6904602  65.3501740  66.3953171
  69.4905777  66.7590942  66.9110489  48.4422188  13.6976337  36.9522362
  48.3103676  14.2081213  36.1533318  48.3481598  14.3338041  37.6612320
  60.1192703  58.2964745  17.0084629  59.1643944  58.3249245  16.9481983
  60.2936821  57.8935661  17.8590393  74.1665802  41.4446754  13.3490095
  73.8120804  42.3254700  13.2275038  74.9648514  41.4328308  12.8209467
  30.3021832   1.7015091  21.6843052  30.0124931   2.6112447  21.6157990
  30.2638073   1.5078127  22.6209164  10.8666029  38.5429344  38.8025246
  10.1539297  37.9506378  38.5627022  11.2618980  38.7925644  37.9672661
  64.5849686  62.1499023  83.9936295  63.8025208  62.6465836  83.7542191
  65.2414627  62.4112778  83.3479233  48.7121201   4.2616401  19.0684986
  49.1381493   4.7789865  19.7519321  48.5478783   4.8866110  18.3623352
  15.7260981  71.3335648   8.6022739  15.1204500  70.8349686   8.0537996
  15.3559361  71.2741776   9.4830046  19.2662582  45.2811356  85.1851883
  18.9930077  46.0223427  85.7257233  20.0272999  45.6041718  84.7028046
   4.1125679  40.4679527  75.0978470   4.6599731  39.7836380  75.4829330
   4.5886459  40.7428513  74.3142548  69.9283447  24.3327370  79.8874969
  69.4484863  23.9085312  80.5988388  70.1855087  25.1824455  80.2453995
  84.5439148  27.6923008  61.2972527  84.9003143  28.5162315  61.6294365
  84.5099487  27.8114109  60.3480988  23.7220268  52.9260063  48.9887543
  22.8308506  52.9091721  48.6398239  24.2730293  52.6641502  48.2511520
  53.5317841  41.3570061  29.0141582  53.4633408  40.7800102  29.7748318
  54.4213486  41.2195663  28.6885548   7.9854150   6.6702871   9.7255116
   8.4145317   7.0910635  10.4705200   8.6379290   6.0562444   9.3887491
  58.3040123  37.4135246  84.5416260  58.0855865  37.9873772  85.2759399
  58.5799637  36.5939560  84.9519730  80.3523407   5.0625768  17.1242828
  79.5382462   4.9621229  16.6309338  80.2419281   5.8834805  17.6040306
  67.7973175   2.6636407  81.8643723  67.6153870   2.1123385  82.6254196
  67.1790390   2.3636889  81.1980438  64.6613159  66.2512665  67.9673309
  65.3539429  65.8752670  67.4240799  64.1334915  65.4995499  68.2366867
   8.0400381   1.2252191  64.0816956   7.3397646   1.5051045  64.6711960
   8.3002892   0.3647523  64.4104767  84.3133621  43.0465660  19.6312885
  84.5588913  42.3668098  20.2588844  83.5473251  42.6910973  19.1806698
  19.7052689  28.8671722  75.9643936  20.4020920  28.3080559  75.6207962
  19.1432400  29.0408115  75.2092743  26.7001629  58.6648788   6.1110387
  27.3514557  59.3196411   6.3627052  25.8730545  59.1461411   6.0884523
  38.7975311   3.7763691  75.0263672  38.3471985   3.3152218  74.3187103
  38.2143974   4.5022388  75.2484131  11.0989380  42.2568893   8.3696384
  11.7155609  41.6718674   7.9294610  10.2494917  41.8264847   8.2725668
  78.8867722  64.2616577  16.6199360  78.3039551  64.8826447  17.0568924
  79.4337006  63.9111137  17.3229427  64.0755234  31.7739773  73.0037003
  64.7514267  31.7464714  73.6809158  63.2686005  31.5371819  73.4609070
  48.8315659   9.4473152  65.6919479  48.8371429   8.7426205  66.3397141
  47.9176979   9.7293463  65.6527100  53.7794304  50.6571884  40.2478485
  53.7242203  50.7430649  41.1995888  52.9268761  50.9550896  39.9306259
  73.7834702  24.7710037  87.3204803  74.1825714  23.9311256  87.0934296
  73.6470261  24.7233315  88.2667084  55.6198425  53.8451424  56.9616241
  55.8579063  54.4777985  56.2839050  56.2469025  53.1301765  56.8527489
  67.5475922  60.2134972  53.3602257  68.3940125  60.3409958  52.9317894
  67.1374741  59.4992142  52.8725433  14.7072039  70.5127335  47.5870438
  14.8067799  71.2955627  47.0452919  13.9339886  70.0732956  47.2331200
  83.6387939  60.8800201  70.1008301  83.8795166  61.6827469  69.6383209
  83.9199142  60.1744576  69.5182648  62.0589981  46.1414375  16.8425083
  62.0929260  45.3699226  16.2769585  62.6924095  45.9578819  17.5362873
  57.2974281   5.0427508  48.7790909  56.4807014   5.0007701  48.2816734
  57.1144753   4.5541887  49.5816269  80.4568329  42.1793327   0.4070454
  79.6295624  42.6471939   0.5208783  80.8286743  42.1325035   1.2878265
  57.3915901   5.4905090  59.8786392  56.6092834   5.6476550  60.4073486
  57.0568047   5.3381796  58.9949265  55.6351204  64.5471115  17.2296810
  55.2845917  64.2213516  16.4006786  54.9081955  65.0288773  17.6242867
  79.0190811  36.8268814  78.6350327  79.3985519  37.1367874  79.4573441
  78.3869629  37.5036507  78.3928833  41.0345421  52.0313797  75.3638229
  41.0749855  52.8727989  75.8183746  41.4944878  52.1828423  74.5381546
  75.9563828  44.7424202  76.7277222  75.0848160  44.4144478  76.5062943
  75.8162994  45.2941513  77.4972687   4.0913630  34.9900818  31.9627457
   4.4129009  35.5014915  32.7052460   4.8486981  34.4783516  31.6784782
  76.1620941  36.7730179  62.4648895  76.2427216  37.0567627  61.5542755
  76.8401337  37.2635345  62.9295311  83.4069061  39.4172020   6.8564949
  84.1021423  38.8314323   7.1560826  83.8613052  40.0856361   6.3437047
  74.4187012  54.6816330  30.1311893  73.8222351  54.0053253  30.4522343
  73.8612671  55.2711258  29.6232491  60.6266251  53.3297005  18.2811203
  61.3139076  52.7060204  18.5154266  61.0730629  53.9902573  17.7514172
   5.8541055  67.8709717  59.7023430   6.6551151  68.3643875  59.8788528
   5.2160039  68.2195129  60.3248978  11.8462467  38.0956039  82.3576584
  11.1642504  37.4689560  82.5993652  12.4031687  37.6181641  81.7427444
  47.2017365  21.2410183  37.5679779  47.9666138  20.8649387  38.0035896
  46.6105652  21.4765263  38.2830200  64.1103058   8.7243891  18.6426411
  64.5141754   8.4185133  19.4547749  64.7552872   9.3222637  18.2647800
  18.7907696  12.7122717  88.7117920  18.9680882  13.3262177  89.4244385
  19.6466293  12.3416653  88.4964142   2.6540322  62.1295013  52.0588264
   3.3180490  62.7746086  51.8156242   3.1426730  61.4414520  52.5105438
  56.6160545  52.4183617  67.2241135  56.9381447  51.8622093  67.9334717
  56.6339531  51.8545723  66.4507751  23.8602371   1.5452707  16.3096066
  23.3729954   0.7471257  16.1051769  24.0757103   1.4630255  17.2386055
  58.4789734  28.6226025  85.9846191  58.6896973  28.8777580  85.0864410
  57.7320786  28.0304852  85.8964233   2.0551767  33.5412712  84.4807587
   2.8126328  34.0317688  84.7999802   1.3278447  33.8427925  85.0250931
  42.2627983  22.6052799  81.5734787  41.8727455  23.4736862  81.6733017
  41.8189163  22.0666161  82.2284927  66.0442657   5.4979420  18.1078835
  66.5348892   5.8237391  18.8624573  66.5788422   5.7404065  17.3517933
  53.0668106   8.2832127  75.6873779  53.9474373   8.5541716  75.9468155
  52.6423836   9.0916252  75.4000320  62.0263214  52.7527657   5.5494246
  61.4732971  53.4347305   5.9306307  62.7931290  53.2220879   5.2208281
   1.1987659  60.8760223  88.2855225   0.5512961  61.3474350  87.7613297
   1.7623032  61.5618935  88.6436234  59.6794739   3.1320407  77.4818726
  59.4736595   3.8522589  78.0778275  60.3918686   2.6602771  77.9133453
  28.8164177  62.3806877  58.3459702  29.5513878  61.8012657  58.5467796
  28.3845749  61.9691467  57.5973892  48.2215500  61.0689926  13.5650129
  47.5486717  61.0264168  14.2444668  48.0269318  60.3300400  12.9885578
  16.2834053   7.3472652  63.9056969  16.3737259   8.2966318  63.9880180
  16.5994110   7.1522145  63.0234680  82.3465729  14.3237982  16.3669834
  81.4086761  14.1853018  16.2350731  82.7648087  13.7911491  15.6905270
  60.3128281  16.7095299  32.7100220  59.7521172  16.7934914  33.4812469
  59.8520126  17.1939030  32.0249939  73.7458725  20.5043468  23.4474907
  74.3204575  21.2554493  23.2994232  74.1614838  20.0220795  24.1622753
   4.9758015  32.0656166  71.8439102   5.7685056  32.5594597  71.6342239
   5.1916528  31.5973148  72.6503448  22.5378075  62.3813820  38.0411835
  23.0095997  61.7440681  38.5773544  22.0152550  61.8493881  37.4410553
  70.3878632   3.3179171  42.0634918  70.9889145   3.9269774  42.4924698
  70.1973648   2.6591425  42.7312889  62.3590736  46.8459129  47.9063988
  62.4442902  46.0226631  48.3872643  63.0147667  46.7864265  47.2115898
  76.3411179   0.2529703  23.8328476  76.6878967   0.7443129  24.5775356
  76.0339737  -0.5707515  24.2115021   0.9192123  26.8449154  21.4459705
   0.0300769  26.5555477  21.2411880   1.4689789  26.0860233  21.2508545
  14.5872049  -0.2663361  12.0162172  14.4635611  -0.0706811  12.9450140
  14.0809460   0.4060578  11.5603447  11.2568064  66.9880524  17.9954147
  11.5638971  66.2047882  18.4519577  10.7461462  66.6513748  17.2591324
  81.6841812  21.9150391  56.0216789  81.6206131  22.5734921  56.7135124
  81.5857391  21.0788803  56.4770660  57.6027565  50.7829018  69.1687164
  57.9276886  49.8826637  69.1539230  57.8056793  51.0963326  70.0500870
  78.8590698  64.3524323   3.8447211  78.3423767  64.2939758   4.6483669
  79.7095261  63.9809875   4.0792112  67.8540649  14.8826094  31.2488079
  68.2889633  14.6138239  30.4395771  68.0410690  15.8185282  31.3217449
  70.8215866  24.9194088  12.6233616  70.6061478  25.7423515  12.1845198
  70.1954193  24.2880039  12.2691383  86.0802841  13.6860495   6.8997531
  85.8483353  13.0170097   7.5438151  86.2254715  13.1980734   6.0891781
  31.8388557  47.8628197  36.7648239  31.2550049  47.1297150  36.9595299
  32.6339455  47.4521103  36.4251404  79.4017563  15.7406864  18.1288147
  78.8404388  15.2393999  18.7203083  80.2916031  15.5566530  18.4297047
  73.0136490  19.7634964  58.0188789  73.5635147  19.1632824  58.5224838
  73.6282501  20.3952160  57.6454811  45.2824516  69.2410202   0.9607100
  44.6894150  69.2742462   0.2100861  44.8744888  68.6167831   1.5608208
  23.9934940  57.8434410  12.6971245  24.2755394  56.9343376  12.5960646
  23.7459145  57.9163513  13.6188736  70.6321869  68.0719681  66.6250229
  70.2564468  68.8207245  66.1619720  71.1491776  68.4613419  67.3302536
  48.4543877  58.4302406  38.5826035  48.5201302  58.8787956  37.7395706
  47.6290588  58.7404251  38.9552307  55.2804565  24.1455669  32.5249023
  55.2553864  23.5092659  31.8102531  55.9424782  24.7822876  32.2555656
  19.9486828  59.8479691  53.2575531  20.1885185  59.2777214  53.9879837
  18.9918861  59.8697433  53.2748451  39.7866592  65.6547318  40.6028519
  40.0039825  65.0501709  41.3124313  39.0896912  66.2042160  40.9613762
  34.6812668  20.6589909   0.1277127  34.3638496  21.1527061   0.8838366
  33.8960037  20.4841061  -0.3909492  69.0221634  30.0842819  70.8709259
  68.5771561  29.4438400  70.3159103  68.8759079  29.7705116  71.7633286
  34.8096046  68.8664551  60.0222626  33.8914833  69.1295471  59.9584770
  35.2477226  69.3550110  59.3254166  75.2828522  52.1204338  49.2718124
  75.1336517  51.1859970  49.4160233  74.4436340  52.5317039  49.4786987
  49.8310966  36.9382706  39.2070503  50.7222328  37.0311127  39.5439301
  49.9460716  36.6446114  38.3032951  36.8739929  59.2846870  52.4915924
  37.7702637  58.9941177  52.3227692  36.5796814  58.7411995  53.2225075
  73.7646942  31.0708389   6.7826929  74.6431961  30.7307987   6.9525256
  73.2549286  30.3013878   6.5290956  73.2860107  14.1045113  18.2053452
  73.9899673  13.7427530  18.7436829  73.7327652  14.4746351  17.4439983
  44.6223335  11.4193487  20.4033623  43.8718452  11.4035645  19.8094330
  44.8366394  10.4969702  20.5430851  32.0096703  37.2938156  29.5039597
  32.6164856  37.1031342  28.7886658  31.2838058  36.6841164  29.3712215
  64.9903717  28.7128353  43.1165009  64.7872925  29.5950279  42.8054924
  64.5977097  28.6699486  43.9884033  75.8382645  49.9227371  55.9371109
  76.4240036  50.5931053  56.2888794  75.1519928  50.4161224  55.4878502
  80.1580429  17.3032532  10.6291189  79.7389679  18.1470623  10.7982035
  80.9514465  17.3183403  11.1643887  41.4722252  19.7559605  85.7591171
  40.5280800  19.7683201  85.6020508  41.7367210  18.8582420  85.5581894
  16.3468475  15.3412514   2.9529657  17.2149410  15.6973553   3.1422663
  16.3767929  15.1191397   2.0223737  38.9899979  47.0840950  72.1343842
  38.1119080  47.3863831  72.3663483  39.2448235  46.5110092  72.8574829
  19.0057507  53.2225266  60.8526154  19.2396755  52.2954025  60.8084908
  18.8137817  53.3773575  61.7774963  31.4236622  51.2815514  26.9938202
  30.6909389  51.7798805  26.6318569  32.1303291  51.3994675  26.3590355
  74.3837585  50.6414261  61.5137863  74.0087738  51.4144478  61.0918198
  73.7390442  50.3939056  62.1765862  54.1371307  11.5770273  40.0728798
  53.5659523  10.8686161  39.7759933  54.4807663  11.9615393  39.2664680
  59.9128761  13.6173601  65.2900772  59.9377556  14.2720737  65.9879074
  60.3887329  12.8678141  65.6478119   2.9988556  40.6403008  78.5184784
   3.6037407  39.9221764  78.3323441   2.2251542  40.4448624  77.9898758
  71.2922287  62.1264000  26.8579216  71.1378860  63.0608292  26.7191677
  71.0330429  61.9731598  27.7665310  67.5345612  70.9118195  72.3204269
  66.9884186  71.6954346  72.2578964  67.9356613  70.8297577  71.4552002
  31.7557106  17.1980152  17.9941177  32.5046844  17.4640312  17.4607296
  32.0689545  17.2631226  18.8962650   3.3227706  65.3270111  66.5532913
   2.8194993  65.7193832  65.8398590   4.2206855  65.2943497  66.2232742
  74.8614883  64.3662796  73.6314545  75.5803986  64.1240311  74.2151642
  75.2325897  64.2948990  72.7520065  73.0444641   3.0830188  22.6567535
  73.9270096   3.2251232  22.3144894  72.8753738   3.8471708  23.2078552
  39.4431381  68.2316971  51.6706429  39.5678482  68.7409134  52.4715042
  39.1420059  68.8708572  51.0248680  81.7517853  44.1273270   7.4062848
  82.2290573  44.7133179   7.9936996  82.1846161  44.2328339   6.5590768
  71.6494598  50.7668533  15.8680820  70.9970856  50.4033508  15.2693300
  72.4029083  50.9627151  15.3111429  26.9424553  24.4542027  22.4474602
  26.1016178  24.5631809  22.8916988  26.9430962  25.1277714  21.7673607
  78.5253220   7.6045799  14.1589069  78.1853333   8.3632097  14.6333752
  77.7882233   7.3047681  13.6269007  77.1166153  36.8590088  35.7662277
  77.5198669  36.7281113  34.9080391  77.6758194  36.3708801  36.3705902
  29.2356873  17.5475788   4.1672292  29.4825058  17.5006199   5.0908670
  29.2002697  16.6345310   3.8820581  48.0816269  46.0055885  53.1260948
  47.5289078  45.4981842  53.7204666  47.6336136  46.8473129  53.0423203
  38.1430817   4.0746160   9.1751442  39.0985603   4.1272807   9.1980219
  37.8484802   4.8905978   9.5796366  77.1756210  62.6602745  87.7571106
  77.3760071  61.8378944  88.2040558  76.5928650  63.1239014  88.3584976
   9.0291557  64.0718994  58.4933968   9.2642374  64.5851669  57.7204018
   8.6179590  64.7030411  59.0840034  40.0195694  -0.1537534  75.8603210
  40.1296844   0.6110142  76.4253311  39.6472397   0.1976140  75.0515289
  56.1875916  38.9045143   0.9117302  55.9373474  38.7813873  -0.0039391
  56.3793030  38.0217934   1.2284064  58.2807961   6.7429276  30.1321907
  57.9097939   6.2265229  30.8476734  58.5584602   6.0929961  29.4866486
   5.2511587  32.2459373  29.2524605   5.9906187  32.6100426  28.7657776
   4.4840837  32.6883965  28.8890610  72.9468307  33.0972977  57.9386978
  73.1417923  33.5504150  57.1183853  72.4837494  33.7472992  58.4671631
  20.8656807  60.5694809  36.9562836  21.1061859  59.8423462  36.3821220
  20.4156227  61.1892357  36.3821869  82.3548965  70.2806168  38.3814354
  82.8288116  69.4844055  38.1412773  81.6444855  69.9755020  38.9457436
  20.5779552  57.8733978  78.0069275  20.2599087  57.1704597  77.4403992
  21.1713619  58.3788147  77.4513626  79.6390228  59.3056641  74.6145706
  79.0319443  59.5950775  73.9334488  79.0947189  59.2115479  75.3963013
  40.9676437  38.3553505  64.5999908  41.1081734  37.6584129  63.9590874
  41.0177231  39.1636505  64.0897217  18.8855267  11.3405180  62.1594353
  19.1457367  10.4215231  62.0964165  19.2227039  11.7404289  61.3578033
   0.9439207  55.6560707  34.9868736   0.6127639  54.8197212  35.3141136
   1.0920354  56.1796646  35.7743645  75.2004623  32.0312157  46.6851692
  75.0551071  31.2294979  46.1828232  75.9496460  31.8299809  47.2459335
  42.4676056  49.3318214  87.2753677  42.8919983  48.8495026  87.9849396
  41.7330971  49.7791481  87.6956406  83.1876831  27.0531235   1.2842268
  82.6048203  27.8111992   1.3270237  84.0581055  27.4275894   1.1486790
  67.5517960  25.5850391  21.1761265  68.2083893  26.2380333  20.9338169
  68.0604019  24.8479996  21.5142422  45.9244614  54.9333839   5.8114228
  46.1892319  55.7505951   6.2336683  46.7327271  54.4248009   5.7459569
  83.6690674  68.5043030  20.0666771  82.8245544  68.0565033  20.0165749
  83.9489746  68.5903625  19.1553707  80.9233246  26.7966652  38.0496368
  80.6583939  26.1796188  37.3675079  80.3890610  27.5745850  37.8895378
  41.6657333  55.5643654  39.1822433  40.8450851  55.1776085  39.4875145
  42.3407707  55.1474609  39.7177277  62.9786873  30.2577381  82.3416443
  63.6748581  30.9098377  82.4213028  63.1229591  29.6623001  83.0770798
   9.3354988  49.9102974  59.0324707   8.6782322  49.3872910  59.4914856
   9.3184652  49.5812950  58.1337509  13.2113724  24.4579716   1.2429482
  13.0650415  23.5125408   1.2742689  12.5431595  24.8231030   1.8229510
  81.7644577  47.1123276  38.7352371  81.4005966  47.9631805  38.9799500
  82.4851761  46.9743233  39.3498535  49.9999352  64.0133972  69.1020355
  49.6797562  63.8590469  69.9907990  49.7556763  63.2239456  68.6189880
  20.3415356   6.9158182  11.3716927  19.8903713   7.3807921  12.0763073
  19.8320217   7.1176348  10.5869017  70.9188614  43.3383713  80.1437988
  71.3401031  42.7023430  79.5656509  71.3253937  43.1917229  80.9978790
  56.6196709  53.8599701  59.8027344  56.4686661  53.9817047  58.8653908
  55.7464180  53.7237892  60.1703148   5.0685835  35.0943794  47.3370094
   4.9790983  34.9887848  46.3898697   4.9393363  36.0308990  47.4868660
  21.6195030  55.1207199  14.7054348  22.4879723  55.3875046  14.4040718
  21.7864933  54.3894043  15.3000116   2.8055160  28.0060978  48.0733681
   2.9870536  28.3670616  47.2056236   3.4827759  27.3422318  48.2031021
  75.1907196  60.2192879  52.4154930  75.9549789  60.6690636  52.7758331
  75.4282684  59.2921906  52.4326286  50.9628258  54.0694199  33.4761696
  50.3754539  54.8252106  33.4754028  51.3643379  54.0772362  32.6072845
  65.1090546  61.9561119  79.5658722  64.5513000  61.1821899  79.6445007
  65.7935333  61.6963997  78.9492111  49.0936279   3.1563845  22.7126808
  48.5801201   3.5330679  23.4272804  49.8883018   3.6891034  22.6820984
  36.7612419  17.1850605  80.6253662  37.0183411  16.2631416  80.6113663
  35.9908028  17.2102680  81.1928329  43.1724815  44.6058350  47.3486633
  43.1510887  44.9030609  46.4390297  42.2642097  44.3786621  47.5478287
  78.8302002  58.7593422  37.4766350  79.5512009  59.1336021  36.9703484
  78.5866241  59.4499168  38.0930824  77.3696213  46.5627441  79.5659790
  76.5628891  46.1868782  79.9183044  77.1531525  47.4798927  79.3980331
   0.9726921  38.4307060  59.9073792   1.3702365  37.7044945  59.4269600
   1.5492930  39.1753159  59.7361526  42.5993919   2.6268096  75.4385681
  41.9743233   2.2510314  76.0584946  42.1061440   3.3111556  74.9862289
  56.9178352  29.1352577  37.3767281  57.0119247  29.1538601  38.3291130
  56.2749176  28.4452724  37.2129974  15.8716583  46.1643829  23.4653511
  15.6151257  47.0704193  23.6371784  15.7353649  46.0511513  22.5246944
  65.8432541  14.2155161  64.8515167  66.1915817  15.0882244  65.0339355
  66.1277542  14.0261583  63.9574013   4.7775126   9.6379948  59.6547279
   4.9621205   8.9360390  59.0307007   3.8635960   9.8703365  59.4903908
   5.1778569  53.2344742  42.5998764   5.5498242  53.0261230  41.7428703
   4.7771826  54.0960274  42.4840279   2.8447816  34.2813072  35.3229790
   2.5713391  35.0088463  34.7642822   2.6941063  33.5004578  34.7902412
  50.7383919  64.7419662  21.1270618  51.6122055  64.7044525  20.7381306
  50.1557007  64.4222641  20.4382267  10.4717770  34.8859100  29.7121792
  10.8044586  34.4311752  28.9383755  10.0609865  34.1981201  30.2360344
  85.7180252   0.5645015  63.4007645  86.0230179   1.2406802  64.0057373
  84.7666245   0.6685672  63.3851318  83.0885849  21.7122059  19.9882622
  83.3236389  22.6041927  19.7326393  82.1315689  21.7127361  20.0069714
  48.2436714   0.2694172  66.4414062  48.4431305   0.1999004  67.3750153
  48.0427589   1.1956989  66.3077393  34.2019844  13.0618515   5.4756174
  34.2236862  12.1914930   5.0778279  33.7678604  12.9292746   6.3183465
  24.0151234  11.8120785  67.2550125  24.1149693  12.7269220  66.9917145
  24.8723469  11.5684690  67.6043701  56.9458466  31.5632114  27.5051460
  56.7589302  32.2097626  28.1857815  57.8979225  31.5853367  27.4087543
  13.5279036   0.1860278  88.2209015  12.7079010  -0.2869233  88.3628311
  13.9063091   0.2771262  89.0953903  38.2825890   4.1194816  14.0162363
  38.4511108   4.9282441  13.5327730  38.2526588   3.4397659  13.3429432
  43.0142441  24.1798744   6.7009382  43.4151115  23.7289486   7.4440417
  42.5623970  24.9284554   7.0904183  61.7679672  68.6139908  38.0498390
  62.0570755  67.7500229  37.7562447  62.4959145  69.1965637  37.8331833
  70.2498016  43.6124535  68.3940735  69.9472885  43.9915695  69.2192917
  71.2015152  43.7115822  68.4195938  60.0460510  26.6334934  31.9200630
  60.9176941  26.3474064  32.1932449  60.2108383  27.3294029  31.2838345
  54.0946617  37.1293030  22.6333237  55.0295753  37.1621170  22.8360405
  53.9470367  37.8824539  22.0613098  27.5013638  53.7949562  45.5972481
  27.0552254  53.0217743  45.2517357  26.8374519  54.4841537  45.5757828
   1.0892967  47.5326080   0.9558754   1.1906106  47.1519890   1.8282838
   0.9591922  48.4673119   1.1159909  51.0777855   0.1251530  11.0993376
  51.8627815   0.6727597  11.0877008  50.8145866   0.1033405  12.0193825
  12.7936401  62.9871712  49.3607254  12.2221966  63.7257996  49.1506920
  13.0087976  63.1062851  50.2857933  53.5078011   7.8228984  81.9416885
  54.2699471   8.3920441  81.8347244  53.8133469   6.9589558  81.6651459
  33.7184753  40.1123009  75.5829849  32.8203964  40.4399414  75.5345917
  34.0739708  40.5047684  76.3803711  41.8415718   9.2028532  79.2225113
  42.3922310   8.7830906  78.5615997  42.4609032   9.6319256  79.8128967
  80.8496399  33.4008675  45.0233078  80.7854309  32.8384018  45.7951469
  81.6217346  33.0804405  44.5570030  13.2270699  36.1213150  87.8967514
  14.1130466  35.8472824  87.6597214  13.3295050  37.0212059  88.2064819
  34.6170044  23.6841850  17.6482410  34.7867851  24.3563499  18.3082409
  35.4709663  23.5203266  17.2480774  40.6347885  16.8017445   2.4146037
  40.9043350  15.8857212   2.3476658  39.9417572  16.8958511   1.7610880
   4.4758000  28.5394917  34.9344749   3.7313390  28.4192085  35.5240021
   4.3476219  29.4117508  34.5616951   9.4125786  64.3817139  17.2088356
   9.9450569  64.4259567  16.4146423   9.0562954  63.4932899  17.2091331
  63.0285263  69.2219543  27.9456367  63.3357430  70.0215454  28.3728447
  62.3271370  68.9016800  28.5128307   8.5112591   3.0435588  66.5853958
   8.5883284   3.2863264  67.5080872   7.6100769   2.7342482  66.4935837
  19.1244621  37.7061157  21.7730541  19.5712566  38.5284615  21.5721798
  18.2594986  37.7997818  21.3739338   6.9982567  50.6602402  38.7718163
   6.6585340  50.7490082  39.6622887   7.6943088  50.0072556  38.8449974
   8.5403786  42.9638596  26.2950153   9.3642426  43.2421570  26.6950512
   8.7929287  42.6295013  25.4344025  72.9701614  10.3435822  19.7524948
  72.9560242  10.6492968  18.8455372  72.7081070  11.1071901  20.2667542
  78.0273209  28.4871197  17.5812988  77.4068222  28.8684177  16.9601498
  78.1458740  27.5866184  17.2791824  68.1337204  62.9861984  31.2755547
  67.8985748  62.9863548  32.2034225  67.4147186  63.4497948  30.8461857
  16.3330536  47.5310745  45.9361343  16.9690514  48.0683289  45.4638062
  16.6859035  47.4668694  46.8236084  71.6057510  39.3216705  85.8675613
  71.8263016  39.9847221  86.5217438  71.6035919  38.4970665  86.3536224
  62.8655357  44.5933266  29.7638988  63.1777649  45.4272499  30.1150589
  63.5882263  43.9841537  29.9150963  61.0817986   6.8382640  35.4393730
  61.2130737   6.1463947  36.0876884  61.9639091   7.1553149  35.2454834
  37.6791306  22.1849308  71.6381454  37.9943428  22.8999920  71.0853729
  36.7562599  22.3885689  71.7900620  68.2956085  55.8838577  32.4632225
  67.4405670  56.2259636  32.2022591  68.4369812  56.2370605  33.3415680
  18.2285023  39.2144852  14.1504736  18.5960369  39.0081482  13.2910690
  17.3363228  38.8691864  14.1185932  66.3959274  19.3847790  32.2762718
  67.0488586  20.0841713  32.3038826  66.8727112  18.6250668  31.9419842
  55.7780609  60.4937782  82.7485275  55.5186882  59.8542633  82.0852127
  55.1061554  61.1738739  82.7011948  73.6369934   8.0227003  70.1447372
  73.8499603   7.1966796  69.7104950  73.8025436   8.6919899  69.4807510
   6.5789847  60.8259239  65.7865524   6.9070725  61.4547157  65.1437378
   6.3575959  60.0501633  65.2713699  18.4077015  68.9049530   9.5119820
  19.0178204  68.8435059   8.7769909  18.5461464  69.7836990   9.8653622
  27.1064301  56.2559242  15.4731674  26.7342777  56.4115219  16.3412247
  27.0855579  55.3044586  15.3706589   6.3685493  57.8639412  51.0781593
   5.5175457  58.1765022  50.7710228   6.7868848  57.5018883  50.2970428
  84.2997589   7.8371491  62.1777573  85.1369476   8.0851221  62.5699997
  84.0521622   8.5923595  61.6442909  71.3263397  27.6556892  25.9738007
  71.8112564  27.2350845  26.6838570  70.6154556  28.1225929  26.4129810
  77.7189789   2.2361557  83.5280380  78.3731461   2.9346774  83.5471954
  78.2237015   1.4398048  83.3627853  80.1183853  48.6482773  12.9665804
  80.5559998  49.3770103  13.4066668  79.5721741  49.0644112  12.2997122
  78.6502991  70.7188263  47.6394196  78.5767212  71.6731796  47.6347885
  77.7577744  70.4090424  47.4855881  47.9030762   4.4860115  55.2136765
  47.7555466   3.6578524  55.6704254  47.4681702   4.3741026  54.3683586
  49.9408073  55.5597992  73.2909927  49.2766190  55.8670845  72.6740189
  49.4399033  55.2186356  74.0318985  75.5681763  19.5560741   0.3925905
  75.8589325  18.6577930   0.2351671  76.3747330  20.0715065   0.3974712
   4.6613507  26.3170948  20.5562515   4.2294488  27.0136261  20.0617447
   5.4056396  26.0623226  20.0109463  60.7517548  51.6160355  10.7909822
  61.0274315  51.8583450   9.9069452  61.2144852  50.7975159  10.9702625
   9.1351328  53.2352371  86.1957779   8.6968632  52.8213959  86.9393387
   8.7529078  54.1116142  86.1499176  19.2524586   1.4452901  77.1735229
  20.1464748   1.1146318  77.0861664  19.2210255   2.2066803  76.5942688
  80.2806091  55.4311485  64.1776886  80.2969513  56.3284340  63.8447571
  81.1658707  55.1018906  64.0223694  43.3881302  11.3564320  80.1152420
  43.7961044  11.1409779  80.9539108  42.7092705  11.9941387  80.3359375
  45.5660477  13.1698952   5.1499791  46.3568039  13.4139071   4.6689448
  45.2741089  13.9842052   5.5597410  54.9735489  68.0968781   3.6528122
  54.4605560  68.8210373   3.2941225  55.5495033  67.8328934   2.9353013
  42.1689949  30.4770584  20.4118557  41.4141808  30.1786251  19.9044838
  41.7883492  30.8923969  21.1856995  78.9955826  63.3825302  75.9600220
  78.4810257  62.6258087  76.2408066  78.5551071  64.1329803  76.3588181
   4.4937520  56.4487267  14.9276648   4.0496769  57.1110306  14.3981552
   4.1493812  56.5781670  15.8113422   2.1694751  48.3903160  47.7950783
   1.8613653  49.1117630  47.2466125   2.2243969  47.6431007  47.1993523
  31.6602325  63.6896820  18.2971325  32.0960274  64.5117645  18.0724277
  30.7839260  63.9523315  18.5787964  43.0669975  24.6162090  22.0641937
  42.4950752  23.9465580  22.4393024  42.5802383  24.9528904  21.3119030
  85.6679764  70.7173615  50.1962013  84.9533081  71.2273407  50.5775185
  86.4126511  71.3186874  50.1864281  54.6714172  25.2198811  87.4302979
  54.0152283  24.5427761  87.2654495  55.2409859  24.8431873  88.1010590
  49.6545639  57.1352081  24.4061813  49.0218010  57.8531303  24.4268894
  49.1293068  56.3486671  24.5534611  24.8896675  40.7394981  67.4558182
  25.5575371  40.9355011  68.1129074  24.7541943  41.5687218  66.9972687
   2.8919077   4.3524952  51.7260437   2.6694813   3.6249731  51.1451225
   3.2694893   5.0145674  51.1469727  56.9060326  30.1674118  58.6743774
  56.4891891  29.5588913  58.0643158  56.1788788  30.5500355  59.1653709
  56.4059677  19.0141087   8.1117039  56.2005081  18.4597244   8.8644819
  56.6215744  18.3975849   7.4119563  67.9896393  15.9314775  88.4152222
  68.8002396  15.4630251  88.6144943  67.2946777  15.3474989  88.7188950
   2.9950118  40.8182335  48.7243423   3.7651415  40.6045876  48.1975708
   3.3512840  41.2122078  49.5206375  60.1252632  63.8874512  83.6265945
  60.5837288  63.3177414  83.0089569  59.3021927  63.4329453  83.8060684
  37.4475212  38.5273361  23.6249542  37.8003235  39.3215561  24.0261765
  36.8622818  38.8458252  22.9377193  86.9226608  52.8207893  76.6294937
  86.8157349  52.5166702  75.7282104  86.0325089  53.0120773  76.9249191
  73.6857224  36.4326019  47.3371239  72.9706421  36.4624023  47.9727364
  74.1163330  37.2833481  47.4209938   7.6963453  54.0422096  49.6759720
   8.1502104  54.1910973  50.5054741   8.1244392  54.6356087  49.0588455
  63.0565872  41.7958527   8.4927530  62.7205048  40.9920578   8.8892279
  62.6450043  41.8271828   7.6291280  17.0841599  33.8334999  84.2138367
  17.3894615  34.4400597  84.8884506  16.6548882  33.1300354  84.7007675
  59.7529907  26.2963772  45.2644958  59.5627518  25.4426155  45.6532555
  59.9343681  26.1054554  44.3442345  57.7440071  23.9775314  41.1548386
  57.3594666  24.6476040  41.7199631  58.6698761  24.2139034  41.0988998
  51.4905052  70.4837189  63.1899414  51.0424957  71.2531433  62.8385124
  50.9862747  70.2478180  63.9686203  14.3204041  59.4554863  26.1437111
  14.8691025  60.2289963  26.2734852  14.0030489  59.5351334  25.2441711
  53.1015091  62.1209488  29.8158245  53.6755638  61.7793579  30.5013943
  52.6566505  61.3477669  29.4686642  78.3621674   2.5058432  64.1863251
  78.2176895   3.4219229  63.9493484  78.4822845   2.5201511  65.1358490
  57.7309189   8.6712933  25.9672680  57.4769554   9.2579517  26.6797047
  57.4261093   9.1118574  25.1740303  16.4687881  29.5891342   2.4165795
  15.6394701  29.4028606   2.8567660  17.0360966  29.9292202   3.1084862
  76.6618423  27.7816792  58.4596176  76.3396301  28.5509644  57.9899254
  77.0581055  28.1357327  59.2557716   2.7298706  28.8964672  22.5562134
   3.2884021  28.4305897  23.1784935   2.0489087  28.2644501  22.3258266
  30.0231075  41.6008072  63.5357361  29.1519814  41.8414116  63.8511353
  30.0998764  40.6673050  63.7330055  39.7524071  21.5738659  65.0792770
  40.2175522  21.0702648  65.7472992  40.2008362  21.3585167  64.2614975
  25.7256756  71.4270477  25.7987843  26.5108013  70.9972000  25.4596062
  25.3023548  71.7980804  25.0245953  16.7225647  61.1493378  28.5268764
  17.3205223  61.3762016  27.8146896  17.1035690  61.5641594  29.3008213
  22.8381062  10.7657909  83.9517670  22.2497501  10.6349926  83.2081528
  23.6767769  10.4089890  83.6592712  36.7768745  66.5318680  34.4279099
  37.5518112  66.6847534  34.9685860  36.2898293  65.8523865  34.8940849
  53.8427696  26.1398659  17.8009338  54.6299934  25.8239479  18.2444477
  53.1239166  25.6741066  18.2281971  65.5226974   1.4590174  12.1616364
  65.4264755   0.6476901  11.6629162  66.2196198   1.2722882  12.7906504
  46.5557671  21.9441147  71.6987839  46.0034904  21.1821098  71.5239487
  46.1920280  22.6355114  71.1457062  23.9338799   7.1319036  73.2465591
  23.1239662   6.6301603  73.3388977  23.8133717   7.6351628  72.4412994
  61.9978371  34.3975945  38.2931976  62.6801682  33.9335136  37.8081360
  61.2168350  34.3153038  37.7459373  63.4690514  67.9775162   3.0809126
  62.7209435  67.4160080   2.8777339  63.3639107  68.1903534   4.0082068
  53.9050713  67.7694778  70.3481827  53.2798080  67.2729568  69.8202286
  54.7617760  67.4364243  70.0810471  60.6219597   7.6597419  76.8085327
  61.1334152   8.4623775  76.9106216  61.2541656   7.0104489  76.5003662
  45.5482635  58.9168129  30.7823315  45.1369781  58.4581757  30.0497131
  44.9650917  58.7550316  31.5239315   7.2356515   0.4839313  58.0366402
   7.7302265  -0.0838297  57.4456444   6.3209925   0.2417648  57.8917770
  27.0331383   6.2578754  80.9719696  26.4835663   7.0372791  80.8899078
  27.7509766   6.4050450  80.3561096  62.7807655  34.4811020  43.8290138
  62.6691437  33.5487480  44.0147362  61.9290848  34.8689995  44.0300217
  27.7302361   4.4389553  39.0778732  26.8338814   4.6843772  39.3071060
  28.2763863   5.0950089  39.5109406   0.6467880   3.7776897  38.2324371
   0.3678672   3.7579541  39.1478844   0.0924536   3.1287081  37.7991142
   5.3240118  65.6131744  62.2043610   5.2848349  65.3155136  61.2954597
   6.1800504  66.0344086  62.2817497  39.1821060  19.1216450   8.3137245
  38.8724174  18.8202229   7.4596348  39.4380798  18.3211269   8.7718506
  77.3531494  10.4996758  36.4473114  77.2083511  11.4448967  36.4900093
  76.5054016  10.1170435  36.6734734   6.3503070  64.6457596  26.2509556
   5.7189188  65.2224884  26.6810226   6.9459877  64.3784256  26.9509048
  16.4217377  17.0506458  77.9740906  16.1591949  17.9540272  77.7974396
  15.6334105  16.6363831  78.3250275  38.1616745   7.3812079  16.8830795
  38.8894997   7.2195969  16.2827606  37.3777771   7.2573967  16.3479118
  33.5483093  21.6900425  80.5725784  32.9323921  21.8451519  79.8564606
  33.0114784  21.3229504  81.2749252  57.2888374  23.5859070  54.0911560
  57.0705338  24.3852577  53.6119766  57.6670113  23.8957043  54.9141045
  85.9793930  45.6986847  73.7311172  86.2845230  46.3903732  74.3182220
  86.5306244  45.7842941  72.9532776  59.7258148  50.7775993   5.6594462
  59.0750961  50.0821571   5.7551522  59.2170525  51.5489120   5.4095182
   9.2933006  63.4991455  44.4304428  10.0956631  62.9789886  44.3870659
   9.5338402  64.3428574  44.0476570   2.9986470  63.6423759  79.0483017
   3.7570078  64.1233978  79.3795624   2.5324957  63.3590164  79.8348389
  79.2387161  14.1133127  28.7767162  79.8800583  13.4077759  28.8611717
  78.4170914  13.7278032  29.0809212  37.4873810  20.5364285   0.2019460
  37.4324379  21.2298756  -0.4555816  36.5841599  20.2396908   0.3131464
  49.9609680  35.7681770  57.0937004  49.2437172  36.2336731  57.5239258
  49.6370811  34.8735695  56.9887924  34.1022873  13.4121275  11.0498180
  33.4116592  14.0748672  11.0561676  34.6764145  13.6713924  10.3291292
  61.9209976  55.4580727  45.7983589  61.6844559  56.3300591  46.1144600
  62.1284294  54.9639168  46.5914612  30.4657097  59.8325996  20.2656994
  29.6637096  60.2854385  20.0049992  30.6206169  59.1979218  19.5661125
  50.0698547  49.2329788  87.7891388  49.9141235  48.4600220  87.2464447
  50.2460861  49.9343567  87.1620560  74.0140915   5.5225029  69.0364914
  73.2545242   4.9402704  69.0194702  73.9783859   5.9872880  68.2004700
  34.7097206  45.0120735  34.8897171  34.6505547  44.3728638  34.1796875
  34.1669807  44.6455460  35.5878029  64.8377914  13.6132412  71.1534042
  64.2156677  14.3301439  71.0299301  64.5909195  12.9655209  70.4932938
   0.5344253  64.9442291   6.5107574   0.9223481  65.3077393   5.7147617
   0.0325404  64.1872711   6.2085047   8.3613491  40.8809471  62.8080978
   8.0259037  40.8987312  63.7044182   7.7546740  41.4326439  62.3143272
  73.7885513  61.9984818  14.7478809  73.6182098  62.2823067  15.6460228
  74.3905716  62.6558533  14.3990622  84.3741226  18.9667797  79.3548355
  84.8012619  18.5481205  78.6074982  84.5765915  18.3967495  80.0966568
  63.4328537  64.6359711   4.2716246  62.5435905  64.8192749   3.9685588
  63.9657097  64.6560211   3.4767072   3.2745059   8.1033916  18.9303455
   3.9969375   7.9690046  19.5437489   2.5993741   8.5422487  19.4478722
   6.8458948  49.8295593  64.3055420   7.5509157  49.4939728  63.7518654
   7.2692986  50.0218735  65.1421890  70.9727554  41.3508453  46.1226730
  71.2403564  41.3029785  45.2048874  71.4439392  40.6339340  46.5472412
  78.3469086  17.6828079  41.0798798  78.8058090  18.4655247  41.3848343
  79.0448608  17.0611496  40.8733940  62.8197937   3.3877001  28.5818024
  62.1225204   3.7334549  28.0245781  62.9229050   4.0436616  29.2712326
  64.7905655  54.1600113  52.1609802  65.1097031  55.0579033  52.2513580
  64.4976425  54.1003189  51.2516594  53.4638977  64.7675858  85.9152527
  54.3495903  64.8237000  86.2739029  53.0028267  65.5140915  86.2978592
  48.0322304  30.4616241  34.6410866  48.2362442  31.1246128  35.3006744
  48.0769119  29.6309662  35.1146278  48.9224854  10.2841845  77.5561829
  49.1027756  10.0600176  76.6432343  49.5685501  10.9574575  77.7695770
  51.0672531  27.2861309  24.0793915  50.5253372  27.6983948  23.4066372
  51.7505951  27.9303436  24.2645016  20.1365433  65.1396408  71.9965744
  19.2125721  65.1526642  71.7468948  20.1282692  64.9552307  72.9358063
  38.8880119  22.7767944  74.6974335  38.8350906  23.4019279  73.9744949
  39.8125648  22.5318012  74.7350235  51.0984802  18.0307751  56.0293732
  50.9067268  17.6621151  55.1670799  51.1580544  18.9741592  55.8786697
  64.6270981  26.6923599  71.0895920  63.8783684  26.6723442  70.4935760
  65.3401718  27.0581360  70.5661774  37.4934998  61.6198616   4.7465649
  37.1815109  61.0849113   4.0166874  38.2287292  62.1141396   4.3841248
   6.1410441  36.7454338   9.5294075   6.6492553  35.9498405   9.6874743
   6.4340115  37.3552704  10.2065363  18.6251812   5.8711267  75.9108887
  19.2486610   6.5081716  76.2597122  17.8307343   6.3790007  75.7461090
  85.1034317  13.1197624  42.5413857  85.2193832  13.4622231  41.6550980
  84.4214325  13.6716976  42.9241028  23.1120625  68.2545242   6.5938597
  22.6520920  67.4151001   6.5895972  22.4832439  68.8703003   6.9702163
  53.6818810  58.8469315  76.8904877  53.2538834  59.6029549  76.4886398
  54.0996399  59.1981544  77.6768341  27.0890350  49.4529572  84.8562851
  26.7272491  50.2116432  84.3983154  27.3103771  49.7821655  85.7274094
  66.0503845  31.7383728  53.3612099  66.7321625  31.2858982  52.8645363
  65.3390961  31.8629856  52.7329063   3.4912744  49.3852196  44.9435463
   2.5964158  49.5500641  45.2406731   3.5326624  48.4365501  44.8229256
  53.9744415  70.9497604  60.7753944  54.1715240  70.5968704  61.6430664
  53.3221054  70.3490677  60.4150314  60.1512985  17.0483112  46.8088379
  59.8180122  17.1175900  47.7034607  60.2151222  17.9541664  46.5062027
  74.1110306   2.1093147  50.3933067  74.5818634   2.3368509  51.1950417
  73.4720612   1.4521350  50.6691093  51.3479538  27.8968964   7.8418312
  51.7509995  28.2019463   8.6546831  50.9916916  28.6888657   7.4392223
  70.6827087  22.4873543  56.6068115  71.5160294  22.9570866  56.5726662
  70.0711594  23.0496368  56.1313400  15.6772518  63.1241646  62.1543922
  15.6829958  63.5827827  61.3142319  15.5927591  62.1994743  61.9219322
   1.1998396  36.4699211  85.8404694   2.0901184  36.5094986  85.4910889
   1.1624094  37.1796341  86.4816742  21.0846672  71.6369629  73.1185226
  21.7327690  70.9493561  73.2714920  21.0229225  72.0982590  73.9549561
  33.2059021  62.8853111  34.6223755  32.3648720  63.3232002  34.7533531
  33.5948524  63.3334465  33.8712959  66.6125412  69.2401276  16.8396168
  67.4237213  68.8569260  16.5058727  65.9265900  68.8706131  16.2835941
  23.8020573  28.1201706  72.7649002  24.5286808  28.7429428  72.7447891
  24.0365887  27.4574261  72.1152878  35.9443932  46.6420784  17.9611015
  36.8302383  46.6179657  17.5992680  35.8339195  45.7890625  18.3810921
  31.8223686  42.7704430  74.4975891  31.2754421  42.3829231  75.1809158
  32.5947304  43.0920258  74.9626465  25.4188995  62.5161781  33.3352737
  24.8113766  63.2480888  33.4422951  25.0572433  62.0090218  32.6084824
  25.4378567  57.4597588  86.2770157  26.2691326  57.8286362  86.5755844
  25.3899040  57.6960793  85.3506927  62.1541443  67.8727951  49.6399841
  61.3774986  68.4276276  49.5677567  62.8313446  68.3443756  49.1549721
  31.4441566  22.0453262  18.9843578  31.4506035  21.4362335  18.2459831
  32.2827454  21.8997002  19.4223003  26.0600281  58.5409203  29.5270672
  26.7245712  59.1935997  29.3065529  25.7445602  58.2248192  28.6804314
  40.5509567  67.9737244  44.9976273  41.3255730  68.1247330  44.4559669
  40.5229111  67.0242996  45.1160889  78.4648514  53.4185982  24.0031567
  79.2276764  53.0309677  24.4321918  78.0287399  53.9168625  24.6943684
  46.0269051  21.2324963  26.9354324  45.7649803  21.0452442  27.8368549
  45.9922752  20.3835144  26.4946785   1.1097844   3.9449739  32.8781929
   1.6062799   3.1267672  32.8620224   1.5228735   4.4621739  33.5696373
  68.5435944  44.8024826  79.4639969  69.2388382  44.2713623  79.8523026
  67.8887939  44.8839607  80.1574173  23.0198441   7.8807502  75.7919464
  23.5909615   8.1446228  76.5133514  23.6204109   7.6026297  75.1004257
  64.5975342   1.2822067   4.0812702  64.6499176   0.6124712   4.7631369
  63.8282700   1.0396369   3.5658855  43.2281036  56.4496346  63.3589706
  42.8520470  57.3160477  63.5143471  42.9971657  56.2473793  62.4523315
  37.5360527  56.2078972  14.2329884  37.8757362  55.9878807  13.3655548
  37.4118156  57.1566696  14.2079868  14.6283445  52.0689087  35.2664986
  15.2331762  51.4646988  35.6970100  13.8082647  51.5797958  35.1996536
  66.1828003  48.2981758  24.9810619  66.7971878  47.5642204  24.9726009
  65.4248581  47.9817390  24.4895172  15.6871910  50.7435875  45.4960556
  14.8349972  50.5282173  45.8750191  15.7991076  50.1131897  44.7845039
  60.4253197  47.2520905  46.1251450  60.9872932  47.1201973  46.8887024
  60.1638527  48.1714745  46.1761398   8.1318026  49.0928993  80.8501282
   8.0814981  49.3620110  81.7673492   8.9934940  48.6844215  80.7672882
  13.6347828  50.3605690  74.2189789  13.2623339  49.4908409  74.3641891
  14.1553335  50.5322647  75.0036926  83.5365524  55.6129608  63.0911674
  83.1831818  55.9635696  62.2735863  83.2789307  56.2510223  63.7565536
  81.5844727  38.3110313  34.8563995  82.5230484  38.4815254  34.9354057
  81.3059006  38.0882759  35.7446632  52.6457901  38.4602242  86.1270981
  52.4352951  37.7671814  86.7528915  51.8883247  38.4935074  85.5428238
  57.7392120   9.2708101  31.1237869  57.9028435   9.2660341  32.0668869
  57.7661476   8.3478899  30.8713474  78.0660324   8.3789034  31.7935848
  77.2052536   8.5508041  32.1753426  78.0155945   7.4735346  31.4869995
  61.2828102  44.7815666   3.1554780  60.8585892  45.1735458   3.9187746
  62.0854378  45.2901802   3.0400107  20.5218182  48.8493576  59.9598083
  19.9107990  49.3700714  60.4811020  21.3853455  49.0782013  60.3035851
  85.8141327  45.0608444  36.3804970  84.9852371  45.5393982  36.3681374
  86.2526093  45.3618126  37.1763496  63.5164948   0.4956549  15.1940746
  62.6495705   0.1559139  15.4160061  64.1262436  -0.1125939  15.6117687
  50.8766823  60.3501129  43.7800369  50.0356026  59.9361916  43.9736557
  50.6491814  61.2395439  43.5091362   1.2468984  59.8631935  51.1079903
   0.2940171  59.9004593  51.0251617   1.4881012  60.7105370  51.4822388
   1.9391271  37.1607246   4.8472114   2.4675357  36.9868698   4.0682449
   2.2351007  38.0189171   5.1507573  67.6795959  14.9627085  74.8021393
  68.1545105  14.1328926  74.7563553  67.3338089  15.0898304  73.9186783
  48.8569984  39.0478706   7.5657768  48.8436089  39.7726669   6.9407001
  47.9838753  38.6607437   7.5023646  83.0484009  23.3293381  28.1416035
  82.5017929  23.9187183  28.6612968  83.3630142  22.6787071  28.7692413
  61.2556000  48.5549049  32.3436203  60.5850258  48.4061050  31.6769733
  61.4494667  47.6827736  32.6871796  73.2008438  11.3804293  78.4832993
  73.9657593  11.0098524  78.9235229  73.0193253  10.7727404  77.7663651
  54.7063637  64.6631012  32.9344864  54.5355453  65.5159607  32.5348778
  53.8377380  64.3131180  33.1325531  81.8143997  64.2035446  43.6181068
  82.2726059  63.5045662  43.1515198  82.2131119  65.0104370  43.2922325
  64.1273499  19.7941055   9.9366446  63.7211151  19.7775993  10.8032064
  64.9625015  20.2417736  10.0721216  84.8555450  -0.2679935   9.6248627
  85.4171600   0.3956252  10.0253935  83.9674606   0.0718151   9.7347202
   1.2893388  41.7334213  33.6295280   1.3859069  41.7135544  34.5816383
   1.6623013  40.9030342  33.3335800  79.6364288  68.5556946  63.3762894
  80.0452271  67.7049255  63.2171822  79.7429276  68.7005157  64.3164520
  33.5794220  65.4747849  28.8987141  33.5878944  64.5509491  28.6483345
  33.2135048  65.4798813  29.7831974  22.4591446  39.4550781  28.9340630
  21.9302311  40.1220551  29.3718166  22.8295555  38.9363823  29.6481915
  14.7904644  44.5546799   7.7298765  14.9662867  45.3071098   8.2948265
  15.1115503  43.8020439   8.2265406  28.6889172  63.6576195  27.9588795
  29.2917233  62.9194031  27.8700504  27.8954124  63.2751579  28.3334484
   7.2563272  59.4091492  88.6192245   7.8228426  60.1489296  88.8383484
   6.4739695  59.8104210  88.2409058  33.3965569  53.7234001  49.7939110
  33.7868118  53.9310837  50.6429138  32.4923477  54.0293884  49.8646545
  86.8026810  46.5521584  46.6310768  86.4088745  45.7558823  46.2745781
  86.1304092  47.2238426  46.5165176  57.3999825  10.5745592  53.1885376
  57.5659790   9.6340799  53.1239204  57.6291885  10.9181118  52.3250160
  60.2335281  65.6457062  52.5262566  59.8622551  64.8234863  52.8461571
  59.5622139  66.3012772  52.7154579  42.6627960  26.4212570  18.3236465
  41.9004364  26.7376938  17.8389721  42.5158882  25.4796257  18.4129639
  67.3680038  53.7660255  86.9448547  66.6436691  54.3917389  86.9381561
  67.5623779  53.6147346  86.0198822  79.3880920  56.5236778  40.2842484
  78.8354950  55.7751808  40.0592575  79.9809036  56.1899109  40.9576035
  67.0326385   1.2917664  26.3589916  67.1055679   1.5844808  25.4505692
  66.1597672   1.5740255  26.6322384  47.9531212  46.3413048  33.7889290
  47.3916397  47.1070290  33.9099083  47.9051819  46.1548920  32.8512802
  77.0406876  53.3056526  72.8050232  77.2585602  54.1992912  73.0699234
  77.8791199  52.9200211  72.5509338  56.0459175  34.1197166  34.4083519
  55.3440247  34.5482597  34.8981743  55.6751709  33.2770348  34.1463013
  61.9465370  68.2539597  85.8685837  61.4958534  67.5194473  85.4519196
  62.7572365  67.8755875  86.2089310  39.7209129  61.7521629   7.8550067
  39.9248390  62.6514091   8.1119127  38.7650795  61.7070656   7.8791957
  49.4486351  63.1645470  55.5931053  48.6199951  63.6002922  55.3938179
  49.2240791  62.5169868  56.2612915  40.5753555  30.4650974  74.6059875
  40.5301018  30.1695004  73.6967010  39.6747437  30.4008904  74.9238129
  13.9289341  49.0277748  87.3550949  13.7063971  49.4816704  86.5422668
  14.5514612  48.3511543  87.0888748  56.4276924   8.8610220   9.9382591
  56.2908478   9.3147039   9.1065874  55.7179222   8.2202272   9.9811516
  67.3642273  29.5551586  20.0200787  67.5707550  29.8957272  20.8904762
  66.6225052  28.9671745  20.1627464  12.0669384  62.2252426  35.7971725
  11.7115250  62.5886345  34.9860878  11.6636982  62.7475929  36.4905586
  19.5383892  51.4706230  26.1837883  18.8350239  50.9338417  26.5489902
  19.5950356  51.2000198  25.2673836  11.3522301  59.3731194  47.4295769
  12.0067549  59.1118126  48.0773048  10.9268484  60.1393166  47.8145790
  55.1956482  51.1775246  24.3616734  54.3745499  51.5726471  24.6547718
  54.9861412  50.2513504  24.2411118  11.3550873  23.4136906   5.4478631
  12.1862297  23.0450096   5.7470446  10.8474836  22.6557903   5.1577640
  31.7650814  14.7141371  74.4702759  31.1687298  14.7118826  73.7215424
  32.2305412  15.5478544  74.4032288  64.3387375  61.1283073  15.3430824
  64.1855087  62.0164528  15.6655016  63.5585938  60.9225464  14.8280420
  52.0916519  58.9595070  23.2771320  51.2800903  58.5110741  23.5148525
  51.8086853  59.6944084  22.7330017  79.6819077  34.7169952   4.6542044
  80.4295120  34.1565208   4.4463911  79.1504517  34.1944427   5.2548065
  63.2587891  51.2011566  84.6637802  62.8749199  51.3932724  83.8082352
  64.2029800  51.1946411  84.5066528  33.9286118  46.2603455  16.2727699
  34.5885124  46.1356430  15.5907068  34.4296379  46.2927132  17.0877266
  78.1177368  35.3255692  18.9967232  77.5935516  35.7928314  18.3462410
  78.1765823  35.9304428  19.7362480  40.7057762  55.5969963  23.6443996
  41.0340309  54.8235779  23.1858120  41.2627869  55.6703148  24.4193821
  65.3163834   0.9025364  56.7700272  65.2162399   0.0128410  57.1086235
  64.5245438   1.0528330  56.2536583  16.8504391  58.7009048  75.2547836
  17.1979446  58.4671059  74.3940811  17.6124649  58.6826859  75.8337631
   9.0742731  18.8335133  68.9963150   8.5046091  18.0761051  69.1306534
   8.5904293  19.3922310  68.3880692  68.1417007  65.0277939  47.8509483
  67.2420883  65.2252884  47.5903091  68.4089432  64.3163223  47.2690392
  60.9283218  52.9308128  54.4669952  60.9604568  51.9827042  54.3393555
  61.8427582  53.1876373  54.5856667   9.9860125  43.9475060  40.4191856
   9.5119896  43.8226624  41.2413445  10.4458942  43.1196747  40.2797737
  80.1216660  66.9290695   5.6578274  80.7849808  67.1574783   6.3090405
  79.5038986  66.3713531   6.1306329  55.7996216  23.0317917   6.2657628
  55.0551529  22.7065334   6.7719302  56.5597496  22.8633995   6.8226128
  21.9553509  23.6431808  11.0463343  21.6333427  23.9559631  10.2009296
  21.8467712  22.6929588  11.0073128  61.0431557  21.2195625  25.9019966
  61.8898010  21.4900665  25.5466747  61.0490341  21.5389080  26.8043365
  76.0170059   6.7024932  53.7862549  76.8861694   6.3225141  53.9142952
  75.7998581   6.5023317  52.8757553  77.5727081  48.0285263  34.7666626
  77.4788971  47.0818520  34.8726845  78.3845062  48.1347198  34.2707443
  23.3756695   7.6063075  81.1353607  23.0843124   7.0628223  81.8674622
  22.5919628   8.0852804  80.8658829  81.2313385  18.1420708  78.0012207
  80.4662399  18.1533260  77.4261322  81.3002930  17.2321854  78.2903366
   7.4964838  43.4888573  57.5098648   7.1331792  42.7698975  58.0269165
   7.6118679  44.2014732  58.1384315  70.3909378  38.9415550  13.3482447
  69.8747711  38.1620407  13.5535612  71.1085358  38.9272957  13.9815559
  18.8674507  50.1210327   7.2487607  19.7313366  50.3072166   7.6165514
  18.3299618  50.8690224   7.5092449  10.8121796  61.1682167  71.2249756
  10.3825922  60.3372192  71.4277802  11.5455694  60.9268875  70.6591721
  53.8160973  28.4771938  77.9567261  53.4244347  29.3128033  77.7025833
  54.2342720  28.6550674  78.7991791   3.3633647  71.3331299  31.8205528
   2.8247094  70.5717773  32.0360222   3.8849144  71.0524445  31.0685997
  76.6027985  33.9078178   4.6908636  77.1238098  33.5200615   5.3940206
  76.8210983  34.8394318   4.7168093  80.2058487  26.9949398  54.8958588
  79.3617172  27.3795528  55.1319733  80.0714264  26.6443710  54.0153694
  16.6806812  42.6757736  37.9644089  15.8973408  42.4206200  37.4770584
  17.3877773  42.1710625  37.5625229  67.5725327  57.5363197  62.5724487
  66.6397781  57.6502457  62.3902130  67.6142502  57.3725700  63.5146179
  66.5812149  37.4112015  15.5208273  65.9675751  37.0199127  14.8990755
  66.6717529  36.7558708  16.2126198  23.5160446   3.2673657  86.2100143
  23.3246918   4.1664910  85.9432068  22.7929592   3.0308781  86.7909241
  60.9015388  61.9079819  70.8587952  60.0858841  61.5452957  71.2043457
  61.0218849  62.7271233  71.3391724  21.6539230   2.6663141  21.6317673
  22.1601372   3.1568356  22.2793541  21.0492153   3.3100798  21.2628136
  38.2952118  44.9702301  57.6958008  38.6273117  44.8921852  56.8014565
  38.8264503  45.6626320  58.0889854   7.4692693  19.1673641  60.6967392
   7.2049437  19.4779701  59.8307800   6.6472077  18.9379978  61.1301422
  43.2767296  56.4039574  75.7213516  44.0789871  56.3074379  76.2344742
  43.1511650  55.5488167  75.3100204  62.5583725  58.0114441  34.4162521
  62.8618813  57.4545135  33.6993561  62.8384666  58.8929482  34.1698227
  20.9505768  46.2884750  37.1972923  20.8543148  45.3685913  36.9507484
  21.8845043  46.3908997  37.3803749  78.4827576  37.4469910  14.7652817
  78.7911530  36.6697960  14.2993498  78.0752945  37.9865074  14.0876942
  56.6469650  37.8156700  22.7011108  57.0418358  37.6228256  21.8507462
  57.0062256  38.6689911  22.9440250  40.8363838  57.0225639   6.8412147
  41.3472137  56.5163383   6.2095313  41.1871719  57.9107780   6.7760205
  44.9135017  33.1139297  58.9855995  44.1647186  33.6878128  58.8237000
  45.4940071  33.6297417  59.5452271  29.4485760  24.6343098  71.3354416
  29.0462132  23.8971138  70.8762207  29.1761589  25.4046097  70.8367844
   3.7354002  58.8162575  13.5567474   3.0517192  59.3411331  13.9730644
   3.8219121  59.1883087  12.6790657  77.8784790  44.1826706   2.8821628
  77.2703705  44.8902054   3.0962429  78.6467972  44.3542480   3.4266605
  48.0119591  51.5355873  24.5849342  47.3596992  52.0893097  24.1557751
  48.2299232  50.8714561  23.9309826  69.5957565  58.7692757  61.2930832
  69.4474487  59.7083702  61.1819992  68.7866592  58.4440689  61.6878395
  57.0888481  70.5040131   1.0044558  57.6435852  70.5494080   0.2257171
  56.8547668  69.5788040   1.0781752  23.4635181  66.8376694  34.3503456
  23.4688396  67.7475128  34.0530357  23.8571701  66.3475189  33.6285210
  74.6597595  27.0423508  46.9471016  75.5759277  26.9399014  46.6894760
  74.3562012  26.1497440  47.1124382  54.0633049   7.5805025  10.6320763
  54.0925407   6.6859260  10.9713545  53.1345291   7.8116312  10.6457987
  46.2238960  36.9785728  18.4145870  45.5256348  36.9019318  17.7643642
  47.0222778  36.7551842  17.9361382  51.3997688  21.9340782   7.4619126
  51.8193512  21.3262558   8.0707932  51.1884041  22.7000275   7.9956536
  29.4979153  40.3694839   4.9173856  30.1642876  40.7653694   4.3557329
  29.8563423  39.5119820   5.1464100  30.1170979  25.8633976  82.5189209
  30.1151657  26.7522202  82.1636429  30.9184399  25.4694004  82.1741714
  31.4448071  48.1511497  18.1952553  31.8805408  48.1653862  19.0474091
  31.1364422  49.0484657  18.0689068  19.1536083  10.2128706  17.3714066
  18.9018040   9.4101362  16.9148502  18.7844810  10.1150513  18.2491360
  61.5926933  55.1748238  83.3538971  62.2527351  54.7677956  82.7927322
  61.4715576  56.0498543  82.9852753  51.5538826  71.8475800  51.1795311
  50.7506142  71.3923187  51.4319763  51.9997368  71.2382431  50.5911789
  79.2438965  45.1467247  74.9411850  79.1778946  45.1663437  75.8959045
  80.1825104  45.0758858  74.7673874  68.4296417  30.7279663  51.4117737
  68.8984528  30.2163677  52.0710983  67.7965775  30.1147461  51.0383720
  70.1337357  47.8755455  84.5283279  69.9940491  46.9826202  84.2130432
  71.0380173  47.8800240  84.8421478  78.8350143  21.5444221  77.0920639
  79.2302780  22.0353336  77.8124847  78.7070999  20.6635990  77.4442291
  78.0167236  21.7570152  15.9299669  78.1739273  20.9118290  15.5090399
  77.6002197  22.2886353  15.2516289  65.8186722  36.7200775  22.7974720
  65.2764587  36.9059906  22.0308723  65.1925659  36.4858551  23.4825726
   1.9796839   4.2109804  57.4051743   1.4173268   4.8732910  57.8068352
   1.7861955   4.2680020  56.4694710  83.0037231  51.1633606  78.0753174
  82.0827789  51.4186668  78.1292648  83.0149460  50.4377365  77.4511566
  32.5113525  22.8808937  72.3534088  32.5816078  23.7209530  72.8068390
  31.6399078  22.8944855  71.9576416  84.4339218  16.7998409  23.2770176
  84.6871948  16.5604916  24.1685333  83.5841064  16.3785954  23.1481876
  34.4243660  11.9317350  76.4031601  35.2570686  12.3413239  76.1684723
  33.9071388  11.9623756  75.5983124  17.0451488  44.6587334  81.4065552
  17.7566891  44.3699493  80.8351059  17.3024044  44.3602867  82.2788925
  66.0635147  63.4385757  21.3666821  66.3929825  64.3339081  21.4445095
  66.7585602  62.9666290  20.9079666  59.3915749  28.3398590   7.7150331
  59.1747742  27.7841835   8.4636669  58.6456184  28.2454510   7.1226940
  76.1036835  40.0315590  15.3453407  75.1827393  40.2601929  15.2195215
  76.3303604  39.5159531  14.5713873  29.6584568  48.1214752  75.6603241
  29.3957634  47.7988853  76.5223846  28.9168873  47.9153557  75.0912704
  46.4386482  48.3214226  53.0329552  46.8731232  49.0632629  53.4538269
  45.7094193  48.7124634  52.5517616  86.0793686  71.2455750  18.1126175
  87.0101242  71.2550354  17.8893890  85.8417892  70.3183289  18.1097527
  77.0401459  60.2974739  63.7970047  76.2122574  59.9991302  63.4204140
  77.3166885  59.5795822  64.3665543  22.1234379  27.7905827  81.0967865
  22.8033466  28.3685093  80.7504425  21.9841499  28.0951405  81.9934921
  50.1105652   6.0093040  80.2586670  49.5072708   6.3797021  79.6144104
  50.8725281   5.7395787  79.7459335  80.5709457  65.6865234  78.2956314
  81.0615234  65.5104752  77.4927750  79.9604416  66.3834991  78.0553207
  57.5193787  21.6241417   2.4879894  58.1448898  21.2440643   3.1048410
  57.0675812  22.3012199   2.9916534   5.4978862  61.1358299  32.0457916
   4.5994682  60.9343987  31.7840614   5.4644880  62.0478439  32.3344879
  66.5457535  64.9180756  57.6776733  66.8762817  65.3880615  58.4432411
  67.2141800  65.0540543  57.0061455  13.1633682  58.8197289  39.1801796
  13.0432463  59.5057487  38.5235367  13.5343895  58.0841026  38.6929092
  35.6572342  67.1419678  88.5470276  36.3635292  66.8804474  89.1377792
  35.4151649  68.0212860  88.8376236  86.6189117  45.4577522  23.1906319
  86.0122223  46.1778831  23.3625889  86.8428497  45.1208992  24.0581665
  64.4414597  69.2004318  23.5861206  64.2747192  69.6203842  24.4299622
  65.3953705  69.1428986  23.5315590  46.4649620  21.7037392  44.2297211
  46.3860512  22.4323883  43.6140289  47.3182144  21.8317451  44.6442184
  72.9576721  10.7759027   0.1781077  72.0589447  10.7167387  -0.1459678
  72.8669891  11.0779133   1.0818770  78.9185257   3.9984457  28.7462063
  79.5850372   4.0206356  28.0595493  79.3246841   3.5043898  29.4583683
  73.0246277   9.5801611  46.3618507  72.6538162   9.8535147  45.5228004
  73.1005020   8.6285667  46.2915421  55.1244545  57.4090614  45.5960159
  54.1857224  57.3872414  45.7818680  55.3169327  56.5444794  45.2331352
  81.0321808  45.1776848   0.0870642  80.8405533  46.1105537  -0.0091964
  80.1876984  44.7453423  -0.0400592  66.7917862  56.2268066  67.4941483
  65.9066162  56.1119003  67.8398514  67.3136139  55.5642853  67.9469147
  50.4231873  70.5924530  58.8575935  49.7514000  70.4749451  58.1859322
  50.8538170  71.4148712  58.6243362   7.9740720  60.6266327  74.3287888
   8.8162107  61.0568848  74.1807404   7.3293452  61.3302536  74.2547836
  66.1417618   4.8832445  88.7297516  65.2445374   4.6908054  88.4573898
  66.6861649   4.5374913  88.0224228  45.6172676  56.1759186  73.4966354
  45.7623940  55.4263420  74.0739594  46.4884682  56.3968239  73.1673431
  58.0797119  16.1212616  26.9423256  58.0223579  15.7972307  27.8411846
  57.9700394  17.0688267  27.0218601  43.9248352  62.4766350  39.4330368
  44.4048767  61.9509392  40.0729065  43.0261192  62.4926147  39.7621040
  77.9361496  62.7290955  14.8160677  78.0139999  61.7929688  15.0000210
  78.1852036  63.1558113  15.6358948  61.1868553   9.5996723  83.2223129
  60.9983482  10.5380630  83.2113113  60.5091362   9.2258158  83.7854767
  14.6031971  46.7272301  64.7132339  14.8291712  45.8834229  64.3218842
  15.3561535  46.9459267  65.2622910  15.8896589  17.7254658   4.6923084
  16.1324863  18.1599903   3.8747172  15.7432890  16.8126640   4.4441195
  48.0280800  27.5376892  74.8040390  48.0333633  27.1328430  73.9366837
  47.8010750  26.8239708  75.4001083  71.1133347  56.7957039  82.4924927
  71.1349030  55.8536911  82.3240433  71.8838577  57.1377831  82.0391617
  47.6789436  68.2378845   4.4688973  48.5255508  68.1231308   4.0372510
  47.0643272  67.7444763   3.9257376  63.2738266  68.4953003  82.6690445
  63.9860687  68.3429718  83.2901230  62.5451775  67.9752731  83.0079651
   1.3495238  16.0841866  24.1360397   1.3575995  15.5286016  23.3566227
   1.4915339  16.9693909  23.8006630  42.6034012   1.0474008  12.7226458
  42.9650726   1.9283600  12.6260185  43.3000298   0.4674336  12.4151125
  83.6575699  49.9463043  64.5913925  83.2707596  49.1023750  64.3581619
  84.2542267  49.7452354  65.3123627  80.7298355  18.4587212  55.4395676
  80.0820847  17.9695435  54.9322624  81.5512848  17.9888954  55.2956581
  65.7964554  58.1879463  70.3960724  66.2711029  58.9957695  70.2001953
  65.5082397  58.2933388  71.3027496  67.0091553  20.9219112  36.3841057
  67.1233368  19.9858627  36.2197571  67.6569290  21.1275024  37.0581627
  64.9447327  46.8690605  27.8549061  64.7515259  46.1751442  28.4852905
  65.8761902  47.0519676  27.9780540  75.8470993  54.5228844  41.7804794
  76.3588486  54.6287689  40.9785233  76.2705841  53.7984123  42.2409439
  83.8806229  52.8420410  42.4073601  84.4479980  52.4548607  43.0740013
  83.3290863  52.1175690  42.1120949  70.3725586  15.0090580   6.4280434
  71.0911331  15.2403440   7.0165858  70.7995224  14.5839529   5.6842580
  33.1895752  59.3035545  47.3402138  33.3578644  59.3012047  46.3979301
  32.2881393  58.9925117  47.4232979   9.2753267  43.9729576  61.5932655
   9.9898825  44.1399765  60.9786530   9.5906563  43.2507744  62.1366348
  75.1818161  36.3544083  59.0804596  75.5871429  37.0627403  58.5802536
  74.2765274  36.3298798  58.7704811  66.7518387   0.8218441  44.1590652
  66.6330109   0.1038536  43.5372925  67.1176376   0.4049962  44.9392319
  83.7757721  64.5928040  74.4989700  84.6943588  64.7538986  74.2833710
  83.6685486  63.6469231  74.3987579   5.7548695  48.1159859   5.9424872
   5.4844632  48.4469414   5.0859947   6.7087860  48.1951447   5.9395852
  57.3092918  67.6626740  63.2159271  57.8743591  67.3005219  62.5334473
  57.5512848  67.1817780  64.0073853  29.2372513  54.1292686  13.7500648
  28.4741516  53.9250069  13.2095213  29.8079338  54.6397514  13.1756439
  26.7609272  66.1557236  84.9243851  25.9421349  66.3631516  84.4740753
  27.1964531  67.0013962  85.0311356  22.9195290  11.4254408  23.0438290
  23.2151489  12.3148155  23.2383900  22.5054169  11.4935102  22.1835327
  41.0795021  67.4254837   7.8293166  40.1818352  67.4879990   8.1556892
  41.3205070  68.3271942   7.6170182  37.3145943   9.3748188  86.8486557
  37.2012596   9.3896151  87.7990036  38.2321320   9.1340866  86.7205811
  70.5580597  47.4407921  88.6725998  69.8564224  46.7974548  88.7728119
  70.1245956  48.2870712  88.7828369  30.8084927  63.5590591  22.9080219
  30.8994427  64.2461090  23.5682640  30.3298492  63.9767799  22.1920338
  53.1154022  57.4151039  35.3207932  52.6397400  56.6659622  35.6796303
  53.3599930  57.9331474  36.0876312  82.9349976  65.7145233  30.0909901
  82.7714920  65.4934845  29.1741238  82.5837555  64.9721375  30.5826473
  39.4868393  44.3432541  18.3106079  39.3915100  45.1164093  17.7543926
  39.3190727  43.6048279  17.7251053  13.0387154   0.5298545  74.6849518
  13.4617739   0.7722927  73.8612518  13.7545500   0.2199650  75.2397308
  27.8278484  61.3536949  74.0157166  28.2910519  60.7083244  73.4816971
  27.8099918  62.1434288  73.4751282  60.1969910  43.0987778  75.2336273
  61.1426888  43.2274628  75.3066025  60.0673485  42.7755241  74.3420410
  65.7894135  30.8317070  35.2023430  66.3823395  30.5836468  34.4930153
  64.9772873  31.0790520  34.7601967  57.6679497  58.4554024  77.4798203
  58.4254456  58.5773087  76.9074860  57.0810165  57.8860130  76.9822922
  83.6203079  71.7920609  74.6033096  83.4014130  71.0869675  75.2125473
  82.9625931  71.7234268  73.9112549  55.0537987  49.7747078  69.5821609
  54.5312080  50.5756416  69.6226273  55.9560204  50.0710869  69.7020874
  41.3700485  55.3592072  15.4028740  40.5906219  54.9034042  15.7206259
  42.0900612  54.7534523  15.5785818  39.2480621  47.4936371   6.5925555
  39.7366562  48.3123894   6.6771255  38.3327065  47.7477417   6.7099710
  70.9179153  45.2801552  83.6902008  70.2897873  44.6920853  83.2708435
  71.4123535  44.7171402  84.2858276  75.1616745  27.2947178  30.0487347
  75.9614639  27.8136005  30.1343384  74.6290054  27.5496464  30.8020630
  85.6916580  59.4216270  34.6948586  85.9925613  58.6093483  34.2875557
  85.4657211  59.9895515  33.9582138   8.8681450  25.7673073  64.8516693
   8.0267334  25.8795261  64.4093246   8.9350424  26.5235996  65.4345703
  57.4667320  62.7727737  57.3745956  57.0642128  62.0384064  57.8381805
  58.3841591  62.7540665  57.6470032  44.7408218  40.6898460  67.9231567
  43.8869629  40.7195892  68.3547440  45.1145859  41.5584717  68.0715485
  73.0211258  37.8884659  38.1340218  73.8907700  37.5147705  38.2765121
  72.7302856  37.5089417  37.3048019   9.6146126  39.5898743  65.5729599
   9.5320349  40.3354568  66.1675339   9.6027050  39.9785614  64.6983109
   5.3816848  68.0210266  37.9960022   6.2252579  68.4387512  37.8224487
   4.9697371  67.9464569  37.1352043   9.0795441  50.4228897  18.4518356
   8.6625557  50.7057533  17.6379929   9.5259075  49.6080322  18.2216167
  31.8320999  59.1161270   4.5028014  32.0169373  58.4032211   5.1142187
  32.3462563  58.9031067   3.7240222  14.0278625  71.6755295   4.3240976
  13.8392086  70.8664932   4.7996001  13.3956795  71.6839218   3.6054144
  83.3887711  42.0033340  84.5912857  82.8597870  41.8359070  85.3712692
  82.8613663  41.6659241  83.8672485  24.6257133  60.9067993  68.3923798
  24.9240627  60.7730713  69.2920151  23.9485664  61.5797310  68.4621353
  25.2549133  62.7303200  80.4712143  24.4298115  63.1765022  80.2805252
  25.0300541  62.0885925  81.1449051  54.5374336  67.2453079  45.6530800
  53.8112679  66.8618164  45.1612968  54.2651596  68.1481552  45.8172646
   5.3920608  37.5837135  33.9739189   5.6474314  37.4800911  33.0572510
   5.0842314  38.4879341  34.0360527  74.9697876  59.2636490   3.7061851
  75.1908646  58.3455811   3.5496418  74.0285034  59.3150177   3.5401187
  16.4793606  48.8277435  51.1125450  15.5302715  48.9297371  51.1836815
  16.7355919  49.4432945  50.4257584  47.8419304   1.3492666   2.7310722
  47.6543884   2.0677550   3.3350878  48.5713882   1.6676232   2.1993093
  67.6944275  28.6071758  13.3644829  68.4245911  28.5772800  13.9827108
  68.1101990  28.6961784  12.5069036   0.2977600   9.1159992  14.7199230
   0.8526654   9.8893108  14.8214159   0.5998345   8.5135612  15.3996658
  81.0704956  47.7808113  86.2780914  82.0120163  47.6742897  86.1423798
  80.9701996  48.6908646  86.5573349   7.4930525  60.9362984  48.3417130
   7.6961646  61.6205254  47.7038956   8.2464695  60.9278984  48.9320717
  26.9942894  40.9352798  74.8525238  27.8403358  41.1973000  74.4895020
  26.9237270  40.0031166  74.6467972  48.3306160  31.5962372  69.1250305
  48.3716202  32.5316162  69.3240662  48.6213226  31.1671581  69.9297714
  45.3147202  25.8089752  23.3094196  44.9000244  25.3394794  24.0331821
  44.6128807  25.9318676  22.6702404  39.5886192  17.0569611  71.9116821
  39.5359001  17.9721622  72.1871109  39.6538315  17.0973530  70.9575577
  27.5981293  38.4724045  49.6569328  26.9329758  38.3526688  50.3347702
  28.4231701  38.5311546  50.1386909  60.7778091  49.8900871  53.9345779
  61.1225967  49.8046722  53.0457230  61.1548615  49.1497307  54.4099083
  60.9176559  28.3866253  62.2006721  60.8153038  28.0991402  63.1079254
  60.1245461  28.0798054  61.7612762  69.0546265  16.6720295  28.9030304
  69.8232727  17.0475960  28.4736538  68.3355026  16.8357887  28.2928810
  78.7147903  60.4732742  46.3581543  78.6108322  59.8276443  47.0571404
  78.0556641  60.2304993  45.7078896  48.8026161  59.4405060  72.9235229
  48.2386703  59.9429741  73.5115051  49.4055367  58.9789276  73.5063324
  35.9758606  65.3662491  82.9369583  35.2525558  65.9032745  83.2604828
  35.8878784  65.3948135  81.9842377  29.0317917  54.2635689  35.5608330
  28.9773464  54.2167702  36.5153351  29.7002945  53.6195564  35.3271980
  56.0650482  18.3054695  43.7741203  56.3675766  17.4193668  43.5753021
  56.8078766  18.8673439  43.5533562   6.6632714  42.8045959  75.7928848
   6.0581231  43.0380135  75.0889359   6.9850073  41.9353790  75.5537643
  78.1765442  28.4581032  10.5104141  78.0508652  27.8806648  11.2634106
  77.3065491  28.5332489  10.1183729   3.0048559  55.0819244  86.5994873
   2.0999835  55.1761780  86.8970718   2.9301727  54.8707466  85.6688690
  47.5296440  53.7085724  22.3301239  47.5364227  53.1125870  21.5811348
  46.7336426  54.2277641  22.2158775  67.5821075  25.5383492  11.0857058
  66.8381729  26.0674419  10.7978582  67.2156906  24.6648808  11.2236376
  53.2958603  57.0132484  26.6820297  53.7113838  57.4895325  27.4008656
  52.3774185  56.9410820  26.9418163  81.9529648  47.2263489  24.4605598
  82.0345840  46.5187492  23.8211269  81.0595703  47.5504646  24.3463936
  81.4566650  59.6683350  59.0952492  81.9553909  59.6568680  59.9121780
  82.1044922  59.8765526  58.4220467  74.4605484  34.9080963  40.3243637
  75.2101746  34.6223831  40.8465347  73.7222061  34.4073715  40.6712914
  62.9300270  40.4721718  37.8232994  62.8583336  40.8403091  36.9426384
  62.0382233  40.2033348  38.0438499   9.8436918  35.9538002  17.5822754
  10.2553930  35.4131432  16.9081650   9.2674847  36.5442505  17.0969028
  42.3528481  24.8667126  60.9978447  41.5883217  24.8208351  60.4237137
  42.8407097  25.6291695  60.6865921  31.2615738  41.4879112   3.2751248
  31.8845520  42.2013130   3.1365974  30.6638813  41.5437126   2.5295510
  12.0912819  31.2801571  82.0547562  12.0217094  32.0537338  81.4953156
  11.4375582  31.4203739  82.7397461   1.0184274   7.7164202  53.5301208
   0.0954078   7.9693584  53.5131302   1.4719617   8.4355183  53.0903091
  65.5704269  47.0647049  33.2268677  65.2895737  46.2944527  32.7328377
  66.4130173  46.8127556  33.6047440  55.9288063   5.1603622  18.1868553
  56.7349205   5.2514644  17.6788101  56.0150146   4.3126106  18.6228809
  28.7202320  56.3069725  84.9119110  29.3941517  55.6272163  84.9113541
  28.3214588  56.2495956  84.0436249  39.2561913   2.6267827  69.3628845
  40.0701866   2.8223329  69.8269958  39.5397987   2.2411580  68.5339737
  62.1380768  37.0875320  31.6870975  62.1715279  37.8036537  32.3213539
  61.2046242  36.9026070  31.5836525  14.5012484  26.5036049   5.1601520
  15.0090942  25.9544220   4.5628901  14.9847174  26.4704132   5.9856143
  41.1474304  65.5904770  56.5711365  40.2515755  65.2533340  56.5675011
  41.4403648  65.4823456  57.4759750  69.8601608  52.5224800  29.0171490
  70.7168808  52.3502350  28.6265106  69.6987457  51.7674599  29.5829411
  24.7424335   6.5411940  14.4619284  23.9358788   6.4898634  13.9490290
  25.2238216   5.7466059  14.2314358  76.0183716  47.1551857  23.7103863
  76.0427551  46.2029114  23.8042393  75.9228973  47.3007240  22.7691441
  14.6016006  44.1340446  35.5635490  14.2140846  43.2619133  35.6373749
  14.3755159  44.4225235  34.6792984  67.9188995  61.2187004  75.2694321
  67.6942215  61.6812859  76.0767517  67.4023285  61.6548271  74.5917969
  53.6233559  41.7608032  35.3159904  53.9261093  41.1050987  35.9441795
  53.9721336  42.5885048  35.6469002  61.7237129  68.4797897  13.0374298
  61.5099106  67.7397003  12.4692764  61.6791801  69.2437897  12.4625015
   7.9748034  29.8491383  76.2787247   7.6439877  29.1069565  76.7846451
   8.2101860  30.5023022  76.9376678  85.4693146  44.8817368  61.1801033
  85.5172653  45.6787186  61.7080765  86.3131027  44.8415298  60.7299461
  57.2355766  44.8017006  34.6184502  57.0996284  44.1787758  33.9045067
  56.6713181  44.4846382  35.3236542  42.6325760  31.7978935  27.9843731
  42.4779015  31.9702358  27.0556068  41.7736740  31.9026546  28.3936958
  25.6982784  62.6893883   3.0684645  25.4291763  62.9303017   3.9549057
  26.6460724  62.5704422   3.1298873  71.8757095  43.2225113  51.1796036
  72.5560913  43.4227943  51.8224068  71.7777710  42.2713242  51.2229767
  40.6795120  68.6423340  48.7225876  41.2158318  68.5348663  47.9370651
  40.1515121  67.8449554  48.7630424  31.1909027  40.3557510  61.1955490
  30.7811432  40.4960938  62.0491486  32.0719109  40.7177811  61.2903633
  28.2124786  46.4599037  65.8257599  27.6246758  46.9736214  66.3796616
  27.8223877  46.5083160  64.9529953  16.4050980   4.3872166  78.9256439
  16.3215141   3.7127886  78.2515640  16.1785526   3.9401429  79.7411423
  63.9988861  23.0674629  63.7822189  64.9433136  23.2229176  63.7713699
  63.8973274  22.1848240  63.4260406  48.2906990  56.2466469   2.1278231
  49.1535683  56.6053963   1.9204811  48.4704590  55.3669128   2.4594715
  11.9615688  19.2583714  57.9024887  11.3597813  18.7539234  58.4498596
  11.4369345  19.9927750  57.5836754   6.4590411   9.7046442   1.0218410
   6.9732914   9.0881147   1.5430616   5.6449003   9.2379351   0.8331912
  53.0437622  53.7503967  13.7750931  53.0337143  54.0155640  12.8554096
  53.6337204  52.9970551  13.8007259  69.1166992   0.8592337  38.0279732
  69.6978378   1.3731439  37.4672508  69.7021561   0.2697305  38.5033264
  48.4566002  35.6194115  60.2969360  48.5764389  36.1031418  61.1141701
  48.6810913  36.2483749  59.6111946  57.1275902  10.9368610  71.9843369
  57.3150444  11.8528223  71.7791290  57.0813141  10.5049477  71.1313782
  14.6726751  28.5194740  77.0476379  14.1910744  27.8118801  77.4761200
  14.1868153  29.3121109  77.2754440  27.4545345  69.8377762  70.0254593
  27.6205215  70.4612579  69.3183899  27.3004246  70.3846741  70.7957764
   9.9801226  52.0741501  42.2937012  10.4622564  52.6093979  41.6633949
   9.0754461  52.3790855  42.2243729  58.1205444   5.7439728  16.6715565
  58.8795738   6.2722826  16.9185276  57.7784119   6.1691742  15.8851843
  18.7561741  16.9844475  58.5282784  17.9058132  17.1525421  58.1222458
  19.0730667  17.8496895  58.7874489  46.6170540  71.0846329  23.3430786
  46.1374779  71.8675690  23.0724430  46.1037331  70.7279663  24.0680065
  78.5738525  18.5380497  66.9374771  78.9374542  19.3595295  66.6070251
  78.8784409  18.4886436  67.8435745  46.8838539  23.0265579  33.8713036
  46.2774582  23.5187016  34.4247589  46.5057335  23.0817604  32.9936867
  82.6235962   2.5224526  56.3628311  82.5980911   1.6664299  55.9352722
  82.3698654   2.3454049  57.2686462  67.0029831  50.4159203   8.6382475
  66.4855728  49.6356316   8.8374090  66.8550262  50.5696793   7.7051358
  78.8053360  66.1918945  11.9398069  79.6377487  66.2765350  11.4748783
  78.5680771  65.2699203  11.8402786  32.0539169  35.7676544  13.2344275
  32.1912117  35.3537064  14.0865011  31.2153130  35.4195938  12.9313974
   7.5415483  68.1761017   1.9735304   7.5707693  68.2241440   1.0179833
   7.1423826  69.0033646   2.2428403  61.8100166  53.7229500  79.0479355
  61.2242661  53.0286980  78.7460403  61.8288116  53.6234169  79.9997559
  39.4884148   7.0527978  70.6149521  39.0213547   7.7372675  70.1358032
  39.9806557   6.5826411  69.9419861  52.0577660  49.1420555  80.9646225
  51.2846031  48.6831703  81.2930756  51.7108765  49.9386940  80.5630493
   2.8955345  58.5369759  36.1861076   3.6577573  58.7337341  36.7306557
   2.5105908  57.7570076  36.5857315   7.2027054  65.2516403   2.7830987
   7.3155518  66.0243912   2.2296069   7.8069434  64.6052246   2.4180207
  80.8504105  28.7365665  74.5921402  80.2355118  28.7858257  73.8602219
  80.6332550  29.4918213  75.1386414  63.4904480  30.4036217  70.5596619
  63.9030037  30.9730415  71.2091141  62.5608101  30.4147491  70.7874374
  19.2036953  61.0035553  46.3492012  19.9209423  61.1755753  45.7391205
  19.3349743  61.6342621  47.0571594  77.0157623  24.9042282  52.6945686
  77.6843262  24.5391178  52.1149635  77.3526840  25.7672863  52.9350853
  46.7431755   1.9913478  46.7667274  45.8015862   2.1617174  46.7418823
  46.8216324   1.1428908  47.2028427   2.0211310  35.5637016  45.1935577
   2.2483459  34.7385178  45.6221352   2.2122808  35.4133339  44.2677689
  17.4864502  34.5578194   1.8383791  16.7021828  35.0054588   2.1558323
  17.1783581  33.6892090   1.5798711  29.7286224   1.3465773  83.8571472
  30.5263805   0.9442368  83.5137253  29.5365334   2.0574811  83.2456284
   0.4717293  55.4700241  74.0612411   0.0633444  55.4721603  74.9269485
  -0.2058411  55.8084946  73.4759521  31.0265465  25.1614819  73.4257965
  30.5383492  25.2606106  72.6084442  30.5928612  25.7564526  74.0374832
  50.2897797  14.0824919  77.7881165  51.0710678  14.1656256  78.3348389
  50.3332329  13.1910248  77.4422455   6.9371624  34.1322975  58.3501091
   6.5046482  33.7521629  57.5854797   7.7563105  34.4907188  58.0084038
  77.3236084  15.5747023  10.4394236  76.5571136  16.0858955  10.1798086
  78.0704880  16.1112328  10.1738377  27.3131580  68.4450836  57.6041145
  27.0372581  69.3606491  57.6471367  26.5218563  67.9679718  57.3542442
  50.2559166  35.6932106  36.5986938  49.9917336  35.0841446  35.9091415
  50.7688828  36.3615303  36.1443291  65.4926605  11.5045900  74.3609314
  66.4464111  11.5824203  74.3376465  65.2287750  12.0206203  75.1227112
  70.8130264  69.5211716  -0.1074283  71.5644073  69.7264328   0.4489193
  70.0919418  70.0265427   0.2679013   3.3005116   5.4286771  76.3817596
   2.6076300   4.7949862  76.1958008   4.0469246   5.1261282  75.8644943
   5.4612713  43.0201187  71.4546585   4.9292889  43.3796043  70.7447281
   5.9281344  42.2857742  71.0559082  71.2062302  64.8702087  74.8961792
  71.2963486  64.8872604  73.9433823  71.4612732  65.7491379  75.1766510
  54.8043556  44.6518173  73.8256531  54.1769066  45.2955399  74.1545334
  55.5145302  45.1766281  73.4562378   3.3305318  36.2559967  88.2613373
   3.8617253  36.8974495  88.7331467   3.3922143  36.5222435  87.3439865
  63.9854164  59.5432739  18.1982403  63.9923325  60.3987007  18.6276855
  63.6140289  59.7128983  17.3324852  80.3768234  42.6321068  79.1017456
  79.6097870  42.6835518  78.5314484  80.1835709  43.2367210  79.8182144
  49.9925003  23.7539177  19.0421391  50.0590706  22.9934292  18.4646797
  49.2027054  23.5939770  19.5587387  16.7533932  21.2987480  80.4195023
  16.7701340  21.9131584  79.6857147  15.9507694  20.7933941  80.2904892
  19.0902672  56.7281494  62.7334251  19.6336250  57.4840164  62.9562569
  18.2195435  56.9543800  63.0603638  84.2247696  70.1392746  57.5843964
  83.9744339  70.9794388  57.9686966  84.9015579  70.3606491  56.9447250
  81.1414413  36.3482056  44.5813332  81.1382675  35.4469261  44.2589798
  81.8619003  36.3748398  45.2109833  43.9449539  54.2263794   7.9925404
  44.3091240  54.6587105   7.2200761  43.7990875  53.3221474   7.7144833
  15.7312517  66.2951050  55.9351425  15.5363646  65.3737946  56.1067162
  16.4377270  66.5080490  56.5448761  21.9513474  48.6299057   9.7249575
  21.3751812  49.3797531   9.5766554  22.7442589  49.0085144  10.1046619
   9.8469353  63.0410538  69.2981873  10.0136099  62.5865669  70.1239548
   9.2219772  62.4806023  68.8382339   4.9060760  29.2922401   2.4868045
   4.2455063  28.6071625   2.3840964   5.5131550  28.9436550   3.1396258
  47.3115273  26.4439068  72.5321884  46.6892586  26.7764511  71.8853302
  48.1135750  26.2863617  72.0340576  35.7601242  35.1731453  26.9677639
  35.6154671  34.2526321  26.7487564  35.8032341  35.6169472  26.1207619
  42.6824799  18.2133808   9.7957792  42.5818138  19.1510830   9.9595232
  42.5014381  18.1126404   8.8612700  81.4897766  44.2498589  16.8231239
  82.1229706  44.9260826  16.5822563  80.7174149  44.4450302  16.2924671
  83.2763214   0.7576505  79.0799255  83.0412598   1.6532205  79.3226929
  84.2225952   0.7882215  78.9390106  50.8338165  25.8658695  28.3214054
  50.2921982  26.4995556  27.8509598  51.5274811  26.3921490  28.7190189
  86.5428162  54.0227585   4.6127234  86.3738174  53.1321640   4.3052912
  86.4423447  54.5684853   3.8327775  42.0695000  19.9110279  77.8705750
  41.9934998  20.7838287  78.2561646  41.1724739  19.6744156  77.6347885
  20.4402332  70.2651596  25.7370224  21.3835125  70.2888947  25.8979359
  20.1190853  71.1026230  26.0713291  24.8433819  53.8672295  84.3907928
  24.0392952  53.5413094  83.9865036  25.0606117  54.6543350  83.8912811
  81.3702850  34.1820068   0.3550882  80.8297882  34.6645317   0.9805993
  82.2648239  34.2901688   0.6780941  69.7306747  53.4520988  78.7973557
  70.3528061  53.2191887  79.4865189  70.1386948  54.1911087  78.3461151
  79.1375732  58.8531723  34.2146187  78.3876495  58.4912491  33.7425385
  79.5494919  58.0942841  34.6277084  66.2479095  26.7591724  39.3552513
  66.4891510  26.7844982  40.2812042  66.8089676  27.4163723  38.9435081
  34.7957230  47.2784157  32.7609406  34.5065765  47.9664536  32.1615829
  34.0032616  46.7752113  32.9480972  26.6025219  57.1250305  37.1437340
  26.0380974  56.4129562  36.8427200  26.3256073  57.8836861  36.6299324
  60.1382790  17.7720203  54.1381836  60.4314575  17.2971859  53.3604889
  60.8439789  18.3926010  54.3201103  48.5394478  56.6733513  15.1163168
  48.4864693  56.7547073  16.0685806  49.4613190  56.8319969  14.9132967
  35.7614403  41.4451065  68.2598724  35.2743187  41.9038887  68.9443207
  36.6592560  41.7646179  68.3497238  44.6387215  17.1686192  81.2406845
  44.1840553  17.6421185  81.9373245  44.1671028  17.4061661  80.4423218
  30.6236610  41.8412895  33.4327393  30.2924690  42.2750244  32.6463432
  31.1276569  41.0977898  33.1019363   7.3969245  34.0579109  78.8273315
   8.2431889  34.0569153  79.2746201   6.8115454  34.5251694  79.4233398
  65.4052124  52.8076248  39.9549255  64.4706955  52.6008148  39.9431419
  65.4430466  53.7533722  39.8122292  48.5436363  50.5523300  67.2644577
  48.9452286  49.7530251  66.9237671  48.9276810  51.2554016  66.7405930
   4.0423307  41.1506042  64.1455078   3.8197949  41.8734512  64.7321930
   3.5132017  41.3056107  63.3630562  19.3359528  65.4549561  81.2140503
  19.8515987  66.0986938  80.7283096  18.9893665  65.9410248  81.9622803
  56.5242691  37.1621666  55.0542412  56.7933197  36.5413857  55.7313461
  55.7377396  37.5770073  55.4085159   1.5316314  16.3860588  32.2900734
   1.1666584  16.7667198  31.4912453   0.7691504  16.2084923  32.8408203
  58.2816010  65.5625610   0.5075310  59.0318680  65.0065155   0.2974184
  57.5509491  64.9519958   0.6054657  15.3646955  47.1514893  27.3646564
  15.4255581  48.0258026  26.9798126  15.6727505  47.2636719  28.2639618
  68.4199753  39.4234924  66.1238251  67.6079483  39.1983070  66.5778503
  69.1104050  39.2309952  66.7582397  59.1745148  68.7748184  17.7510166
  58.5662689  69.3849487  17.3338699  58.6723557  67.9659119  17.8496857
   2.1430590  13.0266972  65.3749924   3.0483434  12.8488083  65.1199493
   1.6185528  12.6833067  64.6516647  60.8789368  44.4284172  64.0176010
  61.4084702  44.6942596  64.7693634  60.4396400  45.2315979  63.7380447
  33.0865021  43.6850815   2.8254807  33.0839005  44.6372452   2.7274420
  32.8029327  43.3557167   1.9726385  35.9409790  21.4709492  85.0191269
  35.9889221  21.9430695  85.8504181  35.0924187  21.0286942  85.0434570
  44.4868622  34.7456093  76.2055511  44.4314079  34.5068092  75.2802734
  45.3574142  35.1318283  76.3014755  21.8284702  15.6637697  44.5907173
  22.3740540  15.5943127  43.8072968  22.3929577  15.3635826  45.3030891
  29.1002254   0.8351388  77.3354721  28.8110485   1.4087919  76.6258774
  29.5646076   1.4155637  77.9385376  71.4026566  30.9722366  24.1677017
  71.3467789  31.7249966  23.5790920  71.6395340  31.3481922  25.0155106
   6.1121316  47.4630089  78.2194901   7.0580201  47.3194695  78.1891174
   5.7517562  46.6244240  78.5078201  32.5417595  65.4846573  31.2678852
  31.7110920  65.2975693  30.8305950  32.2976646  66.0053864  32.0330620
  78.0125275  64.5533447  55.3588066  78.9392395  64.5548706  55.5984802
  78.0001373  64.8483810  54.4482956  58.5955009  26.6215115  79.5895615
  59.4314804  26.3692799  79.1974487  58.5459976  27.5685425  79.4595032
  79.2556686   1.8571156  41.0192757  79.2186584   2.1465330  41.9309235
  78.7855453   1.0233371  41.0134125  48.5026703  32.5934715  86.9252777
  48.7227936  31.6694603  87.0435028  48.9505959  32.8449478  86.1175919
  69.1131210  18.0658035  89.5127945  68.6935654  17.4585075  88.9033737
  69.6010742  18.6688957  88.9520721  55.8962173  63.7592964  71.9291687
  55.4515228  64.5391083  72.2613983  56.7825813  63.8189087  72.2855911
  48.0432014  11.6324949  35.3357315  48.2484245  12.3378983  35.9493446
  48.8681412  11.4633417  34.8806610  19.3422966  45.4875374  20.7692642
  19.6937294  46.0256615  21.4785919  18.9799404  44.7184372  21.2090549
  10.5341549  69.5030212  53.2447243  10.9113255  68.9275513  52.5792809
  11.2543001  69.6703949  53.8526764  21.3570213  15.2587299  18.5502186
  21.4414959  14.8359013  17.6956348  22.2217865  15.6328630  18.7188568
   1.6413276  10.3005686  66.2801056   0.7071139  10.1669626  66.1200256
   1.7658814  11.2459288  66.1963654   5.1836057  10.9698925  19.0261154
   4.2695746  10.6862478  19.0080948   5.3298969  11.2493210  19.9298592
  41.0633316  65.8291092  51.2268906  40.5868950  65.7023849  50.4064140
  40.5389748  66.4659119  51.7124405  51.6934814  70.9058838  22.7690697
  51.8119583  70.9623413  21.8209076  50.9270859  71.4508743  22.9475498
   2.3233590  64.4527893  53.7165298   2.1661713  63.6749229  53.1813278
   1.5015559  64.9418564  53.6754417  74.9373779  69.1080399  83.6578903
  74.6786804  69.8591766  84.1918411  74.7360077  69.3717194  82.7600327
  61.5513954  47.8864288  74.7979126  62.3564911  47.8402786  74.2822266
  61.2290535  48.7770348  74.6595383  49.2652855  65.9558105  28.6547489
  50.1613617  66.2631454  28.5175457  48.7235069  66.7356644  28.5341778
  22.1374645  60.5130501  31.0279236  21.3582611  60.1766891  31.4705696
  22.4359722  61.2335243  31.5829430  65.0330353  23.6234589  18.4269104
  65.2990952  24.4777527  18.0868740  65.8375320  23.2462330  18.7828884
  68.3383408  31.6405201  63.0455627  67.5364151  31.2943115  62.6540527
  68.9693680  30.9245682  62.9717216  59.5291901  49.6535492  34.4274750
  59.9098053  49.7956924  33.5607834  60.1979294  49.9659576  35.0369186
  14.9612293  63.8779449   1.5557986  14.1932001  63.3210869   1.6833634
  15.1028652  63.8774414   0.6091357  54.9513016  57.8228951  86.1649323
  55.3731804  58.4984016  86.6959152  54.6989746  58.2742538  85.3594284
  52.4840469  25.8608170   0.3003530  52.9975700  25.9431820  -0.5032290
  52.5285873  24.9299164   0.5186979  84.3599319  27.5263729  14.4043970
  84.7214737  26.6400776  14.4050074  83.6148529  27.4806957  13.8052263
  49.7919922   2.8582425  57.6227264  50.4173088   2.1353381  57.6739235
  50.2180901   3.5040457  57.0591583  72.5500717  52.6377716  55.3776283
  72.2742691  53.4970665  55.0585976  72.2298584  52.6028481  56.2790031
  27.1025620  65.8214417  34.9470901  27.9172497  66.1272583  35.3458290
  26.4253826  66.0418167  35.5866966  60.7343903   7.9976811  43.1157417
  61.0749168   8.8438406  43.4060631  61.4648285   7.3911042  43.2372131
   7.9665132  56.2434845  12.4844952   8.7613735  56.0071793  12.0063858
   7.5510764  56.9138336  11.9420242  53.0991974   4.5185223  15.0718222
  53.1696815   4.5840588  14.1194735  52.1742821   4.3304448  15.2311602
  58.5938034  34.2374115  69.3556061  58.3733597  33.4709015  68.8263626
  58.1125412  34.1103935  70.1732178  31.9482765  25.3939266  69.8313828
  31.1958065  25.4865780  70.4157104  32.1652679  26.2906265  69.5762863
  56.9175835  71.0973740  12.6008558  56.0380020  71.1483231  12.9749813
  57.2747307  70.2764130  12.9395390  80.8053741  36.2421608  81.1669693
  80.7786942  35.3073463  80.9629059  79.8861618  36.5077782  81.1938324
  75.1046677   6.9736829  33.8194733  75.1422501   7.5830445  34.5566978
  75.7497864   6.2995033  34.0328674  80.2959137  55.1803589  48.4324341
  80.3378296  54.4599991  49.0613708  79.6960144  54.8710976  47.7536774
  42.4954796  56.2113113  47.9444580  42.7451553  55.5768242  47.2726555
  41.5489120  56.3093376  47.8413467  64.2354355  35.8027725  74.5190430
  63.3714828  35.8578339  74.9274292  64.6663971  35.0751610  74.9674759
  42.1425896  70.9448929  79.7819519  42.8039055  71.1213303  79.1128006
  42.1331215  69.9912415  79.8637695  76.5466003  14.4334517  53.2959976
  76.1011047  13.9673796  54.0034904  76.1015472  14.1425238  52.5000572
  53.8990669  16.8017750  19.6574497  53.9617805  17.7050686  19.9678650
  53.6524849  16.2984390  20.4333916  61.5483780  20.1258945  54.6197395
  62.1838303  20.1074142  55.3353424  60.7887573  20.5790520  54.9856033
  85.7969513   2.8630762  22.7559757  85.9673462   3.5750406  22.1392879
  85.5130539   2.1327729  22.2061634  73.1625366  -0.1887296  85.1186905
  73.6353073   0.5621469  85.4777298  72.7996216   0.1296571  84.2921524
  42.3782310  55.1932144  65.6684265  41.8826675  54.5168152  65.2067642
  42.7146683  55.7596283  64.9740067  70.4765320  70.4817047  13.3432970
  70.2730103  70.6136932  12.4173431  71.4316101  70.5275803  13.3875074
  22.4160786  65.2955475  21.1717987  21.8665257  65.3941498  21.9492931
  21.8266068  65.4701385  20.4381275  82.2434769  23.5914707   2.2248387
  82.3300095  24.3871517   2.7498488  81.5681534  23.8022289   1.5800509
  60.4502335  22.9745598  48.8860550  59.7082710  22.3739853  48.8151016
  61.0082207  22.7550945  48.1399193  45.4224129  29.6481838  31.0636749
  45.4287376  29.0025558  31.7703247  46.1657906  30.2200203  31.2550411
   4.5743632  56.0821838  41.7626915   4.4472790  56.0453796  40.8146782
   5.4250107  56.5067291  41.8740082  63.8684196  29.2245197   2.0399561
  64.2901688  29.4245625   2.8756263  63.8464127  30.0616550   1.5763257
  37.3049469  31.5173759  82.0793076  36.6803665  30.8403034  82.3395081
  38.0767021  31.3522034  82.6209183   3.7741930  68.0438232   0.5654339
   3.3864789  67.8651352   1.4221601   3.7940257  67.1920624   0.1291550
  48.2248039  42.8339882  86.0145264  48.4231911  43.2828064  85.1926727
  47.7735901  42.0332336  85.7472610  21.6964569   2.8560834   7.0919847
  21.1569996   3.2204788   7.7937207  21.0904465   2.3252745   6.5750475
  25.5025311  57.6090660  52.2615852  25.6266441  57.3327789  53.1696014
  26.3734779  57.5431519  51.8699989  66.7367935  66.0325012  21.4352303
  66.9486313  66.7312622  22.0541706  66.3607178  66.4864273  20.6810741
  78.1005478  63.2716522  12.1269989  78.3466110  62.3501854  12.0458345
  77.9411850  63.3954811  13.0626802  42.7113228   9.9313726  69.1930161
  42.0356865  10.1270847  69.8422012  42.2385063   9.5116653  68.4743195
  47.4370079  37.1344910  46.7522430  46.4816742  37.0970306  46.7988205
  47.7218628  36.2437134  46.9561996  56.2538986  47.6104622  38.2579041
  55.2968826  47.6038399  38.2754364  56.5100212  47.6560249  39.1790733
  70.5769958  55.5674629  61.4416008  70.5459137  54.7596207  61.9541054
  69.6607361  55.8292961  61.3514137   8.9338398  48.6019516  39.0830956
   8.6024370  48.3610649  39.9481812   8.9386797  47.7807808  38.5912743
   6.5143900  14.6939592  14.1092367   5.6875997  14.9470921  14.5198145
   6.9765458  15.5208387  13.9717102  68.1072464  39.8890686  11.5308990
  68.6019821  40.2270927  10.7844381  68.7144470  39.2943268  11.9711494
  69.3965759  36.0876923  69.2480621  68.7149277  36.6527939  69.6117249
  68.9423370  35.5532417  68.5967102  41.2631836  56.9957237  33.3879700
  41.0986061  57.3352051  34.2676849  42.2035027  57.1170998  33.2564392
   2.7277842  20.7623405  60.7574883   2.3856857  20.8928547  61.6418915
   3.0230427  21.6309147  60.4842949  40.5946198   4.3867197  11.4080801
  40.0197029   4.7815156  12.0637016  40.3182487   3.4711919  11.3673487
  53.0311432  65.6030350  13.8055286  52.9833260  66.2474213  14.5117216
  53.7185974  64.9965363  14.0808487  66.5243149  69.5669479  66.2700806
  66.1461563  68.7445374  65.9588547  66.1803360  69.6680145  67.1576004
  60.5299873  39.1917496  66.3888855  60.9882278  39.8002243  65.8092270
  60.8915901  38.3331871  66.1690140  56.5182419  51.2750015   0.6597466
  56.1024551  51.5601463  -0.1539138  57.4566956  51.3616905   0.4923335
  72.8861084  36.1889343  57.7373848  72.0165558  36.2630882  57.3441772
  73.3691101  35.6138954  57.1438675  53.3383522  69.4910431  72.3436508
  54.0846863  70.0613632  72.1593857  53.4712944  68.7317352  71.7761917
  17.5111198  42.3396912   6.7993708  17.3241482  43.2784119   6.8081188
  17.5418034  42.1102333   5.8705873  56.7595024  37.0897179  72.9906158
  57.0724182  37.7131157  72.3351059  55.8496170  36.9212265  72.7457733
  51.1733742  25.6183491  48.9760704  50.7861824  26.4855289  48.8564339
  52.1029053  25.7898350  49.1270561  71.8801041  58.4307976  14.3623333
  72.2138901  59.0858688  14.9752741  70.9293671  58.4670410  14.4673004
  55.2025261  25.1382561  66.7188187  55.7131271  25.8179665  66.2789230
  55.3334312  25.3065529  67.6519699  82.6944809  54.2725220   6.1467819
  82.2738037  55.0285683   5.7373195  82.8451614  53.6622009   5.4249558
  33.3177185  27.4928532  13.3421278  34.0160179  27.2277927  13.9407501
  33.1411781  28.4057903  13.5693150  83.0939636  71.5794220  62.6744194
  83.1516190  72.2684479  62.0124931  83.5750504  70.8432846  62.2964058
  56.4676704  14.2274399  82.9315109  55.8247452  14.4676142  82.2642822
  56.1324234  14.6177835  83.7386551  40.3490410  11.7063274  69.5871048
  40.8428307  12.0119114  68.8261642  40.4394379  12.4100275  70.2296524
  57.3246460  56.7361794  60.1170692  57.1578484  55.8575897  59.7757607
  58.2208519  56.6972389  60.4510345  50.9399529  18.6062336  13.3282595
  50.0304642  18.8570671  13.1665840  50.9518929  17.6569118  13.2062874
  67.0335464  37.8418961  19.3227234  66.7735443  38.7288170  19.5717125
  66.4385910  37.6090965  18.6099358  78.3928680  53.5944748  69.3022842
  79.1583633  53.1883736  69.7088852  78.1807327  54.3319740  69.8744125
   6.9410653  30.8386745  12.7369757   7.0867729  30.0276966  13.2241259
   7.1845446  30.6241760  11.8364534  10.6591101  13.0942850  78.8863754
   9.8311930  13.3495369  79.2933502  11.3260260  13.3325033  79.5303497
  83.3199921  35.4357986   1.7024950  83.7850342  36.2708244   1.6505357
  83.7596512  34.9602432   2.4073184  62.5980568  39.5716248  61.4895096
  63.3306160  40.0250549  61.0723915  62.1008415  40.2663879  61.9211502
  28.3097935  70.2542191  21.2138462  27.3988590  69.9604340  21.2029171
  28.5629349  70.2840118  20.2912064  76.7274628  13.1932478  35.9214211
  76.7434158  13.9768553  36.4709091  75.8815002  13.2308426  35.4751434
   7.0400214   6.4096627  76.6003494   6.4927435   6.1410570  77.3383026
   7.8590484   5.9295049  76.7223129  48.6305733  50.2642784  29.3465633
  48.1622734  50.5637550  30.1258202  47.9407310  49.9789925  28.7474308
  83.9970245  13.3904848  21.5309448  84.5572968  14.1444578  21.3469563
  84.3681335  13.0042315  22.3242416  59.1501923  58.9107590  68.6945267
  58.3308296  59.3038254  68.3939056  59.8292160  59.3538742  68.1857910
  62.5863838  24.8072872  19.5703564  61.7521629  24.5336571  19.1890030
  63.1576576  24.0461006  19.4680195  35.9927521  70.6079712  58.3442650
  35.9305687  71.3089066  57.6953850  35.6816559  71.0059662  59.1573181
  66.0083389  20.9200897  64.5750656  66.1806717  21.4898701  65.3246536
  66.8668060  20.5685520  64.3390732  23.8062210  68.2532806  78.5287704
  24.5599117  68.5047989  79.0625534  23.4809818  69.0787506  78.1695404
  85.1877975   4.5877657  47.1691895  85.6575241   3.8877366  47.6225624
  84.6912918   4.1389246  46.4848976  67.1678238  51.9947433  14.5223656
  66.2503357  52.0866547  14.2654552  67.3951569  52.8417664  14.9059076
  71.0759583   1.8804117  81.0685349  70.4155960   1.4117370  80.5581436
  70.8817596   1.6529925  81.9778214  62.4600754  46.4343872  11.7910404
  63.3239632  46.1930313  11.4568624  61.9045448  45.6829758  11.5836744
  84.3201370   8.4573803  17.2049503  83.7717972   8.7996149  16.4989529
  84.1870422   9.0686960  17.9293900  86.0223999  21.9554920  65.4899979
  85.7448654  22.4842644  64.7419281  85.8850098  22.5229321  66.2485275
  47.1540031  63.8053741  70.5064926  47.9489479  64.2334442  70.8243790
  46.4475670  64.2047043  71.0141449  15.1696482  39.9242477  44.1358414
  15.0193548  39.0978241  43.6768608  14.7043352  39.8249931  44.9664230
  23.8545704  56.1982536  63.5958824  24.5611935  56.8180466  63.7768974
  24.0078526  55.9170456  62.6938515  13.9990807  52.6886177  25.4135265
  14.9050465  52.9920845  25.4715290  13.4778013  53.4309273  25.7192612
  45.6862106  30.2044735  11.8163691  46.2396393  29.5666161  12.2670202
  45.0119438  30.4313374  12.4567842   8.1755400  50.0238991  52.5437317
   7.5869770  50.1435432  51.7984047   8.0463648  50.8068504  53.0790176
  77.0162811  21.2807693  53.6809464  77.8224335  20.7656536  53.6492538
  76.3241806  20.6341896  53.8193970  82.2746658   9.6598473  76.1162491
  82.3469925   8.7326736  75.8896408  82.4765625  10.1217375  75.3025360
  61.4629211  12.9813414  27.5736618  61.5043030  13.8709164  27.2226963
  61.9552155  13.0241518  28.3934460  68.7384186  56.3586235   1.3341322
  69.1520538  56.8125114   0.5998843  67.8474197  56.1794930   1.0336952
  39.6274147   3.0989044  18.3688526  39.4480705   2.1862435  18.5949459
  38.7765846   3.5329020  18.4318428  37.9720650  55.9777145  85.5356522
  37.1979637  55.4159164  85.4984512  38.0210152  56.3758888  84.6665802
  77.6985703  46.3579254  73.0905457  76.9189453  46.2629128  73.6377029
  78.4100571  46.0033379  73.6237411  44.8968201  59.0831642  22.5172234
  45.5968056  59.6913757  22.7545662  44.5868492  59.3947868  21.6669025
  21.8530140  60.3265495  61.0724831  21.7305565  61.0331650  60.4385033
  21.1553230  59.7022896  60.8730850  76.2419739  14.6860800  40.1393547
  75.8164444  13.8288450  40.1219711  75.5945053  15.2825499  39.7635460
  55.7882233  34.1465302  16.7877140  55.8170204  33.3285561  17.2840157
  55.8974915  34.8311195  17.4477367  30.0896397   7.4279256   3.8013203
  29.9830093   6.7477260   4.4662943  30.4836693   8.1627674   4.2714052
  65.7857971   2.6851888  50.0049400  65.5218048   1.9737483  49.4215050
  65.2293243   3.4216661  49.7516174  43.4862175  34.9669456  62.3424606
  44.1683350  35.3700943  62.8795052  43.5759506  34.0281563  62.5063248
  38.3626328  54.0733299  25.2843914  38.1365051  53.1892014  24.9955711
  39.0228577  53.9415054  25.9648037  60.5572739  57.9020920  46.2918701
  59.6016045  57.9456291  46.3240051  60.7957764  58.4326172  45.5316772
  46.6571350  41.6672935  82.6689529  46.2357368  41.8535843  83.5079651
  46.4596672  42.4311295  82.1269226  58.9675102   7.9946184  59.1280060
  59.6005821   7.4253292  58.6905632  58.9602776   7.6916189  60.0359573
  28.2692528  19.7925453  78.2044754  27.5295486  19.1930828  78.1059189
  29.0332031  19.2203979  78.2769928  44.3115692  62.4635963  78.1383743
  43.7911873  62.7843857  77.4018097  43.8443489  62.7729149  78.9144287
   3.0259478  53.1269531  71.3570099   2.9415367  52.9637222  72.2964096
   3.7455072  52.5601654  71.0791321  57.0094376  31.2305107  81.3460922
  56.5417366  31.2032986  82.1808090  57.0158615  32.1568909  81.1052399
   9.0902729  61.6428299  28.2387486   9.4014959  61.9874191  29.0757866
   8.1558247  61.4874840  28.3762474  80.7356567  28.1408234   9.7654896
  79.7849884  28.0753956   9.6750488  81.0681915  27.3223286   9.3970881
  49.4070320   4.6082244  32.4287071  48.4519157   4.5795383  32.4849777
  49.6816483   5.0418253  33.2366714  68.6474609  51.7660866  36.7239838
  68.1820831  52.5299492  36.3831558  68.3399506  51.6812859  37.6264687
  48.4763336  56.5835571  35.2316895  48.9574471  56.0756378  35.8849716
  48.1753044  57.3589783  35.7053337  56.7144814  20.8222237  79.2298508
  57.0549088  21.5356598  78.6900864  55.8343887  21.1070156  79.4759445
  75.6835709   2.4635673  40.6825142  75.6941071   3.2767930  41.1872749
  76.3568344   2.5881131  40.0136032  85.2738953  16.4056034   6.5101013
  85.4506912  15.4944334   6.7440758  85.3473892  16.4264660   5.5559554
  19.0964470  48.5754890  74.8838959  18.5445137  49.2487679  75.2817535
  19.0777912  48.7730293  73.9474869  77.2037964  27.1495457  75.4426270
  77.6047745  27.2937889  76.2997437  76.7421494  26.3157425  75.5314331
  17.5254173   1.9399946  60.9934425  18.3871307   2.2770786  60.7483788
  17.6497154   1.5807780  61.8719330  13.3204241   1.7732539  80.3178253
  13.1925020   2.2648580  79.5065308  14.2652454   1.6264522  80.3624802
  53.3344193  34.8522034  27.3627911  52.9261665  35.7100220  27.2456913
  54.1329689  34.8931618  26.8366070  70.1997604  63.5894775  82.3480682
  70.4768524  63.7583618  83.2485886  71.0021820  63.3300743  81.8952332
  39.0120354  45.6062050   4.9354601  39.6619644  44.9574661   5.2055802
  39.1709099  46.3569832   5.5075841  43.6652832  20.1169186  18.5508499
  43.7391891  20.1300182  19.5051041  44.5482063  19.9091282  18.2450714
  80.8215027  69.4785767  40.4795914  79.8785934  69.4560928  40.3163528
  81.0776138  68.5577316  40.5314713  82.8453903  27.3584328  53.9905052
  83.1535034  26.4752407  53.7873497  81.9685745  27.2289772  54.3519897
  72.3655319  14.4141798  27.6230106  72.6162186  15.3352985  27.5528049
  71.6485901  14.3126898  26.9969692  38.4897003  55.5131950  11.5168123
  39.2843819  55.5138054  10.9832306  37.8826370  54.9457626  11.0417080
  19.3062191  54.9388084  17.5980129  19.4848995  55.0517120  18.5315857
  20.1127510  54.5647430  17.2433128   2.0763934   7.6935868  42.2429085
   1.5196552   8.3521948  41.8275642   2.1455538   6.9941592  41.5931015
  37.4160843  41.0129814  44.6413460  36.9995728  41.8502693  44.8455544
  38.1362572  40.9445419  45.2681618  67.5600510  65.7275467  62.2253647
  67.8339005  66.3986206  62.8505821  66.9741592  65.1592102  62.7253227
  53.7436829  38.1743889  56.0107307  52.8331223  37.8806190  56.0391083
  53.8563576  38.5200195  55.1252518  84.3708572  69.2939224  79.2727890
  83.4860535  69.0558548  78.9958725  84.9186783  68.5678787  78.9744949
  18.2670441  45.5588951  14.9586096  17.7385464  45.7107849  15.7420969
  18.1391582  44.6314011  14.7595358   4.2262673  64.5352936   8.4812937
   3.2727144  64.6117401   8.5148258   4.5092015  65.2912064   7.9667306
  43.6190758  33.5602455  15.1467218  43.2696152  34.3935699  15.4624472
  42.9715385  33.2541695  14.5117102  81.2287827  31.2292747  17.8595123
  80.9473801  30.3690281  17.5480309  80.4153824  31.7212238  17.9717388
  86.0703506  36.9996071  44.7865791  86.3438263  36.1055069  44.5815735
  86.2660522  37.4978294  43.9930382  50.4459648  18.2732410  64.1793900
  51.4011803  18.3340588  64.1695404  50.1475372  19.1541939  63.9533463
  34.3780670  67.7630539  47.4319611  34.4149590  68.6594772  47.7655792
  33.5105057  67.6911240  47.0339699  45.0737190  47.1225929  32.7119751
  44.3299446  46.8478851  32.1757202  45.7634850  47.3240318  32.0796165
  48.1154709  11.1289968  11.2890558  47.2336845  11.0408478  11.6508780
  48.5201988  10.2736664  11.4334002  17.2975979  52.2811623  56.1679611
  17.4458866  52.9297447  55.4797897  16.9130421  51.5322685  55.7124329
  80.4939880  12.8003311  77.8482971  80.0105057  11.9809799  77.9538651
  80.5560303  12.9214516  76.9008179  45.4754372   7.8837390  46.8014793
  44.5642433   7.6979442  46.5746803  45.9735146   7.6189499  46.0281525
  77.6467514   0.7775251  19.1010323  77.3124847   1.3046533  18.3753376
  77.5298157   1.3312341  19.8730183  54.9105034  21.7220802  20.6389027
  54.3679047  21.4693527  21.3858624  55.8038826  21.7268105  20.9825363
  50.2817955   3.7311809  51.5359955  49.9044609   3.5171785  50.6827354
  49.7324295   3.2633748  52.1649551  59.7045937  69.2274017  21.3781662
  60.5729218  69.4056396  21.7393742  59.1117020  69.3176727  22.1241970
  47.3482704  63.7476158  74.2406235  47.1867332  63.5459518  75.1622925
  46.6794968  64.3946228  74.0162354  74.5888596  20.5522785   4.6583223
  74.4114609  20.0186977   5.4329524  74.7680359  19.9165668   3.9655044
  21.2658653   4.9050941  61.9711800  20.4325047   4.7034283  61.5456581
  21.7121067   4.0607734  62.0361633  40.5896301  33.1289902  65.6913223
  40.8494949  33.9604340  66.0880661  40.4436951  32.5440788  66.4348373
  24.1580982  42.0087662  73.8626480  25.1074047  41.8939247  73.9057999
  23.8167515  41.4439659  74.5559845   3.7159278  49.5568733   7.1183372
   4.3292861  48.8975029   6.7939062   4.2736840  50.2654572   7.4393473
  33.4872627  65.8799744   3.3889360  32.7130356  65.5119781   3.8148279
  33.8136253  66.5329208   4.0081077  67.6711349  22.7285957  34.6183968
  67.4903946  21.9447746  35.1372299  67.7539062  23.4298000  35.2646904
   4.3185520  59.8931389  56.1055641   5.0141377  59.3005142  55.8206291
   4.5718403  60.7464981  55.7536316  51.9109726  15.3588095  28.6291485
  51.9162827  15.3326817  29.5859756  51.3584328  16.1099873  28.4131222
  22.3427639  57.0103760  27.2317543  22.4635696  57.6365814  27.9455490
  21.4570961  56.6702652  27.3588390  43.1397552  10.7680616  57.7527695
  43.6243134  10.3814754  58.4821434  42.2290497  10.7754211  58.0473747
  78.4536057  69.7077637  88.2710571  77.7122498  69.1577759  88.0178070
  78.5301895  69.5856476  89.2173386  81.4609985  19.7412395  86.7957764
  81.2270355  20.6368084  87.0395966  82.3235703  19.6039715  87.1873932
  83.6281509   2.3540418  61.5951538  83.2027664   3.1171384  61.2040443
  84.4565506   2.6905241  61.9368553  23.7855873  29.0542679   5.5331798
  24.3154087  28.5375271   4.9261370  24.2326012  29.8992882   5.5816808
  36.6401825  57.0894890  30.7472763  36.2701340  57.0913658  29.8645020
  37.2954369  56.3919182  30.7308178  35.1327553  64.9513550  24.8710842
  35.8433189  64.4525146  25.2741756  35.2568130  64.8272934  23.9301014
  63.7709503  60.7293587   1.4654522  63.9566193  60.4332962   2.3565786
  64.1999664  61.5826988   1.4023033  84.1149216  52.5327377  16.7005672
  84.9265213  52.7304993  16.2331982  83.9839172  51.5940819  16.5664291
   6.1336203   1.7635684  66.3818359   6.1370988   0.9360726  66.8629532
   5.3082719   2.1807446  66.6288071  35.7306137  49.8959846  87.5051117
  36.4208450  49.3206367  87.1752853  34.9166336  49.4841881  87.2151184
  76.3308258  24.7934952  30.2324848  75.9550323  25.6663246  30.3472919
  77.1680374  24.9488010  29.7952232  37.5160675  57.8361588   6.9059920
  38.2747345  58.4198036   6.9020000  36.7918396  58.3826675   6.6009474
  47.7973709  34.4036446  49.1251793  47.6382408  34.0133629  48.2657661
  48.6736107  34.7829170  49.0574570  18.3275928  68.9114075  13.9889812
  18.1297359  68.1967621  13.3836985  18.2193336  69.7054825  13.4655809
  35.2185516  53.4248924  73.6629105  35.1749496  52.4706879  73.7247849
  36.1528053  53.6259918  73.7173157   4.8871822   3.9755161  15.2126951
   5.4152374   3.2346418  15.5101767   5.5204673   4.6788626  15.0695648
  52.9895477  49.3230858   6.7721062  53.6649780  49.0130844   7.3753657
  52.7887688  48.5628777   6.2262111  68.1282120  45.7673607  32.1450844
  68.0292892  46.2826958  32.9456329  69.0314941  45.4518890  32.1734009
  69.0589066   1.9352832  22.3500614  69.2197800   2.3871477  21.5217075
  69.7176819   1.2413369  22.3762245  85.0319977  47.0945930  68.5638275
  84.8455811  46.6399612  67.7423706  84.1847000  47.4412956  68.8433151
  15.5021009   7.9446630  25.3773937  14.9043894   7.5155010  25.9895973
  15.4221449   7.4376683  24.5694370  17.4325275  32.0962715   8.1170387
  17.5768051  31.1746979   8.3317976  18.2536392  32.5283852   8.3521662
  24.1413574  54.2937241  19.1095848  23.7458725  55.0818863  19.4819107
  23.9108925  53.5969200  19.7240639  64.8216705  70.5055466  25.9028645
  64.9120178  69.9525528  26.6789207  65.6956100  70.8713837  25.7663879
  80.0605011  22.0693550  50.8340569  80.1114502  21.4883175  50.0750885
  79.6851501  22.8800240  50.4903145   6.3425102  22.8413105  60.7058868
   5.4168487  23.0789471  60.6519356   6.7263675  23.1890373  59.9009209
  50.7746773  10.9178352  34.2680588  51.7272568  11.0101576  34.2853088
  50.5739861  10.3643017  35.0227470  65.3138657  46.2192802  84.1013031
  65.4309387  45.3357773  84.4505081  64.7080154  46.1088562  83.3685150
  52.6035271  10.3906021  20.8444862  53.4915161  10.0693722  20.6879063
  52.6867867  11.3439741  20.8249798  31.0291538  30.7731819  87.9074936
  30.6092587  30.4053249  88.6850510  31.2838669  31.6580849  88.1688385
  85.7709579  53.1046333  40.4613647  85.0994263  52.9701385  41.1300926
  85.8582764  54.0556984  40.3974991  67.2008438  46.6269150  10.8440380
  66.9481812  45.7143936  10.7036839  67.1715622  46.7401390  11.7940664
  10.4297638   3.6790175  72.9636612  11.3550568   3.9163864  73.0246582
  10.1158390   4.1372271  72.1840973  28.0917072  13.7417002   7.1195874
  27.6742573  13.5723267   6.2750278  27.4534740  14.2682076   7.6009197
  24.7540970  63.5549774  41.1212692  24.7824593  62.9972878  41.8987045
  23.8268280  63.5918503  40.8866539  66.3595886  20.5005150  81.5420914
  66.6523056  20.9043789  82.3590622  66.9633255  20.8359299  80.8793411
  84.2182388  62.4376564  66.2835922  84.7926483  63.1656876  66.0464172
  83.6997833  62.7704620  67.0161743  79.8825455  32.5249023  49.0807915
  80.6350021  33.0102005  48.7423630  80.2586746  31.9052410  49.7059135
  41.0545845  49.8843651  20.9750080  40.1727486  50.1802368  20.7490482
  41.0269356  49.7506409  21.9224186  42.2458839  63.5173187  55.2708626
  41.7046738  64.1869049  55.6891670  41.6865768  63.1506805  54.5860367
  29.8802261  17.4754715   6.8875179  30.5762825  16.8774643   7.1597767
  29.7802296  18.0780010   7.6245337  83.9874191  69.3725052   2.8571093
  84.1339340  68.8358154   2.0781770  83.3241577  68.8951569   3.3555672
  72.8467026  47.9526825  13.5869999  72.5284653  48.5422554  12.9033604
  73.7989731  48.0456009  13.5592012  51.4484940   7.9080992  70.5623550
  51.4073639   8.6769705  69.9936905  50.5336037   7.7053742  70.7575836
  45.6488380  13.5865421  81.7420731  45.1434708  13.6928682  80.9361420
  46.1110382  12.7562408  81.6271744  78.7105484  12.7942820  22.9894161
  79.4549103  12.6794930  22.3986683  78.4498596  11.9031630  23.2221775
  14.6475744  21.4988766  84.9044724  14.3999996  21.9186382  84.0806198
  13.9065475  21.6613045  85.4881897  61.9984589  33.6009140  54.5389214
  61.9356308  33.7651787  55.4798279  62.4225006  32.7453041  54.4729500
  63.0865479  64.2467422  41.0820122  63.4672661  63.3703613  41.1388855
  62.1459999  64.0938644  40.9913101  78.3863831  68.6340408  50.3200760
  79.1012115  67.9987030  50.2799835  78.0488510  68.6715927  49.4251518
  52.2332153  45.9359856  40.6781769  52.5772476  46.2437553  41.5167198
  51.6741714  45.1933708  40.9067001  75.0979691  70.1732483  63.2383194
  74.2146072  70.5227661  63.3555603  75.5423965  70.3634262  64.0644836
  79.5062561  11.5767984   0.1576374  79.9162140  11.4827290   1.0174729
  79.3715973  10.6781063  -0.1431145  47.7228394  35.3829765  76.1149750
  48.3358421  36.1173019  76.0799789  47.8469200  34.9275055  75.2822800
  81.1684875  12.2274666  61.0216217  80.9079285  12.9834967  61.5476952
  80.3805695  11.6860762  60.9736061  42.9834213   7.7589974  45.3681335
  43.2404404   7.3720455  44.5312119  42.0742569   8.0287352  45.2381516
  36.6730270   6.7195759   0.9511532  37.5358772   6.7238355   0.5367841
  36.1501427   6.1284103   0.4095378  33.2663994  45.0288048   6.1023111
  33.8743286  45.5797119   5.6092043  33.3213577  44.1724281   5.6782427
  65.9190140  66.8230591  70.2067947  66.6456604  66.3349380  69.8195572
  65.2360916  66.8080521  69.5362473  82.1695328  10.9024696  47.5423584
  83.0300522  10.4862566  47.5924339  81.8464203  10.6802082  46.6691856
  47.8557129  60.7574883  29.4891148  48.8110008  60.7126617  29.4485035
  47.5665703  59.8601761  29.3234081  21.7811623  11.1566324  16.6455593
  21.9688358  12.0057983  17.0454693  20.9710522  10.8678169  17.0657253
  15.9267969  28.6307888  -0.1860056  15.0959864  28.7846565   0.2637839
  16.5935860  28.7846470   0.4832872  72.8820267  43.1113052  21.2013187
  73.5046005  42.9337578  20.4962559  72.6861191  42.2501106  21.5703583
  59.0925674  65.1774750  27.5251541  58.9146271  65.2874374  28.4592190
  59.1219025  66.0698929  27.1802387  43.6457939  15.8328142  10.4002180
  42.7769051  15.4353256  10.3430777  43.4828339  16.7742214  10.3416767
  25.5963154  34.0498085   4.6374202  26.4571819  34.0564079   4.2189732
  25.5584202  34.8753815   5.1203589  42.1819954  38.3863640  48.6127586
  41.9065285  37.6801643  49.1972504  41.3700066  38.8390770  48.3848152
  43.9089470  61.1791000   1.3544371  44.2871857  60.8639832   0.5335411
  43.9369736  60.4206924   1.9377601  12.3803854  69.7460403  24.6933212
  11.9654074  69.3015823  25.4325638  12.0065727  70.6271744  24.7031212
  78.1486282  12.9424725  10.5612621  79.0781860  12.7410173  10.6688004
  78.1272812  13.8802557  10.3706331   0.6493661  68.9386444  51.7023087
  -0.0652429  68.6428680  51.1383209   0.2825548  68.9147491  52.5861130
  48.2501984  67.9769745  14.9751472  49.0912209  68.1315536  14.5450153
  47.6222038  67.9092941  14.2559290  44.9377861  58.8073120  45.0791817
  45.4015083  59.3598137  44.4499474  45.5165977  58.7739792  45.8408241
  15.7048788  47.6062698  37.0375099  15.6602507  47.3560448  37.9603462
  15.9139433  46.7926865  36.5785904  77.5055771  51.7763138  26.8927212
  77.4536514  51.3403282  26.0421600  77.9564743  51.1480217  27.4567871
  33.2539177  27.8981972  20.5753746  33.2724762  28.7966366  20.2456856
  32.3419495  27.6251640  20.4753780  28.9403896  43.0994225  31.6738777
  28.2239494  43.7332954  31.7077370  29.6900234  43.6020470  31.3550568
  64.8684158  36.3034134  13.5979939  65.2384644  35.8205795  12.8589630
  64.5755386  37.1325493  13.2198582  33.3489304  41.6312790   7.8251400
  32.5676956  41.1186180   8.0327044  34.0043030  40.9792747   7.5769315
  78.5576782   1.4240999  54.5525093  78.4020004   1.7675291  53.6727066
  78.3608932   0.4899094  54.4832497  47.8094788  26.4614048  62.7777596
  47.6876755  26.7201366  63.6912460  46.9450188  26.5689468  62.3810577
  77.9100876  12.2365932   3.0200372  76.9725647  12.0756721   2.9133081
  77.9798889  13.1855545   3.1241083  45.6392097  61.9372711  72.1933594
  46.1186752  62.5758209  72.7211761  46.1929665  61.7973595  71.4252396
  41.5287666  46.3979797  25.9099789  41.2144852  47.2064934  26.3146591
  41.3616104  46.5173836  24.9750824  52.9110336  61.6384544  67.3193207
  53.3360252  60.9680443  66.7843704  52.1769753  61.9414864  66.7849350
  41.7000351  22.2342224  86.8300247  40.9321556  22.7646618  86.6173477
  41.4383926  21.3382301  86.6179581  52.0422325  46.2978973  49.0922318
  51.1457138  46.6288185  49.0376472  51.9557495  45.3516846  48.9763451
  52.6387253  60.2084007  27.4146366  52.3155899  59.5077324  26.8481731
  53.4319496  59.8487549  27.8117199  75.9956589  20.2622509  21.0891151
  75.7434769  20.9106598  20.4316959  75.1770172  20.0398483  21.5325146
  78.3892822  24.4114971   6.5860252  77.5433807  24.0175591   6.7993212
  78.8792419  24.3863964   7.4079370  24.9070244  66.0567093  76.5836334
  24.6328907  66.5649948  77.3470001  25.4202976  65.3355026  76.9478455
  69.1866226  38.4752350  59.9086800  69.4560852  37.9399834  60.6550903
  69.9185486  38.4158096  59.2946815  14.7516422  45.8492317  49.9338417
  14.8450508  46.6619606  49.4368668  15.5654039  45.7787857  50.4328995
  71.4879074  49.5484772  78.7913513  71.4560013  49.5034370  79.7469559
  72.2356262  49.0014877  78.5506210  76.5223846   5.4589391  70.3391342
  75.6272430   5.5188913  70.0054245  76.6185913   6.2244940  70.9056168
   8.7682838  33.7201271  25.8563271   9.4058990  33.1130638  25.4806232
   8.2499475  34.0164032  25.1081448  55.8510857  23.2942677  50.6830101
  55.8990288  24.0599194  51.2554665  56.7645912  23.0730839  50.5018501
  65.5461044  25.5975990  45.8371201  66.0740814  24.8241215  46.0351219
  65.8125687  25.8495483  44.9529533  21.6258907  66.6370316   0.1948972
  22.4756451  66.3340683   0.5148379  21.3095322  67.2280197   0.8781904
   3.2905085  67.1043701  80.2801132   4.1249819  66.6358490  80.2995377
   3.3134391  67.6666489  81.0544128  73.7793961  45.6372261  26.1289577
  74.6098938  46.0017891  26.4349060  73.3449326  46.3676643  25.6885757
  43.2689362   0.8100117  49.1843529  43.5687180   0.0728157  48.6524658
  42.5579529   0.4495501  49.7142601  34.4493294  45.9242592  24.6233406
  35.3774529  45.8021889  24.8231392  34.3924179  45.8158302  23.6740055
  18.6058769  28.9646454  73.2467270  17.7411594  29.0028706  73.6554260
  18.8103733  29.8750629  73.0332947   6.1505909  70.5061874   2.6352863
   5.6219683  70.6797409   1.8563980   5.5291982  70.5532379   3.3618462
  63.1515617  24.6053028  26.3175011  63.3606529  23.7065296  26.0630970
  63.6612778  25.1489925  25.7168159  16.0324249  26.3332329  75.2313995
  15.6254978  26.6012344  74.4075012  16.0358524  27.1270905  75.7661972
  41.7794113  61.9500694  20.8509102  42.2335167  61.6767731  21.6479855
  40.9126129  61.5498962  20.9199009  40.9692345  32.2495613  78.1509399
  40.3852539  31.8344002  77.5162430  41.6855698  32.6017532  77.6226807
   7.4254217  47.4892349  32.4211121   8.0127354  47.4735374  31.6654339
   6.6853771  46.9408150  32.1607246  65.0159378  56.9356155  58.4831924
  65.8273697  57.1208344  58.9559517  64.6146317  57.7944489  58.3505592
  46.1375542  49.7289429  10.8672590  45.7804909  50.6045151  11.0159492
  47.0762253  49.8707199  10.7446613  76.8291702  15.7587547  31.2359314
  77.2385559  16.0175133  32.0615692  77.2127075  14.9049263  31.0356731
  57.8996849  53.5006180  53.1188545  57.9190063  53.3997498  52.1671829
  58.2610474  52.6800766  53.4540634   1.9751289  29.5661316  79.0118942
   2.2348475  30.3428802  78.5164719   2.7199683  28.9703846  78.9310837
  23.1670265  38.1176682  33.7819481  23.3526955  39.0566368  33.7917900
  23.9758701  37.7103195  34.0919037  67.5252380  58.2748375  58.9651146
  67.0577774  58.9805489  58.5182648  67.8308334  58.6695442  59.7818451
  58.4262810  35.1571159  73.1849365  57.8568726  35.9050369  73.3655396
  58.9775543  35.4459076  72.4576569  74.2151337   9.6544552  72.2188034
  73.9522171   9.1077080  71.4784164  74.2743073  10.5378742  71.8550720
  32.8620720  13.3711596   7.9938955  32.6675529  13.0562296   8.8766251
  32.0292015  13.7183619   7.6745138  77.0262222  22.0030079  30.9191704
  76.8293304  22.8916798  30.6229839  76.4567108  21.4430237  30.3916225
   9.4635000  34.9977264  85.3216934  10.0579710  35.7477303  85.3399429
   9.4351444  34.6924629  86.2284698  37.3448181   0.8204592  35.4963036
  37.9227791   1.0333345  36.2290230  36.5050430   1.2152647  35.7311134
  81.0286560  22.7601490  87.1208954  80.8500519  23.6996899  87.0809555
  81.7518311  22.6275520  86.5079803  70.0080795  38.5907249  67.9505539
  70.0185928  37.7008781  68.3031082  70.4253082  39.1219826  68.6287308
  48.9724617   7.5934219  78.1382751  49.8851433   7.6119366  77.8503571
  48.7411613   8.5141735  78.2605438  70.3362885  12.1064377  37.1388206
  70.4650345  12.5496616  36.3002472  69.3919754  12.1486826  37.2895584
  66.3102951  36.8008194  56.5242271  66.9753113  36.1162148  56.4514236
  66.6165543  37.4952278  55.9409294  56.1180115  62.9364204   0.6020297
  56.1950722  63.1146927   1.5393190  56.4428329  62.0417175   0.5008985
  86.3448029  42.6591606  62.8876953  86.6801300  43.2736359  63.5405388
  85.5778580  43.0969429  62.5183945  46.0106430  34.0159874  87.0008011
  46.1325531  34.4997101  87.8177414  46.8727341  33.6460762  86.8105545
  84.4810867  40.1745300  88.3614120  84.8077774  39.5637856  87.7007294
  83.5571365  40.2935982  88.1414795  19.6002884  15.0701733  11.4642401
  18.7123814  15.3290663  11.2176056  20.0287857  15.8896513  11.7113762
  78.2495346  22.9776459  18.5978661  78.3702698  22.7224388  17.6832485
  78.6562576  22.2710438  19.0993843  11.6704884  34.6058884   8.0615215
  11.8866596  34.3600960   7.1620288  12.3520441  34.1941261   8.5927124
  28.0477695   1.2936792  59.5007210  27.5558147   1.1474820  60.3087044
  28.0395699   2.2436860  59.3838806  55.5014572  44.4811325  16.6263180
  55.3942719  44.9218025  17.4692612  54.6274872  44.1530571  16.4147205
  44.6251259  39.8950157   7.9376740  45.1860771  39.3251419   7.4115481
  44.7174225  40.7589645   7.5360465  59.1337128  53.3733711  83.0614700
  59.8629799  52.7714882  83.2102585  59.4056473  53.8975334  82.3081207
  80.9448776  56.2728539   4.6617260  80.2004318  55.7459145   4.3712797
  80.6972275  57.1733742   4.4520469  55.4834518  12.2318640  27.0166073
  55.4093857  12.8903255  27.7073860  55.2899628  11.4028339  27.4542198
  65.0946579  20.9127445  43.1062698  64.5491638  20.1262856  43.0941162
  65.9634323  20.5978088  43.3558273  64.0230942  16.0833511  11.8099976
  63.7249565  15.6645241  11.0025768  63.6373825  16.9589539  11.7821703
  48.8160973   5.5789003  61.7464600  49.1384125   6.2799282  62.3129463
  47.9029312   5.4604774  62.0078659  62.1267242  25.7212467  35.4509621
  62.3623123  25.9236641  34.5455589  61.2835464  25.2730522  35.3845787
  47.8916550  32.0193100   5.3760324  48.3427353  31.7822418   4.5657496
  46.9937286  31.7131424   5.2486782  29.8659534  70.7550735  54.6218910
  29.9140720  69.8637695  54.9675522  30.1219082  70.6699448  53.7034836
  75.5180054  24.3636189  70.4991531  76.4455795  24.2354088  70.3006744
  75.5078735  24.6799450  71.4025192  76.3357925  12.0730963  60.5365181
  76.3679123  12.6782999  59.7956200  75.4087830  11.8515387  60.6247902
  15.1201115  48.4664345  19.6771870  15.2568197  49.1703758  20.3112316
  15.7969933  47.8222733  19.8848324  47.7164803  26.2543068   6.9478130
  47.5773506  25.3495827   6.6679025  48.5914116  26.2530422   7.3360538
  66.1714020   6.3929629  51.4329834  66.2544861   6.0386076  52.3182869
  65.4052353   5.9497838  51.0685387  45.8586998  53.3650551  74.3572311
  46.0780754  53.3623009  73.4255142  46.2382469  52.5538521  74.6950607
   2.3494389   2.1431975  43.3660126   2.9830334   2.6845191  42.8950996
   1.7607812   2.7719526  43.7836037  56.7989120  60.3550110  85.6150665
  56.5741730  61.0767479  86.2022858  56.2384567  60.4852295  84.8501053
  74.3542023  34.5390129  45.3796463  74.5007248  35.1461487  46.1050072
  74.6391754  33.6897240  45.7168846  48.0761108  34.5012512  73.5061493
  47.6723595  34.6117096  72.6453247  48.7783012  33.8669739  73.3617325
  48.3006935  36.2719421  87.0542526  47.3849983  36.5038528  86.8995056
  48.4707375  35.5505714  86.4484940  85.9232635   5.6074009  35.2378006
  86.4913788   5.2759013  34.5423965  85.4992294   6.3754163  34.8549500
  48.5597572  12.2772150  19.5844498  49.4008141  12.6506214  19.3209629
  48.1570702  12.9540939  20.1284256  30.3242130  61.7546158  75.5508804
  30.6913605  62.6385727  75.5432053  29.3765621  61.8887405  75.5367737
  37.3101540   6.4074540  72.0784225  37.9701805   6.7122073  71.4557495
  37.2270966   5.4706869  71.9000931  85.6444550   6.0424733  74.0228195
  84.9016342   6.3381906  73.4965134  85.9093781   6.8166504  74.5195084
  25.2454453  13.9726534  33.4028168  24.9854832  13.2221127  33.9369888
  25.6218147  13.5852995  32.6125412  55.7310524  55.2402840  87.3463593
  56.1038284  55.3075409  88.2254181  55.6397896  56.1474380  87.0548477
  84.5818710  64.2862930  59.3288574  83.8113480  64.4857483  59.8605957
  85.2972717  64.7551575  59.7585030  40.4868851  37.4612236  70.1566315
  39.8370552  37.2818069  70.8361664  41.3102074  37.5644188  70.6338272
   0.8638262  66.9195633  57.4926453   1.1668578  67.8247299  57.4214668
  -0.0402749  66.9929962  57.7983284  54.7233429   7.3247600  29.2911377
  55.0661354   6.7058873  28.6463718  53.8204918   7.4826427  29.0151634
  67.4932251  37.5000000  32.2433968  68.3183746  37.0151634  32.2262039
  67.2375565  37.5703468  31.3236580  28.7171459  65.4294739  43.4184303
  28.0819855  66.0306778  43.8074837  28.1851616  64.8064804  42.9233475
  50.5367851  56.6516418  65.3248749  50.6093254  57.6040535  65.3871918
  49.7186432  56.5042915  64.8503571  21.9863300  50.5556908  26.9170952
  21.2282715  50.9223137  26.4619370  21.8842010  50.8448944  27.8238277
  59.0103226  31.2036190  37.3379364  58.3770142  30.5174236  37.1274910
  58.7653198  31.4944439  38.2163582  43.0273514  57.7453728  17.4119282
  42.7157784  57.6021347  16.5182648  42.3132439  58.2157822  17.8420410
  53.4669495  56.7735291  23.8861961  53.0551414  57.5987244  23.6298676
  53.3526039  56.7335815  24.8357029  71.4304047  68.6902237  42.4569130
  71.0834808  69.3334579  43.0750809  70.6559143  68.3360748  42.0198975
  43.1031647   1.4302207  22.7609673  42.4401131   1.4399211  22.0706768
  43.9140968   1.6794224  22.3176613  30.8983974  63.7414894   1.8388734
  31.5921059  63.3170128   1.3340768  30.3098640  64.1059418   1.1777893
  30.4102440  26.1146336  79.3898926  30.2097988  26.9248905  79.8584442
  31.1474762  26.3417606  78.8232117  24.0783863  14.6847248  70.1242065
  24.1107464  14.9444962  69.2034912  23.9746265  15.5077629  70.6017761
  11.9920969  45.0328331  39.0672646  11.2407513  44.6515846  39.5215302
  12.6546335  45.1414223  39.7495308   1.9517909  45.7819481   6.3456111
   1.8058993  44.8362694   6.3710146   2.8251934  45.8794441   5.9662776
  39.6785316  70.3930130  29.1090488  38.8800430  69.8675537  29.1594410
  39.6132774  70.8479614  28.2694054  61.4215393  42.0586319  83.5131912
  60.8861694  42.8020172  83.2357178  62.1204262  42.0101013  82.8609390
  39.8650398  64.4887390  43.1438637  39.4029999  63.6510391  43.1756973
  39.5595665  64.9603500  43.9187775  41.4052010  56.7883987  84.5287018
  40.7535362  57.2756615  85.0328217  42.1310577  57.4025955  84.4185638
   1.5022599  55.9845123  59.4478302   1.5120540  56.4129601  58.5919304
   0.6280105  56.1623116  59.7946854  28.3958092  62.1726799   0.0124165
  28.4612751  62.2341309   0.9653959  29.2333698  62.5080757  -0.3073204
  12.9821987  11.4240999  23.0184708  12.3123236  11.0083227  22.4756737
  12.5887098  11.4720306  23.8897343   8.8957548  45.9885178  37.6480331
   9.7652912  45.6633263  37.4148140   8.4666119  46.1487808  36.8075676
   1.8193730   0.6688176  79.3550339   1.8159636   1.5254617  79.7820969
   2.7239451   0.5489439  79.0658798  44.0812836  61.5609589  87.0112000
  44.1401253  60.7099800  87.4454880  43.8473778  61.3525963  86.1067123
  15.4431143  11.8212795  23.8140163  15.9279346  12.5251570  23.3830414
  14.6421251  11.7311764  23.2977505  85.8641586  34.8215790  72.2285614
  85.8764954  34.4049530  71.3668747  85.3630295  35.6266289  72.0982056
  14.9755926  35.8734474  74.6641769  14.7052774  36.7226181  74.3147888
  14.1848841  35.3354530  74.6245422   1.8737093  58.7723083  61.2438087
   1.1952645  58.2943382  60.7668495   1.7282461  58.5426025  62.1615829
  60.5984306  36.9391556   5.6928091  60.6263428  36.2531204   5.0258698
  59.9955521  36.6037483   6.3563409  73.0444336  56.0952034  40.4355774
  73.9069977  56.1628494  40.8450165  73.2006378  56.2975197  39.5131378
  10.9352722  59.7319984  29.3969345  11.8380089  59.4226456  29.4717598
  10.6856279  59.5266724  28.4959621  28.5511551  52.8361931   5.4589310
  28.9888630  53.5534019   5.9174657  28.5948925  53.0808258   4.5345540
  27.1334743  14.4679041  68.2557297  27.0756435  13.5418396  68.0205841
  26.2670937  14.8209648  68.0533295  74.3922806   8.7209091  21.6862011
  73.9842529   9.2784052  21.0236740  74.5888901   7.9055033  21.2250175
  26.3410378  64.9668045  81.6732101  26.1326904  64.0584259  81.4548416
  25.5781479  65.4647675  81.3795166  55.5635338  23.4908962  84.3291473
  56.4759712  23.7518349  84.2042313  55.0573235  24.2661419  84.0862961
  65.8680801  14.9545488   9.2094469  65.3399048  15.5681887   8.6988516
  66.6446304  14.8014402   8.6711559  10.9589243  12.1661520   2.3123150
  10.8966370  11.6589460   1.5029359  11.8948622  12.3380079   2.4158473
  53.3427544  42.7059669  67.8179245  53.9543076  43.2234688  67.2940750
  53.2814941  41.8691063  67.3573380  63.2237587  36.8185883  35.0829315
  63.8802414  36.7012062  34.3962860  62.4473000  36.3674049  34.7515984
  12.0434275  16.1278896  78.8663101  11.4636879  15.7765636  79.5421066
  12.0571499  17.0710373  79.0291443  35.9508629  36.3426857  24.2615108
  35.9915504  35.7540855  23.5077686  36.5072517  37.0825157  24.0179749
  82.5937119   7.0442214  75.8859329  81.8334732   6.6131010  75.4955444
  83.2572784   6.3565183  75.9404221  51.1371880   5.3971372  47.4044724
  51.3753967   6.0001965  46.7003365  51.2814713   5.8976417  48.2075348
  68.0868835  54.3120880  28.2420235  68.6708374  53.6443977  28.6017723
  67.9102020  54.0192451  27.3480110  19.4348221  52.7046013   9.6559839
  18.8632545  53.4604683   9.7909184  19.3485069  52.1924858  10.4600468
  46.2718697  27.4124432  45.7957344  46.0238304  27.1304550  46.6761818
  46.1873398  28.3656693  45.8168259  60.6296387  55.0876732  72.9273987
  60.9471970  55.6306152  72.2058716  59.7849846  55.4717941  73.1624451
  72.4705048   6.2125349  33.3517914  73.3070145   6.6634760  33.4663696
  72.4493103   5.9792471  32.4236984  49.8940697  57.7597008  21.8249817
  49.9126472  57.2628021  22.6428928  49.8643303  57.0920296  21.1397343
  28.8774452  50.7336388  14.8120232  29.6647072  50.8968697  15.3314495
  29.1403275  50.0612564  14.1835136  10.7946587  41.4489822  42.4124908
  11.5506182  42.0286407  42.5060577  10.8685064  41.1005783  41.5240135
  38.5006332  35.0795593  22.2946014  38.6974106  35.7916260  22.9032688
  37.5736961  34.8898315  22.4395752   2.1864991  20.4560661  63.2431374
   1.4648026  19.8449345  63.0951385   2.3604810  20.3982353  64.1826096
  46.8072014   2.5037720  57.1613617  46.0469704   2.8974881  57.5894547
  47.5472374   2.7443140  57.7187843  60.7616615  11.8961849  84.1864853
  60.3621445  11.3840418  84.8895645  61.2168922  12.6074333  84.6371765
  78.5441132  38.0659676  38.7319717  78.4237366  37.7067299  39.6110001
  77.8530273  38.7225037  38.6448326   8.2016544  70.6466064  16.4552441
   7.8901415  69.8604279  16.0067844   8.6345949  71.1570206  15.7709408
  15.7263031  50.3858490  21.5318451  14.9154329  50.8072128  21.8167534
  16.3944359  50.7245941  22.1277313  73.0064163  20.9981785  50.4675140
  73.0355911  20.4316406  51.2384949  73.9051971  21.3115692  50.3664246
  46.7674522  23.2470131  12.6478834  46.2400551  24.0368156  12.5283194
  47.2574844  23.4060860  13.4546041  57.0431900  56.1562042   0.4090531
  57.6585579  55.4240303   0.3706277  57.5286865  56.8964729   0.0450141
  15.7693090  38.0450363  14.7889595  15.7248058  37.2140694  14.3159418
  14.9036922  38.1412506  15.1860514  76.3749237  57.0066147  45.4244461
  75.8035660  56.4667892  44.8782196  76.6772614  56.4145050  46.1130867
  17.3311939  39.7510719  47.0931511  16.6998558  40.4235191  46.8372917
  18.0698700  39.8770409  46.4975662   8.4465542  17.2234268  14.1309643
   9.3557348  17.5149879  14.0630217   8.0067501  17.6352291  13.3871746
  14.0372858  61.5866051  29.1302834  14.9733572  61.4889107  29.3048019
  13.6358137  60.8211174  29.5414753  17.6803093  18.5705013  67.2222900
  17.9924374  18.0314407  67.9490814  18.4095573  18.5822506  66.6023788
   5.3428855  55.5820732  34.3160400   5.0857530  54.7062721  34.0277863
   4.7086029  56.1666451  33.9010811  24.7890015  15.8454218   5.9350300
  24.2463856  15.6560669   5.1695600  25.2905998  16.6219826   5.6868696
  52.1685562   4.7957902   6.0552487  51.8636131   5.7022300   6.0151477
  53.0426674   4.8539968   6.4409580  70.7025986  28.5766106  79.3331909
  70.6582260  28.2554989  80.2338257  71.6278229  28.5047913  79.0986176
  67.8345337  56.4818611  54.7372971  68.6615753  56.9458771  54.8673782
  67.2457428  57.1404991  54.3688431  72.5530472  43.6041565  59.8036308
  72.3587494  44.1213722  60.5852776  72.6055374  44.2480431  59.0973129
   5.0611935  25.9891243  16.0327816   4.5972342  26.7961140  16.2558060
   5.6580911  25.8452568  16.7671146  41.9872704  14.5458908  19.0364742
  41.0334053  14.5539274  19.1159191  42.2252312  15.4650221  18.9148006
  13.1801662  42.4793510  29.4656029  13.8388796  42.1086121  30.0528679
  13.6593056  42.6726532  28.6598167  72.4471359  65.4392319  29.1242065
  71.4992294  65.3908386  29.2481213  72.5586166  65.5891876  28.1854229
   0.0825157  35.1469116  21.0528564   0.3474562  35.9059906  21.5723171
   0.3136461  34.3929443  21.5953903  68.8002319  33.4527588  85.9754944
  69.5429840  33.6824036  86.5339050  68.7126389  34.1942291  85.3765106
  23.4043999  11.9273205  86.3975296  24.3085175  11.6138954  86.3736572
  22.9817600  11.4961948  85.6547394  66.9442749  28.1756325  51.8123589
  66.6543884  28.2719364  52.7195091  66.6217651  27.3140316  51.5480423
  74.5875473  58.6099739  63.2552567  75.1666718  57.9540215  63.6432991
  73.8738327  58.1015244  62.8701248  70.5956421  15.7530880  66.7514572
  70.1778107  15.4428177  67.5548172  71.4966125  15.9474421  67.0097504
   2.8411539   3.6360202  11.4651985   2.6507850   3.8794022  12.3711548
   3.7146099   3.2460656  11.5004387  50.5479393  29.0931377  83.6542892
  49.6388664  28.9379997  83.3978653  50.7233315  28.4336720  84.3255386
  33.7289467  37.2107887  27.4875393  34.3422318  36.5405083  27.1861401
  33.6604156  37.8204918  26.7528324  46.3718071  43.3204231   9.5372229
  46.9922256  42.6107864   9.7037306  46.8543587  44.1171227   9.7577810
  82.5418625  33.4320526  39.2721329  82.7600479  34.3468513  39.4503708
  83.3587952  33.0488167  38.9527779  19.6860085  62.6249924  35.4013748
  20.3010483  63.2559319  35.0273781  19.1561852  63.1392021  36.0105591
   8.7059908  11.6350403  23.7566833   7.8408427  12.0426083  23.7971611
   8.8289976  11.2475739  24.6232700  36.4346237  36.1007576  88.2982178
  36.1958275  35.6627007  89.1151047  35.6007271  36.3942184  87.9311676
  74.8395767  62.7763748  20.3869267  75.6475677  62.3852310  20.7191830
  74.1637268  62.1246567  20.5732479  51.4764023  51.5707092  47.0434837
  51.8697357  51.4648399  47.9096909  51.1393356  50.7017021  46.8256607
  77.5702591   4.6235323  48.7938042  78.3785934   4.3505378  48.3598671
  77.0928726   5.1137533  48.1244621  25.2042961  63.1123009   5.6922293
  24.7314281  63.8294601   6.1145000  26.0570583  63.0990257   6.1267991
  51.0487900  20.6837730  21.3141022  50.6546478  21.4419136  21.7455006
  51.2532501  20.0809135  22.0289383  76.2757034  16.3089428  14.7126617
  76.4884720  16.5773163  15.6064930  77.0149612  16.6161823  14.1879416
  72.7730789  59.0249062  32.1539345  72.9538803  59.8310127  32.6373978
  72.0117111  59.2354774  31.6133652  51.5217476  32.5843887  47.0285263
  50.8396034  33.2461205  47.1426277  51.2741699  32.1206474  46.2285995
  65.8924866  42.8152580  57.0145912  65.4099884  42.5661469  56.2263222
  65.2203903  42.8957787  57.6913719  52.4979477  10.9777918  84.6637497
  52.7583351  11.6106405  83.9944763  53.1045303  10.2460537  84.5503845
  51.3316689  32.5405960  51.3246498  51.7182732  32.5665588  52.1999168
  50.6254463  33.1859932  51.3555107  55.1186790   2.2149665  39.3887520
  54.2357330   2.5813982  39.4374237  55.3153419   2.1875644  38.4523735
  46.8405952  13.2730265  49.2533226  46.5783005  13.0945425  48.3502274
  47.7395325  12.9491072  49.3101120  43.9415207  56.3262711  13.1069145
  43.1704521  56.8534126  13.3162184  44.6643410  56.7741470  13.5464211
  22.9024029   1.7494112   4.0801258  22.7932358   1.1316426   3.3571622
  23.8487644   1.7932022   4.2169199  23.9999886  40.7493401  33.9707451
  24.7119274  41.0985870  33.4346504  24.3423710  40.7667885  34.8644485
  73.8531952  10.5925608  68.3818359  74.0022507  10.6782265  67.4402008
  73.1951447  11.2583361  68.5817108  55.5899124  28.7813778  17.2930088
  55.6549911  28.7136211  16.3404293  55.0942802  28.0055332  17.5550079
  78.6011963  12.0911140  82.3823013  77.9452362  12.3970346  81.7559128
  79.3125076  11.7530041  81.8382874  16.4130402  67.0877609  50.5148621
  15.9119720  67.0598755  49.6997643  16.0430965  66.3838196  51.0476303
  83.9447250  20.4510078  40.9988060  84.6160126  20.4837990  41.6803741
  84.3038712  19.8598499  40.3371544  26.0522251  26.5083351  79.9760666
  26.7592945  25.9860840  80.3549347  26.4639511  26.9790306  79.2513885
  15.0661497  29.0786076  71.0939102  15.7000246  28.7426929  70.4601898
  15.1914711  30.0274353  71.0780869  63.4197617   9.3624802  65.4721069
  64.3702850   9.4050589  65.3675766  63.2890892   9.1792622  66.4024734
  31.0536098  32.5474052  48.3116264  30.8619442  31.7916832  48.8669472
  31.9978008  32.6768990  48.4008904  37.8855934  29.1523342   1.8445039
  37.9133644  28.6854496   2.6796565  38.3476219  28.5781975   1.2336608
  50.2409248   5.2744064  44.5455399  50.6055222   4.8691759  45.3323593
  50.9998474   5.6392603  44.0904007  12.5605974  70.0498886  55.4824715
  12.8399734  69.1469574  55.6338005  13.2796984  70.4434662  54.9882889
  72.6574173  13.8192511  40.6956291  72.8161011  12.8898754  40.8608932
  72.4114914  13.8596039  39.7714386  56.5024529  48.2167778  88.9422989
  55.8168945  48.7361107  89.3624649  57.2352982  48.8242493  88.8415527
  41.6651535   0.4883994  61.0165253  40.7439270   0.5321553  60.7602806
  41.9996262  -0.2924876  60.5754166  82.8787079  44.0089035  50.2213898
  83.6864014  43.9549026  49.7105637  83.0516968  44.6895790  50.8717651
  17.4779720  42.0912857  20.6911488  18.0181637  42.0956993  19.9009552
  17.8917503  42.7336006  21.2677345  46.5138664  12.3864222  23.1159172
  46.1675301  11.5041876  22.9819527  47.4433594  12.2531853  23.3017178
  55.8288002  16.1198120  52.4747543  55.8041687  15.7153215  53.3419418
  54.9512634  16.4828014  52.3547707  65.2379150  42.3425140  77.8232346
  64.2866821  42.2807617  77.9103088  65.4085159  43.2784653  77.7177505
  30.5266113  27.9233398  71.8744278  31.4723644  27.8229523  71.9826279
  30.3564034  27.6365223  70.9772110  81.3025589  61.8942986  12.9573851
  81.2067261  60.9503975  13.0842819  81.1772690  62.2672195  13.8300028
  50.6328239  23.9207573   9.0895987  50.9210930  24.7525234   9.4654999
  49.9192581  23.6346989   9.6598845   3.5917900   8.3794203  36.4623108
   3.0146992   7.6357141  36.6358032   4.3015962   8.0137501  35.9343948
  80.1884384  33.2115173  37.8093147  80.9392166  33.4536514  38.3514748
  79.6954727  34.0254364  37.7056007  67.8238525  59.1863556  37.5480499
  67.5958939  59.4000397  38.4528160  66.9820251  59.1291847  37.0960579
  73.5388412  60.3914795  50.2124672  74.1088333  60.4993286  50.9738541
  73.4622192  61.2716103  49.8440475  18.8857689  35.9075584  23.8558941
  17.9739513  36.1530380  24.0126076  19.0981846  36.3024940  23.0102367
  36.6876030  58.2923203  35.3292618  36.1630745  58.4875870  36.1057739
  36.0437012  58.1080284  34.6454086  57.0689201  26.2952881  32.5133781
  56.5431709  26.9820919  32.1033516  57.9451065  26.6742020  32.5837326
  18.0341148  62.3341522  74.5295105  18.2058868  62.1205597  73.6123962
  17.4991398  63.1271324  74.4946136  48.8655205  70.9900131  52.0178032
  48.5758095  70.6176529  51.1849480  48.5735550  70.3597641  52.6764183
  33.9680595   2.6863272  16.0707283  34.8554230   2.9244416  16.3392887
  33.7747574   3.2706807  15.3376541  78.1880264  69.2406387  71.5988312
  78.6968765  69.8870468  71.1094818  77.5979614  68.8586197  70.9491272
  83.0120697   3.1797459  71.1867065  83.6288910   3.0817986  71.9120865
  82.2512436   2.6607602  71.4475327  83.8006058  20.8315372  30.1004887
  84.0429230  20.0188313  30.5443592  84.3155518  21.5076714  30.5408325
  63.7633591  49.4654160  87.8551483  64.2177048  50.2816277  87.6463470
  63.3253670  49.6413651  88.6878815  53.7237244  16.3378773  23.0216389
  53.7937622  15.4348211  23.3311787  54.5833397  16.7194462  23.1996822
  23.4804287   9.4743147  28.5415974  22.7327213   9.8083134  28.0460072
  23.8703804   8.8128481  27.9700813   9.6286650  41.1547737  73.8998260
  10.2908163  41.7183456  74.3000412  10.0203876  40.2814407  73.9086761
  38.2058792  62.6344490  55.2339516  37.3293533  63.0130653  55.1662636
  38.3872833  62.2923889  54.3585510   1.9798552  71.7879410  17.0808983
   2.3080182  72.1934967  16.2783642   2.4185371  70.9379196  17.1163940
  59.0896797  10.6715221  16.5296288  59.7193184   9.9586716  16.6374645
  59.2947273  11.2814455  17.2382736  67.4827423  44.2148781  47.2765884
  67.9393234  43.4042473  47.5016174  66.8494644  44.3373337  47.9838333
  53.2018127  52.5719070   8.2828703  53.1569176  51.6158142   8.2727470
  54.1341858  52.7688713   8.1927366  49.4442825  53.0709496  26.8545799
  49.8922424  52.2442589  26.6752777  48.7810822  53.1379013  26.1676178
  69.9117432  65.0825348  11.0069847  70.7980423  64.7282867  10.9347706
  69.8731995  65.4535828  11.8885012   9.2426462  57.1117554   8.1699724
   8.4630013  56.6645851   7.8406940   9.7813072  57.2579079   7.3923378
   0.0864427  10.4290724   7.6322103  -0.2328364  10.8811436   8.4131870
   0.8999293  10.8815928   7.4092813  70.6538162  41.4507256  87.3591003
  70.7207565  41.4637871  88.3138733  69.9722061  40.8042259  87.1756134
  43.6322098  46.5940208  18.7468700  44.5065613  46.8959351  18.9930191
  43.7898331  45.8269272  18.1964607  69.3898163  71.0643768  80.4490128
  70.0889816  71.4234543  79.9026947  68.6517715  71.6589737  80.3149338
  19.9088326  68.4617233  77.8787689  19.1483383  68.0981674  78.3323212
  20.5167561  67.7262421  77.8030853  32.1679802  55.6962013  61.8897858
  31.6076641  56.0965462  61.2249527  31.5976181  55.0732841  62.3402176
  34.0345879  55.6554413  79.4823914  33.1882324  55.2465096  79.3015900
  33.9224434  56.0699501  80.3378677  38.5729485  41.1617355  35.4157715
  39.1278076  41.1004066  36.1933327  39.1614990  41.4660187  34.7249413
  52.0736351  20.0331612  30.4872398  51.9880562  19.4670830  31.2543545
  51.3398781  19.7862625  29.9243259  19.3538532  50.6697159  58.3502693
  18.4480209  50.5853882  58.6479111  19.8502598  50.0879745  58.9259338
  40.6722488  59.1033936  73.4123688  40.7817841  58.3188820  72.8749847
  41.3296585  59.0147324  74.1024246   5.6018977  62.0075951  74.9600906
   4.8760352  61.8267670  75.5572968   6.2111373  62.5352516  75.4764557
  65.0745163  42.1618729  38.5079689  64.6196671  41.3892059  38.1728134
  64.6419220  42.3521881  39.3403549  86.4973526  57.2863617   9.7961035
  87.3727951  57.6681709   9.8597593  86.1258469  57.6701469   9.0017967
  48.0251961  16.0343437  62.7479019  48.8943977  15.6553974  62.8787384
  48.1928024  16.8805923  62.3331680  16.2435036  36.3537979  82.4865952
  16.7102222  35.7835312  83.0974960  15.7265263  35.7551918  81.9474792
  67.7129669  37.3533020  63.3490753  67.1432648  37.8013115  62.7238045
  68.1458206  38.0601692  63.8278275  29.0966473  37.7368202  72.8470230
  29.1618366  38.1359177  73.7146072  29.4059238  38.4156799  72.2472534
  72.7738113  71.4152298   9.9827356  73.3941956  70.9537735   9.4184561
  71.9144974  71.2007599   9.6196680  59.5745277  53.5902481  71.1066360
  59.2400551  52.7501106  71.4205399  59.9894638  53.9845810  71.8738174
  73.1920166  28.8907337  73.9257507  74.1292953  28.9351540  74.1148529
  72.8712463  28.1730309  74.4718628   6.1557384  36.4718819  63.8352242
   5.5104518  37.1621971  63.9878769   5.7014766  35.6630020  64.0709991
  63.0219307  15.2553244  88.3022308  63.6563530  14.5565395  88.1427307
  63.1426811  15.4826021  89.2241821  57.3563194  14.7240410  75.6984482
  56.8392906  15.1028652  74.9875259  58.2618942  14.7837219  75.3941345
   4.4155803  57.4015999  53.0147591   4.5954561  56.7101631  53.6517754
   5.2575860  57.5584869  52.5873909  31.0584831   3.6543152  76.9193802
  31.4331837   2.7776446  76.8340530  30.4453793   3.7249899  76.1877060
  56.0321426  41.9458885  15.3873129  56.1766167  42.7197380  15.9318495
  56.2933540  42.2195740  14.5080538  72.2281189  17.2526169   8.6091623
  71.5964203  16.5787983   8.8604660  73.0776749  16.8900223   8.8601809
  30.1871452  45.9497375   4.8757401  30.8215542  45.3092957   5.1976032
  29.7522297  46.2733574   5.6646304  62.6538391  40.2398338  51.9947853
  63.1790314  40.5091591  51.2412148  63.2589149  39.7387543  52.5416298
  34.6679001  17.8209419  82.1245956  34.2301903  18.6440449  82.3417206
  33.9992332  17.1502228  82.2633438  54.2374039  59.2877846  51.2935257
  54.1210098  59.3223877  50.3440590  54.8503227  59.9974518  51.4857140
  57.1267891  70.5721054  63.2135277  57.6721573  70.3561249  62.4571152
  56.6217804  69.7761383  63.3797836  20.0778103  65.0429230  22.8926487
  19.1418781  65.2151031  22.9956970  20.4843979  65.4703979  23.6464310
  30.7724075  65.1331635  64.5402603  31.6864262  65.2002106  64.2640152
  30.6344414  64.1973267  64.6865616  38.0589485  68.3830566  77.2867279
  38.8863220  68.0890427  76.9056244  37.6717911  68.9442291  76.6148529
  32.2033348  19.0351830  69.8995514  31.4302845  19.4963551  69.5740662
  31.9675999  18.7704315  70.7886887  47.2915306  59.9722710  79.9951706
  46.7250061  59.2859840  79.6426239  47.8104286  60.2632065  79.2452850
  66.2709122  25.3654957  58.7686539  65.9624176  25.4620800  59.6696129
  65.9701233  24.4960575  58.5044022   4.5230207  18.8022556  83.3313141
   5.1907082  18.1308365  83.1912384   4.2876081  18.7168713  84.2551727
  70.5650635  35.2921371  87.1218796  69.9367981  35.2591286  87.8432922
  71.1491623  36.0166130  87.3459167  57.8841133  10.5258827  46.0308914
  58.1993904  11.1201382  45.3499451  58.2365417   9.6707239  45.7844620
  15.6429777  44.2087135  58.5501823  15.3143806  43.7142105  59.3009949
  16.5285378  43.8729744  58.4112778  56.7261620  45.4500618  80.6577225
  56.2592583  44.7291298  80.2352371  56.4925804  46.2217140  80.1417465
  31.9852085   7.0855770   1.8585219  31.3165264   6.9384375   2.5274348
  32.7634163   7.3463459   2.3510888  12.8675318  63.5174751  24.6461143
  12.4594641  63.1258965  25.4183712  13.7388458  63.7801437  24.9428425
  76.5253448  16.4332790  27.5887890  76.9378967  15.8860607  26.9205208
  77.1106491  16.3716335  28.3436737  42.7826042  13.3250523  14.3901558
  43.4900932  13.3577290  15.0340691  42.7227821  14.2194567  14.0544567
  76.4137192  60.8033066  49.2290001  76.0184937  61.5611649  48.7980957
  75.9529190  60.0502205  48.8591957  54.4095802  23.5731163  18.8316746
  53.5739441  23.9135208  19.1511574  54.6075668  22.8394184  19.4136715
  58.3112679  18.9631748  17.3008080  58.2566795  19.2598686  18.2092285
  57.4010773  18.9209080  17.0075474  75.9659729  56.7518616   2.7737074
  75.5263672  56.3279114   2.0366516  75.9221573  56.1083946   3.4810023
  61.0665817  28.4501076  80.9715805  61.6857872  28.8885918  81.5551453
  61.4287529  27.5718613  80.8543320  10.2585993  40.9646873   3.3074691
   9.8037233  41.4675407   2.6318517  10.2802095  40.0704651   2.9666963
  53.2451859  18.1007519  64.6215820  53.4796448  18.5967636  63.8372154
  53.9954834  18.2082958  65.2061539  66.9690094  68.8894577  22.4616318
  67.1675568  69.5442276  23.1310253  67.1159058  69.3432236  21.6317215
  61.1517715   3.7957876  26.4762573  61.5992241   3.0597193  26.0588589
  60.8516312   4.3383298  25.7470150   4.6486325  42.6050987  77.8611069
   3.8753707  42.0526314  77.9754639   4.8840127  42.4998093  76.9392929
  71.3648758  68.0672150  74.5222626  71.0110168  68.9328995  74.7262421
  72.2358932  68.0648956  74.9191895  48.1392555   8.4357738  12.0060196
  48.8006248   7.7894950  12.2532873  47.4245644   8.2968874  12.6274357
  49.7333107  62.6532974  36.9595566  48.9425278  62.1161613  37.0083580
  50.2616539  62.3700867  37.7057953  75.0667801  45.2610245  84.8635788
  75.1366272  46.1308517  84.4701843  75.2560043  44.6573753  84.1452179
   4.5909009   7.6692424  57.7209282   4.6569242   6.7287903  57.8865280
   4.1604180   7.7326727  56.8683510  11.7388735  58.9850235  76.8667603
  10.9867392  58.5947571  76.4215469  12.4988937  58.5551910  76.4745331
   1.5162338  71.1217728  43.0340919   1.4671638  72.0706100  43.1503944
   1.0625275  70.9580307  42.2073097   6.1147404   2.3964343  75.6407928
   5.5389175   2.0567927  74.9557343   6.7466745   2.9427488  75.1734314
  37.6053162  18.1998672  83.0071487  37.5812111  17.6573544  82.2189026
  36.7334175  18.5919838  83.0547867  62.2472916  31.7439117  63.2717133
  61.5085449  32.3522987  63.2531052  62.1642532  31.2414532  62.4612389
  15.5059471   1.6353530  22.3217392  16.0778885   0.9961395  22.7466164
  15.5072460   2.3881464  22.9129524  82.4274902   5.4200354  43.6917610
  83.0469818   5.9124684  44.2302551  82.8855896   4.6057448  43.4836540
  21.5011406   2.5949981  17.6419106  21.7842617   3.4277327  18.0195694
  22.1837025   2.3751729  17.0078621  72.1014252  35.2967529  74.7294464
  72.2742767  36.0573845  75.2842331  72.6603012  35.4271088  73.9633560
  56.2346344  36.4411888  18.5143242  56.7981720  36.9097710  19.1300240
  55.3497658  36.5648537  18.8577576  12.9329548  63.4485168  64.9846802
  12.1120625  62.9595337  65.0418091  13.3094893  63.3878288  65.8626175
  14.1097317  30.8609047  37.2496643  14.1510696  30.0597572  37.7718582
  13.2170229  31.1827431  37.3750610  71.6294327  30.4447250  70.1436081
  70.7686462  30.8028049  70.3605347  72.2235260  31.1922913  70.2101669
   1.0221684  15.1345243  72.7950974   1.3018942  14.2571068  72.5340881
   1.7358631  15.4601917  73.3435593   3.7260773  71.7356186  66.4996185
   3.0084860  71.1096344  66.4024506   4.3050170  71.5530777  65.7595215
  22.7616444  -0.1074796  87.1142578  22.8461838  -0.4816931  87.9912109
  22.1832561   0.6463385  87.2302551  63.7592354  66.6037674  25.5121822
  62.9065170  66.8432388  25.1492081  63.5861778  66.4336243  26.4381065
  27.4823437   4.4356747  14.7402840  28.2599525   4.7841802  14.3042803
  27.0710316   3.8738554  14.0834637  82.6789780  22.0513840  51.0630684
  81.7259979  21.9718971  51.1047668  82.9853058  21.7021465  51.8999863
   5.5130224  16.5033245  70.9227600   5.5352569  15.6022167  71.2448502
   6.1547704  16.5197945  70.2127457   2.1870501   9.6307316  34.6293449
   2.9222341   9.1896935  35.0550461   1.6744819   8.9215660  34.2412834
  36.9356728  18.5757504  71.1825867  36.7896576  17.8995686  70.5210037
  36.1501503  19.1214237  71.1447754  81.8384323  52.2440186  84.2421341
  81.4079666  51.4187317  84.4653625  81.9379654  52.6964645  85.0797653
  46.1469841  54.4746590  56.3016129  46.6982880  54.8840523  55.6347618
  45.9079819  53.6267357  55.9272614  70.2463455   2.7666109  67.3392029
  70.4601593   3.1829998  66.5042572  70.4888916   3.4156835  67.9995880
  12.7748060  66.3964462  27.7111683  13.3608189  66.4967957  28.4613361
  13.2015533  66.8844452  27.0069141   4.6654272  49.8380852  83.0918274
   4.1878076  50.2794075  82.3894348   5.3999414  49.4113731  82.6506500
  86.4418259   8.7908936  42.9266396  85.5350723   8.9552813  43.1855011
  86.6281662   9.4604950  42.2685051  85.6226196  20.3998108  54.6047363
  86.0992050  20.0533810  53.8503571  85.7689209  19.7552242  55.2970772
  52.0758362  71.6572189   7.8548098  52.7158966  70.9454956   7.8567405
  51.2324219  71.2205200   7.7357354   2.1345758  60.1114769  57.5719566
   1.6940205  60.8549500  57.1603813   2.8205545  59.8659439  56.9511681
  80.1092682  31.5670776   7.3084817  80.8122940  30.9673061   7.0589561
  80.3199615  31.8226662   8.2065430  54.6242104  55.8862991  52.8577499
  54.8276329  55.9147110  53.7926521  53.6681557  55.8567924  52.8214455
  54.7495193  27.2202530  44.6303139  54.2203331  26.5365887  45.0411644
  54.8038216  27.9106560  45.2910919  60.2799072  22.7187729  77.1565933
  61.1130943  22.4497623  77.5434647  59.7095070  22.8839722  77.9073181
  71.3730164  53.0155754  24.2548695  71.3668365  53.9098244  23.9135342
  70.4526367  52.8198700  24.4304619  21.4916878  69.3161392  29.0385571
  22.1477432  69.9260254  28.7011185  20.7919636  69.3316498  28.3855820
  64.4172134  31.6157055  89.1868820  63.5262909  31.9435158  89.3095016
  64.7037735  32.0043221  88.3603897  69.7261276  27.2572594  75.3774567
  69.6796036  26.3024750  75.3279190  70.6580582  27.4566059  75.2880554
  11.6877975  68.6940231  59.3418770  11.1484203  68.6406403  58.5529213
  12.3217297  69.3856964  59.1522751  51.9277725   1.7377433  13.6630611
  52.6392937   1.6579300  14.2983551  51.1299133   1.6881583  14.1895523
  48.6777458   8.1787119  70.8609924  47.8295174   7.9215879  71.2224197
  48.5365868   9.0638485  70.5250778  12.2479229  36.3971481   1.5431277
  11.9161682  35.8855667   2.2809994  11.9284868  35.9348106   0.7682509
  47.8296738  60.9514236  32.9437752  48.6705360  60.7759705  32.5214005
  47.3470192  61.4782906  32.3068390  68.9202576  41.2902603  60.9559937
  69.0125885  40.4135094  60.5831451  69.2144775  41.1973991  61.8621063
  48.4148445  15.5642443  13.6706867  47.8255959  15.8899393  12.9902878
  48.3496284  14.6113300  13.6079721  36.7396507  11.3823080  23.4812603
  37.0823784  11.9045324  24.2065544  37.2643929  11.6478310  22.7260265
  35.4393539  52.6971130  38.7543755  36.1081543  53.3594856  38.9281540
  35.1034126  52.9180870  37.8857307  58.9140701  33.6724205   1.8878402
  58.7264328  33.7458153   0.9520854  58.6677551  32.7749901   2.1118453
  14.6339006  53.8265686  73.6420441  15.2923355  53.5230217  74.2669830
  14.7649822  54.7736855  73.5971222   0.5934820  53.7340508  28.3171692
  -0.0747852  53.2709999  27.8119602   1.0228825  53.0495720  28.8303299
  40.8287086  20.1836433  67.2831955  40.5839195  20.2538433  68.2058945
  41.7828369  20.1077194  67.2936325   7.8833761  66.8798370   8.7028217
   8.2990274  66.3288269   9.3660326   7.3823791  67.5224838   9.2050562
  15.3126688  46.7873764  86.4173279  15.3065681  45.9118500  86.0304871
  15.7727604  46.6782990  87.2495880  13.9845276  56.7265511  10.6658411
  13.6124191  57.5409126  11.0043430  13.5652590  56.0386009  11.1827259
  81.7718430  55.6610336  52.9427757  81.3848572  54.8067245  52.7513847
  82.4364777  55.7803116  52.2643433   8.1764069  36.3432693  29.5782394
   7.8518329  35.5380135  29.1751938   9.0969658  36.3864212  29.3195114
  37.6570854  52.3961678  44.5423355  36.9612732  52.0554771  45.1044807
  38.1845932  52.9466553  45.1210670  24.2012272  65.2357178  62.7757683
  24.6364059  64.3836746  62.7462196  24.5066414  65.6324921  63.5915642
  62.7033806   3.9342966  36.2299004  63.0450897   4.6580596  36.7549057
  63.0076828   4.1184807  35.3412437  73.3908463  63.1848602  60.5484085
  74.2034225  62.7843666  60.2392731  72.7353745  62.9279785  59.8998756
   7.9878840  69.4011154  37.4239235   8.5116644  70.0454178  37.9001160
   7.9458523  69.7402878  36.5298119  63.9205742   3.4305589  14.4832525
  63.0395927   3.8033619  14.5167255  63.7902184   2.4941280  14.6327057
  31.1436214  14.5489178  77.1351929  31.1681805  14.3844690  76.1925507
  31.9949226  14.9395800  77.3324280  10.4760113  62.5213165  54.5582581
  11.4213638  62.3712387  54.5541267  10.1149025  61.7616882  55.0152092
  68.3829117  64.9060898  69.3351364  69.0109940  64.2051849  69.5096893
  68.5571060  65.1638489  68.4299088  71.1142578  64.4626694  23.2663860
  70.3375244  64.1278534  22.8182564  71.7606583  64.5796738  22.5701752
  18.4000206   1.5637364  86.6533279  18.4293709   2.1963296  87.3711014
  17.6106186   1.0487031  86.8201141  54.4791260  31.0991631   8.8230352
  54.8321724  30.5043659   8.1613655  54.2913971  30.5370178   9.5746870
  48.4268036   6.8901334  52.3665962  47.9479675   7.1680341  53.1474419
  49.3108521   7.2348881  52.4924164  22.6588516  67.5518188  30.8040142
  23.4362545  68.0400925  31.0750561  22.0136280  68.2266617  30.5930691
  34.5894585  43.3663483  20.0205021  35.2968521  43.7093773  20.5665398
  35.0113220  43.1528816  19.1882191  29.1654587  40.9453888   1.5212228
  28.2259674  41.1280251   1.5059232  29.2908173  40.2784119   0.8461984
  19.0437279  29.4023170  89.0943680  19.8338337  29.4762802  89.6296234
  18.9729576  28.4678078  88.8996506  43.2367973  53.7066307  74.5407257
  42.9620743  53.0656929  73.8850098  44.1668472  53.5260506  74.6772079
  35.6691170   8.4750414  73.8434372  35.1384392   7.9701915  73.2272110
  36.3795891   8.8324785  73.3107986  85.5141373  38.8255768  33.7763596
  85.2640686  38.5940933  32.8818703  85.4227371  38.0101357  34.2692413
  34.6548347  66.6516876  12.5008411  34.8043404  66.1728592  11.6856098
  34.6149063  65.9721985  13.1738424  11.9082918  46.1979713   5.1062026
  12.6370630  45.5806732   5.1699867  12.0363188  46.7965469   5.8421006
  82.8933945   7.9478297   2.1827114  82.4881744   7.1148047   2.4237521
  82.4359512   8.2148609   1.3854195   6.5737095  29.0272598  43.0582924
   6.8446469  29.9032269  42.7835045   5.7033381  28.9148598  42.6761284
  44.9257851  66.1093216  86.8539963  45.4059448  66.9033279  86.6189880
  44.5125275  65.8288040  86.0374451  19.4258499  54.1101913  13.0518427
  18.7454796  53.4974365  13.3308764  19.8297119  54.4072342  13.8672533
  73.9564362  44.9923515  55.6951981  73.6371994  45.6485405  55.0757332
  74.4510803  45.4947815  56.3425980  84.4423370   1.8809901  68.9423904
  85.0134201   2.6216791  68.7387390  83.8303604   2.2225683  69.5943375
  39.2798119  70.7630920  49.7356987  39.7417641  70.0077591  49.3719559
  39.4525795  71.4711151  49.1151466  28.9068069  27.0118446   9.0520229
  29.2279930  26.8899784   8.1585913  28.0422688  26.6009903   9.0538740
  63.8066673  29.9271374  50.1669235  63.9941101  29.0201988  50.4089165
  63.1592560  29.8588791  49.4651871  42.8541527   6.6644721  24.0253429
  42.8726730   7.6128135  24.1539421  43.7510986   6.3811579  24.2026882
  11.0847750  60.2357483  22.4498730  10.7858524  61.1447639  22.4737854
  10.8843451  59.9410019  21.5615139  17.2689762  51.4449043  29.6521282
  17.5501938  51.5445480  30.5616455  16.3187389  51.5562897  29.6816654
  22.5551014  47.8760185  86.6469879  22.1770477  48.3362007  87.3963470
  23.0738487  48.5410423  86.1943588   9.1809511  56.0002518  51.4218826
   8.9108601  56.5617218  50.6952248  10.1278534  55.9094582  51.3152733
  40.8642387  69.0412445  15.9370747  40.1181908  69.5536957  16.2485790
  41.4602394  69.0067215  16.6852894  76.4838486   4.4256949   5.4482074
  75.8201523   4.3221707   4.7662854  76.0130386   4.2680464   6.2665687
  27.7128410  19.6681423  81.2942810  27.4795914  19.0046730  80.6449509
  27.7637825  20.4836845  80.7957535  39.8415451  64.5644531  81.4939346
  39.2124062  64.3667374  82.1877136  39.9742622  65.5105362  81.5534592
  21.7054863  60.3064041  68.4753876  21.1019020  60.9458237  68.0971527
  22.3972740  60.2134323  67.8203888   0.0265674  41.9728470  23.6741180
  -0.0679388  41.2065735  24.2399120   0.9455029  41.9610558  23.4064407
  55.4126511  41.7358780  11.2721033  54.4977951  41.7945023  11.5474787
  55.4654274  40.9102516  10.7906609  47.4661980  61.7911797  38.1786079
  47.4326210  62.7177010  37.9405594  46.6027031  61.4519157  37.9430161
   7.3578715  25.7347336   4.5779572   6.4779282  25.8097420   4.2087607
   7.4072194  26.4389553   5.2243857  66.3862839  69.8258209  36.1866417
  66.3666763  70.7454681  35.9218826  67.0859070  69.4397430  35.6596642
  40.8111992  27.5077457  21.7674294  40.1088333  28.1580238  21.7603283
  41.5932274  28.0025311  22.0120792  44.2516899  71.5589218  78.3863220
  44.8852386  71.8427200  79.0453415  44.7875633  71.2201614  77.6691666
   2.6901953  19.0834980  40.6761742   2.8932166  18.5065517  41.4124794
   1.8524098  18.7615032  40.3435059  78.1594620  12.1646538  44.3393097
  77.7984924  12.8298073  43.7532196  77.5958939  12.1953478  45.1124077
  46.9747429  53.4180107  51.9314766  46.5540581  52.9872551  52.6755943
  46.3812599  53.2611237  51.1970406  39.0959053  63.6317558  76.6681442
  39.2039566  62.7653580  77.0604553  38.6970062  63.4603462  75.8150711
  54.1450920  57.1889954  20.3093300  54.7974701  56.7432060  19.7690430
  54.3767433  56.9534569  21.2077122  24.1354790  14.6174269  14.8486652
  23.2990799  14.9517212  15.1725750  23.9933109  14.4839363  13.9115419
  86.2937851  42.3967705  38.3430481  85.6107025  43.0146141  38.0824585
  85.8274078  41.7127151  38.8234634  67.7038422   5.7655120  82.7039337
  68.4273605   5.1671667  82.8903046  67.1028748   5.6512980  83.4401550
  18.1659775  52.3330002  19.1067886  17.9653835  53.2238159  19.3939209
  17.3121929  51.9454765  18.9141521  24.7841148  15.3961773  18.1184864
  24.2248058  15.8977156  18.7116699  25.2275772  16.0592880  17.5894718
  60.8349876  13.7853365  16.6023769  60.2183113  13.6383505  17.3195496
  61.1632996  14.6727810  16.7468929  62.6802254  49.2267952  10.9761124
  62.9921379  48.3998718  11.3437233  63.3273888  49.8733749  11.2577953
   1.4147652   7.9535694  16.9901390   0.8400922   7.2846184  17.3622780
   2.1021221   8.0706224  17.6459370  19.3618622   2.4694998   1.7684952
  19.8345852   1.6817062   1.4998931  19.0541096   2.8554616   0.9484015
  67.4199295   1.0540428  14.0664921  67.8732376   0.4136098  13.5182285
  68.1155319   1.4648237  14.5799370  24.2027130  22.4381809  81.1688995
  23.9251766  23.3498611  81.0792084  24.6583366  22.2448139  80.3496017
  18.1238327  66.6747284   5.5932689  17.1711445  66.7096329   5.5072684
  18.2897148  65.8787766   6.0984130  80.1812057  16.2125854  53.8446121
  79.6860733  15.3945875  53.8888283  80.0509949  16.5232353  52.9486351
   6.0159130  12.6386213  24.0849533   6.1227441  13.5783997  23.9378624
   5.4273758  12.5793600  24.8375111   4.1071849  40.9203796  35.7749023
   3.6393123  41.0718765  36.5961037   4.8698616  41.4967079  35.8239288
  78.8259659  57.8144417  10.1252489  78.0554962  58.3282394  10.3673630
  79.1134644  58.1912308   9.2936182  57.9741325  63.2283325  21.0414448
  57.2226219  63.8088417  21.1617432  58.2681618  63.3994522  20.1467381
  80.0726013  37.4286613  17.2299290  79.4018631  37.5444832  16.5569324
  79.7654953  37.9559479  17.9674129  70.9746857   2.9344549  37.0079041
  71.8241882   2.7377279  36.6131020  71.1494293   2.9668403  37.9484634
  78.6249619  54.2130890  26.9774590  78.3463898  53.3008080  26.8976479
  78.9044495  54.2993164  27.8888779  73.7653961  52.4266014  73.2263794
  73.3123322  51.5898705  73.3304749  74.2861786  52.5178757  74.0243073
  20.0959644  67.8298950  75.0896149  20.9983978  67.8868866  74.7756119
  20.1045876  68.2912521  75.9282455  71.7678452  35.9281769  17.8497868
  70.9892273  36.4849205  17.8454952  71.4896469  35.1307907  18.3003540
  61.2977829  30.6216679  60.4855003  61.4514732  29.7557526  60.8633957
  60.3786469  30.8072262  60.6778297  59.6577263  31.8754749  26.8009624
  60.2108650  31.2854824  27.3129978  59.6291962  31.4808693  25.9293537
  69.6918945   8.8148699  28.1015205  70.5559235   9.0218792  27.7453880
  69.6927338   9.2064867  28.9749432  60.2384567  21.8109093   6.9302201
  59.3150368  21.8621521   7.1770082  60.3797607  22.5750275   6.3713036
   3.3759880  14.1634989  32.5635223   2.6807806  14.7724056  32.8128242
   4.1768098  14.6865892  32.5994759  59.6687126  70.8135986  82.0327530
  59.2201004  70.1265182  81.5399170  59.1380844  70.9282455  82.8211212
  26.9483318  60.2060432  37.3955078  27.3783207  60.8680267  36.8540993
  27.6687145  59.7159729  37.7918816  19.0157261  37.2482643  65.3637085
  18.1001511  37.4475517  65.1681519  19.0455093  36.2933998  65.4235382
  80.3834381  38.6153679  30.1767750  80.1819000  38.3753738  31.0812168
  80.2928696  39.5680466  30.1559010  59.7880821   1.4404352  59.2996750
  59.6127129   2.3279436  58.9869347  59.7284012   1.5061684  60.2527466
  65.9225845  66.0793152  33.3072929  65.3660126  66.7169342  33.7543945
  66.7743301  66.1626053  33.7360344  72.8400345  40.1381645  15.7196894
  72.8630219  40.4324112  14.8091288  72.8468628  40.9462128  16.2327614
  80.6483765  27.0926456  69.7128830  79.9345322  26.7215366  69.1942902
  80.6198959  28.0304108  69.5230942   9.9706640   4.7769694   0.3984197
   9.5612707   3.9405937   0.1768235   9.9949408   4.7856817   1.3552721
  62.8749733  45.1302948   7.1142969  62.4378586  45.6686783   7.7740741
  62.3231125  44.3521042   7.0362086  78.4887009  10.3376341  23.9372139
  78.8253860   9.4742680  23.6974735  77.5915604  10.1727533  24.2273750
  81.0700684   3.7334440  52.0858459  80.9546890   3.6563442  53.0329323
  80.7008209   4.5893865  51.8684731  45.8487663  52.9763412  16.9023590
  45.8806381  52.0332947  16.7414856  46.7135735  53.2931519  16.6416512
  35.3415680  34.0942802  19.4935589  35.5076141  34.7166977  18.7855625
  34.4806824  33.7271614  19.2927303  58.6322937  31.1001415  60.5795670
  58.2210274  31.8375034  61.0305595  57.9432487  30.7504311  60.0146370
  13.5577774   6.4867668  26.7749138  12.7021618   6.0635681  26.8460274
  14.1863909   5.7880383  26.9561729  53.2825813  29.1312675  43.0853195
  53.6040459  30.0327110  43.1024590  53.9626846  28.6259403  43.5306702
  35.5787888   8.9945116  69.1153946  36.2777252   8.8630753  68.4747314
  34.9165688   9.5023794  68.6465912  80.9426651   3.4998624  88.5670853
  81.3238525   2.8257260  88.0045242  79.9971924   3.3855312  88.4709702
  61.8555870  29.3219128  65.4497223  61.7471848  30.0563583  64.8455124
  61.9989395  29.7324371  66.3024521  51.5272751  13.4615335  24.5804710
  52.4672508  13.6212368  24.6651726  51.1198349  14.1355972  25.1244049
  53.7709007  10.9890776  88.3179245  54.6978035  10.9465847  88.5530396
  53.5419807  10.0898886  88.0828018  23.0239506  37.1938858  81.0009003
  22.4967594  36.9350548  80.2450485  23.5870380  36.4385567  81.1701279
  83.0742493  70.1484070  27.0044479  82.3074036  70.6704407  27.2403679
  82.8948898  69.8484955  26.1133137   2.3056273  27.5140896  18.5024662
   2.4324110  28.2093563  19.1480370   2.6110921  27.8936710  17.6785469
  30.9588413  36.5150871  69.8840866  31.6776409  36.7117958  70.4848099
  30.9100647  37.2797737  69.3104095  42.5331573  43.6129150  50.1043968
  41.8394775  43.0470009  50.4431915  42.2123985  43.8992119  49.2491875
   7.2638364  36.4579849  84.8939438   7.0236712  36.5722961  85.8134460
   8.0295296  35.8839989  84.9159622  19.1303825  68.3642120  63.5441246
  18.6075706  68.8896561  62.9384804  18.5067139  67.7455597  63.9243050
  73.1844482  56.6221085  28.4058399  72.2533875  56.4475250  28.2684631
  73.5990372  56.3746414  27.5793381  13.8549614  62.5607376  67.6405182
  14.8049126  62.6692467  67.6857986  13.6163502  62.1835098  68.4872742
  56.4205399  12.4169798  47.3184891  57.1345711  12.5464458  47.9426880
  56.6846161  11.6516380  46.8078575  11.3796062  29.3901100  17.8082561
  11.5623064  28.5610371  17.3661137  12.1497488  29.9304562  17.6317959
  67.9644470  54.2168388  36.1058044  68.6675568  54.8033676  36.3848228
  67.3857040  54.7695541  35.5806389  61.0549355  62.0951843  46.9028168
  61.6174011  61.7589607  46.2050896  60.3284798  61.4733467  46.9454269
   3.6733227  42.4611626   8.8461790   3.2795229  43.2806931   9.1453781
   3.6512828  41.8904037   9.6142807  74.0485764   8.3555079  54.9768829
  74.8998795   8.0029221  54.7176590  73.4650040   7.5967755  54.9768105
  65.8250275  60.1762352  46.2877922  65.6975021  60.6445656  47.1127968
  66.6994400  59.7939682  46.3620644  10.0038643  36.0314713  60.4392014
   9.2150106  36.0630150  60.9804459  10.7086706  36.3034248  61.0270119
  48.3103905  18.4632339   5.4216986  47.8494568  17.8533878   5.9977732
  47.6926079  19.1825981   5.2909641  54.5024261  65.6846466   1.0011848
  53.7561417  66.0371475   1.4859912  54.3253250  64.7460938   0.9380915
  42.5483055  68.7104187  10.9256039  42.1718826  67.9191971  10.5402384
  41.8576050  69.3681641  10.8447247  26.9474335   8.5934858  88.3715439
  26.0874481   8.6571112  88.7870102  26.8430939   7.9113297  87.7082138
  70.4395981   3.8057828  32.8892899  70.5170441   4.6435394  33.3457985
  70.1885681   3.1834028  33.5718269  12.4589291  51.2966690  80.4263840
  12.1610270  51.0538864  81.3030472  11.7224131  51.0801620  79.8546295
  10.5996790  59.1644821  87.7818832  10.2069321  59.6503716  87.0567017
   9.9815092  58.4550743  87.9574966  13.8076029  24.6575432  84.3913956
  14.0010309  25.5353966  84.0624695  14.6335278  24.3562336  84.7699356
  51.3830070  39.9249878  48.4832115  51.5090485  39.6249542  47.5830307
  50.4744644  40.2250328  48.5106812  40.7056732   1.9356649  24.0415154
  40.3493881   1.0473324  24.0289688  41.6174011   1.8319229  23.7690830
  75.0202484  54.6487503  44.5646858  75.1465378  54.7390976  43.6201668
  75.1512756  53.7161140  44.7357216   2.3170397  64.5258865  56.5548859
   2.1870341  64.5352173  55.6066017   1.5086265  64.8944092  56.9111061
  34.1596527  46.1626167  21.7537575  34.5281296  46.9921761  21.4499741
  33.5998421  45.8713493  21.0340309  50.6365433   1.6670761  64.5555801
  50.0291862   1.5194334  65.2805252  50.1409035   1.4220902  63.7742004
  38.0510178  59.0597305  55.5908318  37.2410889  58.6387405  55.3027153
  38.2873192  58.5988083  56.3957825  20.8752899  58.4946175  55.3382759
  21.7904816  58.7692413  55.3951912  20.8570004  57.6339989  55.7568817
   9.2819729   0.8301412  69.9126892  10.2100048   0.8433828  69.6785736
   9.2752781   0.6696929  70.8563232  45.7219467  14.9255610  43.5735893
  46.6138573  15.0760603  43.8867607  45.7518005  14.0561199  43.1743240
  61.9005203  20.6357174  63.0299454  61.5399399  20.1840134  62.2669373
  62.8282433  20.7504883  62.8240471  64.9812927  58.1150589  75.7038879
  64.3789673  57.4036903  75.4862061  64.4358139  58.7625694  76.1504440
  14.9359961  45.3130951  56.3947945  15.1283188  45.0038795  57.2800217
  14.0567856  44.9821548  56.2112236  56.1483650  31.4319916  17.7881260
  57.0635529  31.6599083  17.6246586  56.1580505  30.4845028  17.9237843
  59.5977745  14.4511833  46.0257492  59.7364235  15.3415852  46.3485374
  59.8081055  13.8902969  46.7723427  55.9258347  65.0120316  79.1334000
  55.1203918  64.5003815  79.2089462  55.8677101  65.4243546  78.2715149
  73.8835526  55.7920990  52.4072914  73.4882355  55.8503990  51.5374870
  74.1900177  54.8875198  52.4709511  30.8163815  33.1417007  83.9163437
  31.6183434  33.4536057  84.3356400  30.6236801  32.3128738  84.3546829
  83.9378281   7.2922006  72.3917160  84.1387939   8.1528940  72.0242233
  83.4325104   6.8520026  71.7082596  19.1768188  53.2728767  67.6220474
  19.2396774  53.9837875  68.2599258  18.2886848  53.3430023  67.2720032
  72.3784103  60.0528488  86.9648590  73.1127090  60.1143074  87.5758057
  71.6053009  59.9871788  87.5254135  68.4793396  61.2155190  85.2283936
  68.1854477  62.1262436  85.2072678  69.0731354  61.1727867  85.9779358
   3.7930450  23.1110630  59.5630264   3.8050206  24.0679035  59.5397148
   3.7927005  22.8490334  58.6423912  41.9279099  65.2974014  11.5878744
  41.5928383  64.4037857  11.5142727  42.4989128  65.4025345  10.8268671
  73.6874847  36.0708733   1.4616889  73.5922470  35.1478119   1.2269145
  73.8939056  36.0602303   2.3963056  87.0298920  20.3847237  17.1847267
  86.7951279  21.2157936  17.5975685  86.4720383  19.7371902  17.6156921
   0.4954249  64.2704086  30.1921387   0.9684295  64.8141785  29.5622120
   0.2412809  63.4932861  29.6944160  44.9255905  48.4440193  49.7698364
  44.5796852  47.6278687  50.1310577  44.5765152  48.4786949  48.8792305
  33.4676666  13.2376108  84.1486511  33.1957359  12.8981409  85.0013199
  33.4720154  12.4707270  83.5758438  12.2894478   5.4016576  75.1682434
  12.0715189   5.9604406  74.4222565  11.6746187   4.6705413  75.1075439
  58.4232292  15.8275871  19.3651409  58.8136559  15.0604620  19.7838516
  57.6756859  15.4803543  18.8784790  14.9191008  35.6222687  77.8960495
  15.3107557  36.4614410  77.6539078  15.3116035  35.4102478  78.7429352
  44.7088394  34.5414810  69.3467178  45.2101822  34.5486946  68.5313416
  43.8194122  34.3102570  69.0789642  45.9562187  62.0998917  81.1042633
  46.5702019  61.3702164  81.1869125  46.2826347  62.6043472  80.3591385
  11.8968048  59.4363098  68.0726700  12.5178185  58.8160629  67.6907425
  12.4341297  60.1855507  68.3298721  14.8437605  51.0670853  85.2788010
  14.5028896  50.3645706  84.7251663  14.0734444  51.5875397  85.5067673
  55.9521141  44.4731483   2.4854770  56.4154930  45.1766090   2.9400649
  55.9433327  44.7459106   1.5680051  76.7655029  41.3363380  12.0119648
  77.6485901  41.6697426  12.1708241  76.3754272  41.9692001  11.4090061
  19.8615208  31.7498569  65.4824982  20.6759605  31.2963905  65.2650452
  19.4792595  31.2298813  66.1894226  25.8732338   5.8307967  86.8224792
  25.6549454   4.9155192  86.9981232  26.8272152   5.8387885  86.7444611
  60.5881424  54.5064812  50.6515236  59.6730919  54.6999969  50.8551598
  61.0309982  54.5230293  51.4999542  58.1286774  32.5550346  57.6695290
  58.7523193  32.2298355  57.0202637  57.6460381  31.7770061  57.9487419
  76.8643265  36.0610275  49.2001648  77.6681519  35.7552910  48.7798996
  76.3499146  35.2660294  49.3401337  50.4252129  35.1698494  29.3053837
  49.9747620  35.4403458  28.5052872  50.4131393  34.2131958  29.2752953
  43.1600533  16.6742439  16.8155384  44.0837860  16.7310390  16.5711498
  43.1476822  16.8701305  17.7523994  13.9325361  17.0131226  61.5556488
  13.1457653  16.5051289  61.3577461  13.8145580  17.8336201  61.0770073
  67.1632385   3.3395748  10.8348398  66.4200974   3.0322013  11.3539648
  67.7221222   3.7961874  11.4636354   9.6633997   8.8547459  25.3423843
   9.5303288   8.3431692  24.5443802  10.6129818   8.8692427  25.4620361
  23.0669422  70.7626190  77.8348770  23.8516102  71.0836487  77.3905029
  22.3702221  71.3522339  77.5464935  14.6364632  20.0224762   9.6488457
  14.5912886  19.8101616  10.5811081  15.4787245  19.6686268   9.3631544
  34.2396202  23.5360718  66.6914749  34.2359581  24.4907093  66.6215744
  34.0149002  23.2307034  65.8125610   2.0402620  66.4125443  24.8047581
   2.4403191  67.1510315  25.2639179   2.4008551  66.4573593  23.9192085
  56.9675026  43.5551529  69.2969666  57.5682755  42.9871368  69.7793121
  57.5340118  44.0698700  68.7221909   2.4627755  27.3580761   5.9897990
   1.8820040  27.8806553   5.4367652   1.8788440  26.7496414   6.4426394
  19.2157669  52.7538872  45.3350372  19.2002411  52.1734810  46.0960388
  19.5577240  52.2096939  44.6257057  64.3206940   3.7531917  19.5555916
  64.2983627   4.3978958  20.2627621  64.7219467   4.2173624  18.8208981
  75.5320358  22.4899101  87.0960693  75.3666458  21.6015511  86.7803268
  75.4065628  22.4346313  88.0434036  76.4975281  17.3885422  70.8935394
  77.1479645  17.9639473  71.2961121  76.0357590  16.9943542  71.6335526
   3.4102082   0.8910405  83.5402298   2.7425575   0.3882671  83.0736542
   4.0621209   1.1016891  82.8717422  24.2195663  30.8807945  84.8088074
  24.5496597  29.9945717  84.9567261  23.5412807  30.9978733  85.4739761
  17.3307228  46.9591980  62.0427475  16.6604137  46.3704109  62.3895111
  17.8345432  47.2275314  62.8111191  54.7622833  48.2607841   8.7285042
  54.7531738  47.3249931   8.9296093  54.3086510  48.6687050   9.4661055
  53.8705139  42.5981064   3.4462950  54.0056000  41.7357330   3.0534914
  54.4176559  43.1865845   2.9261425  37.2152138  22.5869141  87.4277496
  37.9650421  23.1811523  87.4571915  36.4527664  23.1588020  87.5163498
  78.4459991  57.2654076  60.3239594  77.5914459  56.8585091  60.4668274
  78.2959747  57.8969002  59.6204414  57.9629631  59.8821106  43.6435432
  57.1926613  60.3269958  43.2900658  58.7052193  60.3264809  43.2338791
   5.0264196  61.5531578  48.9380722   5.9266005  61.2280884  48.9533691
   5.0305958  62.2982635  49.5389328   0.7664719  31.3573608   5.4554944
   0.1189878  31.2202034   4.7639856   0.6103342  30.6442814   6.0746636
  85.9890976  62.9042282  53.6574631  85.2918243  63.4468231  54.0257378
  85.7887039  62.0186005  53.9603500  28.8848228  26.9142265  88.0908966
  29.3752441  26.3682861  88.7054443  28.2289772  26.3251686  87.7179184
  51.1257629  28.3104992  76.6549911  51.8853531  28.1253529  77.2072372
  50.3800583  27.9764004  77.1535263  58.0265045  31.6841106   8.7214289
  58.1668549  32.1688538   7.9080682  57.7745552  32.3527756   9.3583298
  77.4037552  14.1622353  42.5405769  77.0586014  14.9211855  43.0107841
  76.8895416  14.1260042  41.7340355  11.0037174  57.2880020   6.1467619
  11.1747026  56.4925041   5.6426010  11.8149624  57.7918587   6.0816169
  20.4858646  67.3166428  86.6747894  20.9097500  66.9764862  87.4627228
  21.2101231  67.5319138  86.0871277  18.4889469   0.1301185   9.2555962
  18.7851868   0.5059220   8.4265928  17.7151451  -0.3830674   9.0229940
  78.7162399  25.6743412  73.4764481  78.5646133  26.1692982  72.6713028
  78.6717682  26.3298607  74.1725464   4.4683614  13.5540180  11.6317034
   4.6344600  14.4394913  11.9550915   3.9784648  13.1297340  12.3361292
  16.1043396  56.8941345   7.7586946  15.2999363  57.1726456   7.3209748
  15.8201971  56.6214485   8.6311255  43.0458336   4.8831172  65.7065277
  42.9499664   4.3358083  66.4859467  42.8236160   5.7652106  66.0044556
  12.6369743  64.2859116  88.0201569  12.7827177  64.3779373  87.0786057
  12.5448370  63.3430710  88.1572342  74.9025345   8.1851711  85.5413208
  74.4077911   7.4811654  85.1219864  74.9784851   7.9127555  86.4557877
  -0.0752701  70.8432846  56.7336655  -0.0971486  71.7875824  56.5785980
   0.7474296  70.5546799  56.3385620  42.2242851  50.9037514  80.3490372
  41.4898720  50.6056480  79.8123703  41.8249359  51.4739723  81.0059967
  25.3769550  69.1142044  35.2005157  25.0263348  68.6923981  35.9849777
  26.2595291  69.3881378  35.4500275  65.6276550  27.4752502  20.1942673
  64.7524796  27.3479614  20.5604610  66.1322327  26.7273865  20.5141602
  35.0161362   6.9090557  16.7410278  35.6561241   6.3174310  16.3452644
  34.3473854   7.0246863  16.0660229  58.0390816  33.1008453   6.3477502
  57.2735901  32.7042122   5.9318900  58.7792091  32.8077278   5.8162231
  85.6854095  52.4253426  83.9540482  85.5470276  51.4862556  84.0773239
  85.2042923  52.6352959  83.1536179   9.9433832  38.5355873  53.2147865
  10.0703526  38.4604950  54.1605530   9.6192713  39.4270859  53.0866776
  51.3090134  13.1497927  36.8038826  50.4840622  13.6319952  36.8601341
  51.3011360  12.5718613  37.5668793  65.6247635  51.3356018  29.0887566
  66.5552750  51.4887733  29.2528286  65.2754974  51.0546722  29.9345226
  83.6574402   0.8543721   1.1069084  83.3939743   0.6345496   2.0004950
  82.8369598   0.8791164   0.6145256  86.7598267  64.5622025  16.1699734
  87.3500595  63.9688644  16.6345196  86.3778229  65.1072083  16.8579197
  74.2200851  33.7252579  27.9907646  73.5599518  33.1917381  28.4332657
  73.7603455  34.1011848  27.2400646  60.7725029  59.8015137  66.6623077
  61.4188194  60.4983139  66.7762222  61.2679520  58.9923019  66.7885513
  51.5815964  41.2349892  55.1946297  51.1469498  41.9200821  54.6867332
  50.8782120  40.8306465  55.7025566  62.4447937  10.8694544  24.0228100
  63.2058716  11.3214960  24.3870182  61.8181839  10.8349428  24.7455845
   0.4462075  41.8047943  72.9175415   0.9300016  42.2803230  72.2422256
   0.7540045  42.1807404  73.7422562  10.4051085  21.6585903  56.4959908
   9.6558828  21.5750980  55.9061394  10.2343855  22.4618244  56.9878235
  26.0202312  53.5141182  32.2822838  26.6684589  52.9178810  31.9074059
  26.5237732  54.2887650  32.5324898  68.6716156  13.9405766  33.6010017
  68.4836502  14.0338058  32.6670799  68.0901260  14.5707436  34.0264244
  23.4199867  43.4953880   6.9071937  23.3964748  43.7226677   7.8367224
  22.8360863  42.7408180   6.8302822   7.0879464  58.5592690  39.8948326
   7.0314169  57.9742661  40.6503487   7.8792262  59.0750580  40.0499687
  14.2451744  18.7315521  56.6181564  13.4716845  18.9199829  57.1496086
  13.9573755  18.8758755  55.7167282  45.2780533  20.1091995  46.2795486
  45.2425766  19.1879349  46.0221710  45.9841423  20.4789467  45.7494926
  59.9533310  13.1448669  76.5622482  59.3795815  12.5911827  76.0326385
  60.8386192  12.8720217  76.3213043  36.3716354  56.1764259  67.6025314
  35.7665863  56.3834076  66.8902817  35.8820419  56.3799591  68.3994675
  25.0724792  45.9403114  10.4816933  24.9990139  46.4067497   9.6490669
  25.3978367  46.5977478  11.0966330   3.2993069  43.5921555   1.2660276
   3.3796635  44.0387993   2.1088114   3.3333578  44.2957153   0.6178940
   5.4860330  15.6386290  16.6901646   4.5332832  15.6275082  16.5986423
   5.7207561  14.7267885  16.8624573  37.9804306  36.3986320  64.3769836
  37.2657738  36.6668129  64.9545441  38.1829109  35.5027771  64.6465607
  67.2426453  64.2110443  38.8446159  67.7400131  64.7531357  39.4569855
  66.8373871  64.8374176  38.2448997  17.4313354  57.8216743  60.4419937
  17.1282845  56.9487000  60.6916199  18.3858833  57.7654037  60.4856339
  60.1667061  64.4996643  60.3188477  60.2035561  63.8919830  59.5802002
  59.6711464  64.0307693  60.9902573  39.5696793   4.9239359  39.2732124
  39.3408318   5.0647750  40.1919212  40.4803963   4.6301126  39.2955666
  16.4995193  63.8440628  79.6157455  15.7130718  63.3116493  79.4963074
  17.1429920  63.4574013  79.0218887  63.1584206  15.3394585  54.5149384
  62.8294220  15.5094099  53.6322670  62.3773270  15.1230574  55.0241470
  25.4730663  52.7230225  69.3550339  25.7831764  52.3517723  68.5290604
  24.5834980  53.0208359  69.1647568  39.1753044  69.9964218  60.2015648
  39.3895416  69.2633057  59.6246071  39.3965225  69.6834869  61.0787010
  60.7314644  17.3616238  85.8924179  61.3956642  17.7072926  85.2961121
  60.7252808  17.9761848  86.6262512  76.1418457   9.2936859  59.1761551
  76.2856827  10.2052517  59.4303017  76.4576340   8.7842760  59.9224854
  33.6054077  46.4138756   3.4869089  34.3191299  47.0023766   3.2409377
  32.8602982  46.9937553   3.6443305  12.1294928  16.1310387  17.9699078
  13.0531483  16.3429165  17.8349972  11.6611109  16.9232025  17.7066097
  59.5937119  61.9294930  22.9347687  60.2040405  61.6819687  22.2401752
  58.9286079  62.4569626  22.4924488  29.0481205  51.1686630  58.8630562
  28.8151703  51.2715187  59.7857628  28.3169117  50.6806259  58.4843903
  42.7615433  30.5769939  83.5052643  43.3797989  30.7215271  84.2215805
  42.5788460  31.4532452  83.1660919  44.1475945  30.2794476  14.1982317
  44.7397308  29.6776104  14.6492262  44.3238983  31.1319981  14.5961065
  43.0069885  54.2939644  54.8715096  42.7256699  55.1597099  55.1674385
  42.3091202  53.7045898  55.1576042  67.6967850  68.4031219   1.7451758
  67.8377762  69.3267441   1.9532176  68.1189651  67.9290848   2.4616117
  84.6122894  26.0503464  71.3975449  84.3850708  26.8699379  71.8367233
  85.5592041  25.9712830  71.5129776  21.7408180  42.7925415  26.0185432
  21.7001228  42.3783455  25.1565590  20.9872055  42.4380798  26.4904137
  32.0322685  65.6536942  60.3754463  32.8562775  65.4781647  59.9211006
  31.7111053  64.7891312  60.6315842  49.8936806  47.8591614  85.4162903
  49.3343048  47.1462746  85.1078720  50.1670380  48.3115234  84.6182404
  44.9489136  12.2015743   8.2076502  44.5995522  11.9845381   7.3433166
  45.2441254  11.3636513   8.5639753  82.8567734  41.4463120  79.3408432
  83.3266830  41.8678627  78.6213226  81.9601440  41.7727394  79.2651443
  25.8530445  56.3912201   4.1429448  26.1341782  55.5006866   4.3530593
  25.6708927  56.7917290   4.9930301  55.2256851   8.7281265  84.9595947
  55.6132736   9.3751011  85.5490265  55.9743004   8.2490072  84.6042709
  52.5227928  42.0625496   7.3462906  52.7002678  41.2038574   7.7302003
  53.3795204  42.4872513   7.3030009  66.6118927  24.3751888  68.5228958
  66.9922562  25.2530174  68.5540619  66.4619675  24.1464176  69.4401855
  14.3041353  60.5888710  82.2416992  14.4882212  60.2073326  81.3833389
  14.0200024  59.8480644  82.7771454  68.3770599  41.9733047  19.3297806
  67.8158569  42.5618248  19.8346844  68.6267166  42.4830627  18.5590324
   9.8128624  43.2490883  51.0953560   9.9136343  42.6468620  50.3582001
   9.0236073  43.7499352  50.8893013  69.6810684  65.2278824  29.9945984
  69.7814865  66.1438522  29.7354660  68.8035126  65.1811371  30.3739948
  18.7941895  70.3716431  76.3168030  19.3502808  69.9441757  76.9681625
  18.7912254  71.2940063  76.5726852  64.2160873  61.9557838  41.6121483
  64.4791794  61.6728020  42.4878960  64.6589127  61.3472443  41.0206909
  71.0593796  44.2571487  46.3070755  70.8460159  43.3834648  45.9793777
  71.0680237  44.1602745  47.2593231  48.0857010   8.7785034  37.6666374
  47.8112335   9.3426390  38.3895836  47.4749489   8.9825544  36.9584160
  14.9419069  61.5800438  52.6958618  15.4708118  60.8411064  52.3950920
  15.5482340  62.3206635  52.7047653  34.3080902  51.2488976  46.0569267
  34.7544594  50.5777740  46.5732422  34.9535484  51.5164871  45.4026985
  53.0918999  47.1281357  83.0731812  53.0800285  48.0057144  82.6911545
  53.2293434  47.2760658  84.0088425  22.0564651  45.9444504   2.6786313
  22.3098373  45.5062981   3.4910691  22.0886707  45.2555351   2.0148613
  62.6227722  60.1745224  83.5834351  62.1634064  60.6862450  82.9175873
  63.3739738  60.7160454  83.8256760  40.3207626  46.9027328  36.1484566
  40.4380989  45.9757004  36.3560104  41.2096138  47.2336159  36.0192680
  35.7681007  19.9619999  75.6992493  36.2331276  20.0603409  76.5300980
  35.4404259  20.8396568  75.5028381  36.7668343  48.1769562  38.4477539
  37.5886993  48.4884186  38.8269157  36.9315338  48.1538124  37.5051155
   8.9485016  46.9628525  78.6905746   9.3991852  46.1194725  78.7332993
   8.9766521  47.2951813  79.5877914   8.0542908  60.1853409  32.5997238
   7.1254802  60.3700371  32.4603310   8.1162939  59.2307320  32.5664444
  67.9611664  18.4644814  18.7858849  67.4535675  17.6530304  18.7968998
  68.1029129  18.6457272  17.8567505   2.2751596  54.2809143  76.7723770
   1.4136478  53.8801994  76.8883820   2.2460706  55.0715485  77.3111572
  41.7165451  67.3764572  35.2929802  42.0083199  66.4921036  35.0715904
  42.0533791  67.9243088  34.5840149  26.2681026  57.8969536  43.1181221
  26.4066906  58.1251450  44.0373344  26.0315838  56.9695816  43.1345863
   5.4625163  26.5020885  80.0949478   6.2754960  25.9993458  80.1454010
   4.7712960  25.8399467  80.0910110  23.7864151  52.4712906  51.6288109
  23.8648777  52.7707520  50.7230530  23.0518322  52.9718895  51.9838028
  56.7109795  62.0568047  79.9513016  56.0088120  62.3729477  80.5198517
  57.4975090  62.4955864  80.2754593  84.2252274  15.5729141  25.7706718
  84.0251541  15.4146891  26.6932602  85.1140442  15.2362299  25.6571808
  21.8275394  58.3486557   6.5107455  21.9492779  59.0305634   5.8501287
  21.8837662  57.5280800   6.0211267  50.1375771  31.3722267   0.9944733
  49.6318359  30.8520012   1.6188337  50.1578598  30.8392601   0.1996353
  30.9866753  54.9955330  28.5144958  30.4719849  55.6156502  27.9979858
  30.5853481  55.0163345  29.3832493   9.7575483  18.0380421  59.2629585
   9.3596191  18.2301979  58.4138641   9.1442680  18.4003525  59.9023705
   2.0534556  34.9192581  41.3055344   2.7877846  35.4685059  41.0310898
   1.2790468  35.3669815  40.9648438  39.0915298  47.3844795  32.3145790
  38.6431389  48.2104111  32.1328888  38.4524803  46.8679771  32.8055725
  47.8871574  46.2284622   8.7489367  48.8365250  46.3473663   8.7771244
  47.6536942  45.9541435   9.6357718  71.1976700  23.1125793  43.5002098
  70.6014862  22.4962177  43.9255295  70.6286621  23.6651516  42.9643631
  34.5036697  59.4668694  40.7749863  33.6501846  59.7697067  40.4650116
  34.4535675  58.5125542  40.7202187  35.1189384  60.9481735  54.2790985
  35.4572639  60.3955383  53.5745697  34.6435242  61.6462402  53.8286400
  40.6166115  50.2925911  28.7698898  41.3714409  50.4604683  29.3340530
  39.8626328  50.5721092  29.2891350  39.5494308  54.8338776  74.3442535
  40.0354958  54.4556618  75.0770111  38.6296616  54.6930809  74.5688248
  29.8305607   5.6961398   5.8934879  28.9801731   5.5676818   6.3136926
  30.0866146   4.8221345   5.5988984  13.9318810  27.1748314  83.6125793
  13.2484941  27.6000729  84.1306381  14.2244177  27.8507080  83.0011520
  33.9148293  71.0271530  82.7451859  34.2051163  71.8984604  82.4754028
  33.0501137  70.9287262  82.3466797  47.0903511   8.5176353  31.6167088
  46.8051300   9.4308338  31.6475201  46.2898445   8.0118370  31.7566662
   5.2181726  62.1495438  24.6780300   5.8078084  61.9355965  23.9549904
   5.6999660  62.7931099  25.1975784  47.2943611  63.0370903  84.7717133
  47.4487381  63.6214027  85.5139923  46.3536301  63.1021156  84.6073151
  39.6377831   5.5110216  46.5526009  39.8263626   5.6753063  45.6286507
  40.2996292   6.0155373  47.0255203  78.2311325  38.0070267  71.1488266
  77.5907974  37.5685158  70.5885544  79.0139542  38.0836639  70.6033478
  51.1663094  52.8196220  53.3343544  52.1045227  52.6649094  53.2245789
  50.8161697  52.8102074  52.4435463  84.5614777  71.3626556  86.7774658
  85.0127182  71.5392151  87.6029587  85.1404953  71.7234573  86.1060638
   2.7251205  71.0189743  60.0894814   3.0304892  71.4503860  59.2914429
   2.8901134  71.6562347  60.7843971  28.2556248  30.2334976   6.3933492
  28.2481689  29.8601589   7.2747087  29.0675812  30.7388935   6.3541803
  27.6951294  60.4749565  46.9591560  27.8275204  60.7402153  46.0490227
  28.4742641  59.9625397  47.1750488  59.1634865   9.3796806  22.2998524
  59.7737007   9.0034103  22.9341145  59.4098015   8.9812937  21.4650764
  13.1120930  45.5367432  82.9276047  12.7226181  44.7330017  82.5832977
  12.4729128  45.8596306  83.5627594  48.7753220  45.6120682  75.2967453
  49.0777016  46.4840393  75.0428391  48.1925583  45.3443222  74.5861664
  42.2270470  34.3459816  68.2256470  42.0333328  33.4097672  68.2726746
  41.3752785  34.7719383  68.3220062  62.6607399   8.6238832  70.4133301
  63.2468948   9.0010424  71.0693817  61.7917633   8.9429750  70.6568298
  38.1048546  71.1697388  67.6464005  38.6962318  71.7473297  68.1289902
  38.5583763  70.3270874  67.6241074  15.6258535  14.5510883  58.0405045
  15.7102365  15.4993935  58.1396446  15.4111481  14.4250603  57.1162491
   2.7718868  67.1693878  86.4240265   3.6158252  66.7177582  86.4292068
   2.9892778  68.0852356  86.5978241  49.4390221  53.4182625  55.4071655
  48.9343300  54.1618156  55.0775490  50.0528717  53.2138672  54.7017250
  18.5770302  47.6690063  86.5149765  17.8721828  47.9666252  85.9397888
  18.6906815  48.3821297  87.1432800  18.0275650  15.2553234  79.6193848
  18.3400421  15.8873367  80.2667999  17.5266304  15.7799864  78.9948654
  58.7255669  13.3857422  49.2259674  59.4704933  12.7866096  49.1774254
  58.7891045  13.7767982  50.0973282   6.9398599  68.7553940  10.5404091
   7.8439183  69.0557785  10.6335783   6.5365243  68.9432068  11.3879223
  14.7998362  18.2620296  53.3060417  14.3339195  17.4410324  53.4645233
  14.1100216  18.8931503  53.1009216  69.5872421  42.2375488  12.9898214
  70.4801483  41.8960533  12.9415112  69.0340958  41.4983368  12.7371759
  72.2447128  27.1948013  56.7054138  71.9877625  27.4828949  57.5813217
  73.1842728  27.3722515  56.6609306  67.8774490   5.9044967  67.8277130
  67.1282806   5.4680991  68.2333374  67.7725677   6.8268576  68.0611267
  60.0766411  61.0356941  34.1676254  60.0644951  60.5411491  34.9870834
  59.5643806  60.5033531  33.5589943  80.6803436  22.1876278  14.2426910
  80.0962372  22.7770252  13.7655516  81.5195770  22.2626781  13.7885075
  16.9838848  70.0927124  21.0004616  16.3362236  70.4387589  21.6144810
  16.9863014  70.7190552  20.2766418  13.8446894  47.6467628  31.5980244
  14.0586071  48.3129807  32.2511902  13.1396017  47.1373672  31.9975204
  52.4142151  68.9816589  59.6257782  52.0854721  68.1424789  59.3033943
  51.7269859  69.6096268  59.4030533  47.3262405  66.4956665  66.5141296
  47.3150826  66.4088364  65.5609436  46.5365028  66.9965363  66.7182693
  52.7882690  55.3149338  82.5466690  52.3223686  54.5872879  82.9586182
  52.5092697  56.0871735  83.0386353  26.6890793  38.3507423  21.0599632
  26.9653683  39.2437019  21.2661629  27.2262115  37.7969666  21.6265793
  62.6654167   8.0091095  73.5384140  61.7212296   8.1108294  73.6583939
  62.9863625   8.8999090  73.3980560  29.4438648   5.2975497  13.1213188
  28.6318874   5.7973599  13.0369682  29.6215229   4.9781685  12.2366352
  81.0454559  49.7678375  39.8115540  80.0960236  49.6465721  39.8222313
  81.1721725  50.6869926  40.0467682   9.9645004  26.2367783  74.5280685
  10.3110218  25.4738865  74.0653000   9.8900270  26.9123287  73.8540344
  70.7945786  71.1121063  16.1826363  71.0414429  70.3553848  16.7142906
  69.9917603  70.8405609  15.7376842  66.5176620   4.9040055  31.4204102
  66.4933929   4.0422707  31.8364105  67.4437561   5.0512338  31.2283058
  26.0674706  32.2788048  57.6492424  25.4742203  32.5080757  56.9338951
  26.6361790  33.0430107  57.7430191  67.0952911  62.2779236  15.8521776
  66.1862717  62.2136765  16.1450710  67.4071350  63.1053276  16.2187653
   4.6450167  69.9507217  48.9923592   4.5154300  69.3303375  49.7096901
   4.7040067  70.8042526  49.4215927  26.7996349  67.9859161  10.8759604
  25.9476471  67.5899353  10.6928053  26.6120644  68.9182663  10.9844742
   4.2084131  62.9617805  63.6265564   3.6987727  63.4296265  62.9650307
   5.1036878  62.9681740  63.2879219  27.4461117  49.5538063  66.2836685
  28.3468189  49.5049133  66.6039352  27.4660130  49.0979004  65.4422531
  39.4912796  61.2508202  71.9898682  39.7744598  60.4000092  72.3247681
  39.7768059  61.2556953  71.0762634  62.3631210  45.4112930  53.7360344
  62.3529358  44.4855347  53.9791412  63.2183075  45.7263680  54.0286369
  71.6916428  11.7801075  32.9749870  71.8229446  12.6417046  32.5792084
  70.8350372  11.8389111  33.3980751  12.6782703  15.7365646  76.1725769
  11.9952621  15.1454678  75.8558197  12.4071627  15.9606161  77.0628204
  46.6909409  34.3556175  71.2535324  46.3516960  33.5974998  71.7293549
  46.0509033  34.5080872  70.5583115  45.1797142  16.8418846  41.5153008
  45.3123627  16.2376175  42.2457123  45.6343575  16.4317532  40.7795563
  58.8804054  61.2925148  77.5527649  58.9222908  61.1463356  78.4978104
  57.9852943  61.0529099  77.3127823   9.7179947  58.1745415  57.8183250
  10.2028399  57.5612564  57.2660255  10.3899841  58.7486343  58.1858597
  47.9155617  24.4500237  57.0901642  47.2439384  25.0750961  56.8173332
  48.6339684  24.9951859  57.4109764  14.3889284  59.1528511  62.9936333
  13.6773376  59.6994362  63.3269730  13.9865322  58.6345406  62.2967377
  66.8142624  46.8467789   5.9526281  66.0667267  47.0658264   5.3963571
  67.5560608  47.2922668   5.5433421  71.2632370  64.7323380  26.0938320
  71.3179779  64.8004990  25.1406326  71.6053314  65.5671387  26.4136887
  64.5946350  56.0680656   6.9954419  65.1000824  55.8003693   6.2279181
  64.4480820  57.0057068   6.8706002  61.5740738   3.4789538  65.5022354
  62.3114052   3.1880987  64.9655991  61.6466026   2.9660015  66.3071289
  58.1164742  39.1009827  12.1654186  57.2900620  39.2379112  11.7022505
  57.9390945  39.3870811  13.0614738  50.5381737  27.3336926  79.6934967
  49.7320518  27.3054962  80.2088623  50.9018250  28.2023602  79.8649826
  58.9562454   3.6422677  18.4896603  58.8362389   4.0694752  17.6415310
  59.0187035   4.3643804  19.1148682  34.3111839  62.2806129   4.2006159
  33.5668411  62.8123245   4.4825029  34.9933167  62.9173813   3.9874115
  61.5645828  48.8932152  36.2774849  61.9812393  49.3612480  37.0010719
  62.1457520  49.0398102  35.5311737  26.7656918   3.9848709  68.1703491
  26.9009418   3.8783231  67.2287674  27.5114899   4.5094562  68.4616013
  66.8399963  15.4273081  52.1888771  67.0053406  16.1308174  52.8165436
  67.6881027  14.9962578  52.0833359  50.9229431   2.6944401  30.1489277
  50.7686157   3.6386933  30.1206150  50.0671959   2.3063138  29.9664745
  71.4570999  38.0997086  65.3583527  70.8896179  38.4412155  66.0494080
  71.3586044  37.1492996  65.4153900  56.1017685  41.6783066  89.1427307
  56.1214676  40.7487564  88.9151764  55.1827621  41.9286652  89.0479736
  60.8766327  15.4315987  26.6241798  59.9303017  15.5359573  26.5251904
  61.0754700  15.8379583  27.4677238  63.9292374  30.0018978  54.2628670
  63.6360016  30.5980053  53.5737381  64.8476791  29.8294621  54.0555801
   8.6404276  17.7268944  27.9536495   8.9150944  17.0318432  28.5517254
   9.2788095  17.6958771  27.2410927  58.0171967  29.6061840  10.6996078
  57.6437874  28.7716637  10.4161129  58.0824890  30.1242237   9.8973579
  47.9136963   4.2281628  24.8413963  47.8770485   4.9968319  25.4106388
  47.6454887   3.5010676  25.4032040   4.2792835  30.3189201  13.6150551
   5.2148595  30.5029144  13.6991739   3.9770875  30.9205666  12.9346647
   7.6970792  36.1551743  61.7430496   7.1916804  36.3974342  62.5190086
   7.6017652  35.2046738  61.6822701  59.0702705  58.2880630  75.2401581
  59.5736618  57.8828506  74.5340195  58.2286110  58.5060310  74.8397446
  19.7612877  56.4306259  56.7801552  19.5638180  55.7786522  56.1077194
  19.4964199  56.0157661  57.6011124  68.0995255  45.9135437  40.1519966
  68.8318329  45.3486710  40.3987198  67.6479492  46.0940819  40.9764481
  83.4931030  31.5623455  70.6685638  83.6652832  30.8190479  70.0905533
  83.3770599  31.1707249  71.5342484  20.7431259  61.6807022  41.6274529
  21.1484642  62.5221825  41.4180679  20.5041943  61.3117638  40.7771416
  67.7032166  63.7220154  84.6160202  67.9917831  64.6008148  84.3697128
  67.6574173  63.2440834  83.7879410  22.0783596  40.9047050   9.8410921
  21.8525925  40.8454971  10.7693996  21.5196438  41.6044731   9.5028744
  74.4662628  59.0009766  25.3357887  73.6841736  58.9661713  25.8865700
  74.3935623  59.8334312  24.8689213   9.6699343  52.6358147  22.8617134
   9.5446415  53.5193901  22.5155525  10.1354408  52.1701622  22.1669426
  41.0220680  24.8560963  80.0482483  40.9579506  25.8088131  79.9815216
  40.7985802  24.5391273  79.1731415  68.2430038  43.9911652  82.9837418
  68.3128281  43.1546326  82.5237732  67.4165344  43.9326859  83.4630661
  63.0899544  25.2924309   3.9608297  63.9077911  25.0948925   3.5043724
  63.3655472  25.7182541   4.7725906  46.7536659  34.2683792  51.5959892
  47.2626762  34.4265251  50.8009224  46.8801117  33.3376122  51.7801552
  33.3209610  50.9543610  84.3353271  33.2615662  50.1268349  84.8127289
  33.7439537  50.7238617  83.5081787   3.8659842  34.5524712  70.2203827
   4.1907439  34.1392212  71.0203705   3.5689473  35.4179192  70.5014496
  82.9711304  16.8647575  32.7949333  83.8680954  17.1454582  32.9763031
  82.7666473  17.2515221  31.9435635  80.1707916   9.2123880  17.3780861
  79.6931229   9.4403439  16.5805244  80.6171875  10.0209990  17.6293011
  60.1914330  69.1644363  51.7232475  60.6952934  68.3506241  51.7149467
  59.2780113  68.8802719  51.7570267  19.5025101  67.2117767   3.2960746
  19.1965008  66.4524918   2.8000062  19.1502342  67.0805664   4.1763682
  56.4760742  32.4370384  65.0054932  55.7832069  32.6804352  65.6194382
  56.9712486  33.2450180  64.8705826   8.0279217   2.2521448  79.7518158
   8.8875008   2.5633507  79.4680786   7.4117994   2.8919034  79.3949738
   5.4142489  56.5911331  27.9273376   5.5771985  56.4101677  28.8530445
   4.5292969  56.2615051  27.7710152  69.9813309  39.9228630  17.7152920
  70.8360138  39.7860718  18.1239815  69.5082932  40.4827042  18.3309612
  49.1536217  21.3711739  72.3973236  49.1672249  21.0254402  73.2898026
  48.2601280  21.6934814  72.2789230  81.0559769  14.6090536   2.0520847
  81.4611435  13.7829237   1.7883091  80.2732315  14.3477945   2.5371487
  31.4003735  45.3550224  13.7792816  31.3526649  46.2418022  14.1364603
  31.9473343  45.4404411  12.9984045  18.4790955  41.7930527   1.6257231
  17.7282333  41.8701057   1.0370809  18.5925426  40.8503838   1.7470951
  74.9470825  49.8616638  81.6568146  75.2017975  49.1293182  82.2180862
  75.1852493  50.6416321  82.1579666   7.0769057  37.3871002  66.4010162
   7.0770383  37.2447701  65.4544601   7.1113210  36.5069008  66.7755737
  67.9753952  23.7132092  39.9028015  68.7727890  24.2384682  39.9699020
  67.8145981  23.4068394  40.7952766  16.7747822  14.6833839  89.3479080
  16.9127617  15.3031712  88.6316299  17.1586628  13.8647957  89.0336151
  34.9026184  54.8893547  77.2612228  34.6257286  55.3018456  78.0793991
  34.4286041  55.3664169  76.5800858  13.4987898  25.5166264  87.9450531
  13.3618088  25.2842941  88.8634720  13.2757864  24.7215061  87.4610291
  67.0524597   0.9242067  83.7731476  67.2745056   0.0676287  84.1381149
  66.5786133   1.3685645  84.4761810  54.6734467  69.3022766  80.8068924
  54.7078667  68.3663635  81.0046844  54.0639191  69.6611176  81.4518280
  48.4195709  44.6929550   1.1181531  48.9790382  44.1242371   0.5892026
  48.7369156  45.5774994   0.9361879  14.4131956  14.7394390  78.3600388
  13.5972166  15.1283865  78.6748886  14.1826553  14.3485880  77.5172348
  81.6907349  15.0946350  19.5133228  81.8596344  16.0367584  19.5029011
  82.4054031  14.7289343  20.0346146  13.2404451   3.3650157  77.9143524
  13.0285864   2.8657143  77.1256485  13.4424829   4.2441707  77.5941925
  77.5207214  32.5255165  43.5380020  77.7853928  32.4910698  44.4572372
  77.0497131  31.7048492  43.3934593  58.9769783   8.1789398  81.8306503
  59.5043449   8.9656534  81.9692078  59.5737648   7.5621161  81.4068527
  18.9096947  19.7435341  59.2365875  18.7749424  20.0869122  58.3533173
  18.7941513  20.5021915  59.8087082  55.3024940  28.0504017  67.2699509
  54.5226822  28.3456173  66.7998734  55.2766190  28.5268097  68.0997696
  18.8549957  38.6778831   2.2992258  18.8562622  37.8287239   1.8574595
  19.7763805  38.9360275   2.3246329  69.0445786  21.7100029  38.2908669
  69.9667892  21.9309044  38.4210968  68.5723190  22.2937279  38.8845596
  50.6552887  43.3970680  36.2648926  50.8959656  44.0533104  35.6109428
  49.7087212  43.2955360  36.1652107  83.2329178  64.0413971  17.2082291
  83.5008545  63.3992271  17.8655415  82.6513748  63.5564270  16.6226978
  68.4729691  14.8445339  44.8877754  69.1533203  14.2005472  45.0843353
  68.0665131  14.5252304  44.0821266  42.2202568  -0.1849932  82.7252960
  42.1164780  -0.0856943  81.7789307  41.5488091   0.3844696  83.1009293
  63.3557281   0.7078692  61.7296333  62.5475616   0.2522441  61.9652252
  63.2390175   0.9419515  60.8088646  19.1490612  55.0053864  22.6811600
  18.5747375  55.5914574  23.1740131  19.7352905  54.6341820  23.3405361
  51.1696625  55.2774048  41.5387917  50.6728821  55.5862999  40.7811470
  52.0662842  55.5680542  41.3719788  30.0844860  62.8385048  81.8886108
  30.0692387  63.4906769  82.5890961  29.6220455  62.0840950  82.2536469
  58.2308884   7.3383474   5.4530330  58.8642387   7.2779312   6.1681886
  58.3724861   8.2086716   5.0805831  21.7478275  60.1855583  86.8630676
  21.9229317  61.1238136  86.9355392  21.0161552  60.1251984  86.2488708
  46.9853020  49.2100601  46.7030678  47.1479607  49.8428879  47.4025726
  46.2685623  48.6678581  47.0325089  29.4291687  65.3992844  13.9388771
  28.6040344  65.5371780  13.4737196  29.2678089  65.7396011  14.8188629
  32.7863846  10.3303175  88.6713715  33.3726234  10.9884691  89.0447235
  31.9913864  10.3895636  89.2011871  74.8617249  46.0426216  14.5396175
  75.3111877  46.5392075  13.8557892  75.5555954  45.7937737  15.1502295
  64.5519028   6.5001435  30.1760082  65.1987762   5.8297391  30.3958759
  64.9288330   7.3148184  30.5083637  49.1536407  33.9679565  19.0925903
  48.8799171  33.1371040  19.4811668  49.3999062  33.7431335  18.1953506
  57.8599129  63.8466454  62.9037018  57.0932884  63.7788506  63.4728432
  57.7119141  63.1898422  62.2233009  18.2241554  47.0751343  78.3759842
  17.5292721  47.0763550  79.0342865  17.7794628  46.8502083  77.5587387
  47.0075684  55.2967033  60.3956146  46.6966591  55.0419083  61.2643204
  46.3765411  55.9520760  60.0980835  41.2180710  54.4026489  28.1529369
  42.1346169  54.5391655  28.3927994  41.1135101  54.8757477  27.3274193
  11.5742769  54.9330788   2.4234478  11.0775442  55.6644249   2.0565376
  11.5439024  54.2585754   1.7449538  50.2188301  31.1491909  76.2946472
  49.3326340  30.8463516  76.4925766  50.7875824  30.4443340  76.6043701
   9.2440386  26.3101215  82.4032288   9.7151737  26.0118046  83.1812210
   8.3351860  26.3948174  82.6914062  40.6926994   1.5547810  67.1148224
  41.2976761   0.9589862  67.5567093  40.8593102   1.4171531  66.1823349
  51.4402161  38.9623871  79.4713745  51.0114136  39.1283722  80.3109055
  51.9450302  39.7571716  79.2989960  38.5715294  63.2459030  52.4018364
  38.3427925  64.1628876  52.5536690  37.8062820  62.8781929  51.9597740
   1.7738873  45.3482590  35.0846176   1.1675118  44.7258415  35.4860344
   1.7043189  46.1340370  35.6267853  48.0599327  63.1250038  45.8312111
  48.1273575  64.0250244  45.5123863  48.1187744  62.5863457  45.0421486
  55.7683144  35.9105797  44.4083443  56.0697060  35.2879219  43.7467613
  56.4002304  35.8260384  45.1223221  35.3491402  13.7807541  87.1603012
  35.5967598  13.0093613  86.6505280  34.4497948  13.6060238  87.4375839
  83.7960434  67.4135437   6.0323100  84.7135391  67.4708023   6.2990723
  83.7647552  67.8579941   5.1851282  81.4022751   0.7080448  88.3002777
  81.1466599   0.7202857  87.3779221  81.5496140  -0.2173327  88.4957275
  57.1911163  14.3696728   8.4386330  57.4797668  13.7997284   7.7258372
  56.8663483  15.1560249   7.9999933  29.3805275  48.7881622   3.5150983
  29.2410488  47.8440208   3.4418001  28.6079693  49.1769600   3.1049507
  63.9011993  58.5912018  30.7207432  64.0334473  59.1542664  29.9580517
  62.9633522  58.3997154  30.7173538  71.7959747  26.4055099  38.5807724
  72.1628723  25.9536552  39.3406715  71.4895096  25.7019329  38.0086784
   4.6229219  54.7201843  30.6645985   4.6296887  54.2114754  31.4754009
   4.5106254  55.6264763  30.9513988  37.0924644  45.9555740  33.4052887
  36.3422432  46.3330879  32.9460678  36.7277222  45.2175903  33.8937263
  66.0254288  25.6863060  65.3276215  66.8274460  25.4944992  65.8136292
  65.9265213  24.9472256  64.7274475  29.7261791  34.7621155  12.2313795
  29.6510582  33.9950829  12.7990484  28.8247032  34.9635353  11.9803772
  36.5951157  44.4118195  64.7205734  36.9105873  45.2509613  64.3850861
  35.6801338  44.3713684  64.4423523  62.8967628  21.2429867  32.0754585
  62.0493851  21.6853504  32.0254822  62.7596626  20.5329494  32.7025795
  81.1269836   6.2706904  39.2420158  80.6258469   5.5262136  39.5749512
  81.7556076   6.4662352  39.9368744  37.1530495  61.6501122  84.9475479
  36.5659027  61.1453171  84.3848114  36.6646690  61.7633209  85.7629623
  71.6439209  47.5794296  43.2637558  71.0766525  47.7964134  44.0035934
  71.6206131  46.6236877  43.2163124  78.3760681  21.8476696   5.0139918
  78.0986938  21.9813805   5.9203134  78.2220154  22.6915951   4.5893841
  85.8289566  19.2663784  66.0839615  86.1595154  18.7830353  65.3267670
  85.9583511  20.1868973  65.8556290   1.6459368  55.4338799   2.6426806
   1.2999990  56.3237000   2.7118204   2.5266027  55.5464096   2.2849145
  44.0599785  48.6025810  47.1624565  43.1631813  48.4285164  47.4482651
  43.9612236  49.0394554  46.3165131  71.5847931  48.8643417  74.1223831
  72.4012833  48.8557358  73.6228943  70.8976593  48.7981720  73.4592819
  74.7104340  12.1314440  34.3298607  74.2814789  11.3629026  34.7061195
  74.0098267  12.5973186  33.8734093  85.7358475   7.1366215  57.2471619
  85.5995941   6.4410548  57.8904762  86.6554718   7.0529790  56.9951248
  48.0794373  62.8817139  40.8368416  48.2677002  62.2797394  40.1168289
  47.4663315  63.5157242  40.4648743   2.0521522  54.0926323  43.4469986
   1.8793256  53.7570152  44.3266106   1.8640679  55.0292664  43.5067787
  41.0958939  61.2482986   5.3181129  40.4778824  61.3609734   4.5958953
  40.5429153  61.1418304   6.0921350  43.4443550  29.6263638  75.3806000
  42.5266724  29.8822346  75.2877274  43.5296974  28.8405094  74.8408051
  48.6621513   4.3975272  42.1925964  48.1314354   3.8866649  42.8038216
  48.2681503   4.2310638  41.3362770  78.0860672  27.6067696  61.3305321
  78.7260742  27.8544216  61.9978333  77.5244522  28.3765812  61.2399178
  56.0570641  44.6854477  44.4455299  55.8151817  44.9164581  43.5486679
  55.2697029  44.8644180  44.9596024  27.4834900  66.5395889  22.9118671
  26.6537571  66.6514435  23.3758316  27.2830677  65.9225693  22.2080555
  74.4643631  19.3956966  37.9358101  74.5992355  20.1265278  38.5390701
  73.5155716  19.3564301  37.8154716  72.6371994  41.0501022  59.7281570
  72.7735062  40.5411186  60.5272713  72.5949783  41.9584656  60.0270348
  18.2612228  57.5015602  17.3069878  18.8670444  56.7729187  17.1717243
  18.6173573  58.2114830  16.7727509  59.3011017  50.2349815  27.4323158
  59.6847572  50.5790100  26.6256638  58.4310837  50.6321182  27.4721107
   0.3033432  36.1550407  25.6163731   1.0708094  36.2826385  25.0587463
   0.6639636  36.0167580  26.4921932  20.0534401  31.6857376  15.2681875
  20.8602333  31.5719433  15.7705488  19.9247875  30.8454952  14.8281040
  81.1470718  58.4055214  77.4012070  80.2148438  58.4252281  77.6175308
  81.3730087  59.3201027  77.2317276  81.3935852  23.7261047  77.7317657
  81.3855057  24.6714859  77.5820389  82.0029373  23.3851147  77.0770645
   4.1546316  28.2123089  63.9064980   3.8189814  27.3217907  63.8037949
   4.5242724  28.4291439  63.0505867  72.2883072  53.4777718   5.6656904
  72.5173645  52.5773430   5.8958783  71.3641052  53.5576210   5.9017148
  59.3554001  -0.1614795  10.7924109  59.5670662   0.5569931  11.3884192
  59.2161217   0.2627985   9.9457579  50.5706558  23.2045460  48.0914154
  50.7318611  24.1370659  48.2351303  51.4024544  22.7819386  48.3053093
  52.0310669  63.1433716  17.3166542  52.4418297  63.9733467  17.0744801
  52.7590790  62.5250244  17.3789444  83.8972168  25.9404697  77.2688217
  83.7153244  25.1906052  76.7023849  83.0408630  26.1935101  77.6135788
  52.2249794  12.3847485  68.0316925  51.8399467  13.0006552  67.4082794
  52.9902420  12.0316210  67.5779190   1.4511592  56.5380936  37.4689255
   1.4591771  55.7630272  38.0305672   1.1650877  57.2477226  38.0440979
  55.1411591   0.6208085  25.7344551  54.8161354   0.1178543  24.9877110
  55.5978851   1.3646784  25.3416595  66.0540619  14.5611486  80.1549759
  66.1089783  15.4362669  80.5388794  66.7858887  14.5233974  79.5391541
  38.0325775  47.0445213  66.9532928  38.7271652  46.4438362  66.6831894
  37.9919205  46.9512024  67.9050598  60.7240105  10.3618774   1.1790799
  60.3497925  10.9991255   1.7874436  61.1208115  10.8937273   0.4892114
  60.4656944  65.2153244  63.3856468  59.6308861  64.7512360  63.4485054
  60.2215576  66.1369171  63.3002701  32.9184380  51.8401756  32.8618584
  33.2776070  52.0196495  31.9929390  32.2698059  52.5303764  33.0001488
   9.4270411  37.0013695  14.1259031  10.0257473  37.7433052  14.0403605
   9.9966488  36.2321167  14.1206789  41.5224037  10.3145218  45.5453110
  42.2583923  10.3998079  44.9392700  41.1330948   9.4666119  45.3314934
  84.8269043  69.2696533  46.9871063  84.0285187  69.0475922  47.4661636
  85.5217819  69.2198639  47.6435318  68.7426910  57.1685677  83.9109421
  68.1811752  57.7735138  83.4262009  69.4947052  57.0268669  83.3359451
  12.4039440  61.6465721  13.1127090  12.7782764  60.8433342  12.7508888
  12.8233900  61.7423019  13.9677725  19.9521103  50.9400444  17.4182701
  19.4732628  51.6117516  17.9038105  20.1707115  50.2794418  18.0755749
  76.4762344  35.9078140  70.7522049  76.9707489  35.4512405  71.4328156
  76.4047775  35.2716827  70.0405426  16.5118408  55.0959206  60.6522026
  17.2104912  54.4667015  60.4727554  15.7212849  54.5613556  60.7263031
  77.9119568  54.5357094  39.4621544  77.9985809  53.5835190  39.4166946
  77.0908966  54.7235031  39.0073814  47.3999519  51.3765564  75.1435013
  47.1599464  50.7011757  75.7779236  48.2081604  51.0541458  74.7446518
  33.0169868  59.6379280  88.9432983  33.8048668  59.1125374  88.8038635
  33.0987396  59.9584961  89.8415146  84.0349655  16.4454823  52.8229218
  83.9378738  16.1559429  51.9157448  84.9808121  16.4627132  52.9689140
  29.7458572  33.3200912  15.7971659  30.5213547  32.8956909  16.1642094
  29.2019615  33.5243454  16.5578823  72.7263794  41.8584137  43.2711945
  72.9558868  40.9370651  43.3923302  73.5566330  42.2866211  43.0625076
  24.8730030  17.7551174  16.6127911  25.7457771  17.7724342  16.2201118
  24.2985268  17.4589939  15.9067326  48.5762520   0.4937928   9.1191454
  49.1466637   0.6131741   9.8784943  48.8585548  -0.3365794   8.7357140
  84.3918457  54.1968994  29.8486595  84.7338028  55.0909271  29.8519154
  83.4755859  54.2899704  30.1095142  41.4589043  57.6965942  11.7183809
  42.2570190  58.1910667  11.5319881  41.3533592  57.1184959  10.9628057
  51.2879105  65.9301453   3.1355088  52.0846214  65.7424545   3.6317475
  50.5777702  65.6140213   3.6940775  11.1005707  33.6218605  27.3292637
  11.5546350  32.7793274  27.3152523  10.4476519  33.5536804  26.6326447
  45.4829979  21.5205212  10.9290495  45.8419037  22.0269661  11.6577005
  45.3939705  20.6326294  11.2753906  81.0423737  11.3116217   9.7602444
  81.2665482  12.1988707  10.0408945  81.7698898  10.7716951  10.0691557
  10.4703465   3.3829663  79.2273788  10.7611094   3.8141062  80.0309982
  11.2532549   2.9446313  78.8939896  80.8142624  46.6825104  10.2410364
  80.5539246  47.5821648  10.0433474  81.3351822  46.4122543   9.4848375
  60.6626244  57.1290932  11.1058311  60.0194817  57.4512711  11.7373362
  60.5964661  56.1758194  11.1617517  41.2243271  40.7582054  77.8652039
  41.5025063  41.5328636  78.3538208  41.8914719  40.6502495  77.1873398
  37.2749329  43.1528625  11.8501596  38.1766472  43.4378471  11.9982548
  36.8002777  43.9578743  11.6430540  41.0619812  58.0842133  22.3636665
  40.7012100  57.3393707  22.8445873  41.4541245  58.6379814  23.0387955
  72.7474823  38.5140038  62.9964981  72.1252289  38.5089569  63.7238312
  72.2228699  38.2798920  62.2308540  38.6909332  52.6375771  51.3212624
  38.7980957  51.6893578  51.2462387  38.6662483  52.8019829  52.2639160
  66.7401810  31.4999504   1.1626548  66.0002594  31.4609222   0.5566639
  66.3453751  31.4033508   2.0292706  74.0621643  10.9101257  53.2642746
  73.8917923  10.0809898  53.7111969  73.2497711  11.4066582  53.3627815
   4.0784330  61.4660797  77.7246628   3.5000060  60.7953606  78.0876846
   3.7666481  62.2851257  78.1096115  83.3875275  22.9193974  13.3384361
  83.7437057  23.2447720  12.5116959  84.0450287  22.3000946  13.6552753
  19.7793961  53.4878922   6.0611835  19.5206757  53.4710274   5.1397657
  18.9883022  53.2344627   6.5367627  13.0851231  21.9108677  74.3433685
  12.3410721  21.4132767  74.0042191  13.6385183  21.2550411  74.7674866
  62.7314911  35.4006004  61.3434868  63.4915886  35.8992920  61.6431313
  63.0397186  34.4952812  61.3032074  48.1088409   3.7345953   4.5711646
  49.0278053   3.7686534   4.3054934  48.1276817   3.8769622   5.5175309
  59.1863518   0.3155347   7.9116864  58.6478424   1.0296955   7.5707827
  58.5602303  -0.2834916   8.3183441  69.6619186  48.5152397  45.0136833
  69.3979034  47.6003914  45.1115417  70.2217712  48.6853027  45.7712288
  70.2303238  43.9615402   9.1273518  69.4751663  44.5010910   9.3615704
  70.2226868  43.9413528   8.1703949  60.9715805  22.6999226  30.8711510
  60.2790489  23.1682720  31.3372860  61.5937538  23.3819962  30.6183567
  85.0010910  51.1864471  45.6860390  85.3749695  51.9053078  45.1764488
  84.8318939  50.4989090  45.0419121  34.9706268   9.1779308   2.8828454
  34.5867043   8.3497047   3.1707277  35.8865395   9.1250648   3.1558571
  11.8096323  48.6534081   6.7289085  12.2869024  49.4770699   6.6287875
  11.6257372  48.5955925   7.6664968  46.0756302  36.5674896  41.8354721
  45.3791466  37.2189140  41.9178619  46.0090904  36.0434532  42.6337128
  29.2758102  69.3319778  14.3027754  28.6623154  70.0477676  14.4686155
  29.9833469  69.7347336  13.7993803  50.6514549  26.2090683  55.0777740
  50.1474953  26.9200535  54.6818466  50.4463806  26.2611046  56.0112991
  42.2508049  30.4296036  63.7460938  41.3386726  30.7193604  63.7629967
  42.7381821  31.1909657  63.4314117  17.2222862   5.8351355  19.5305157
  16.4284401   5.4755363  19.9264088  16.9136543   6.2936091  18.7489929
  61.9650841  37.8150253   1.0541253  61.6857872  37.5620918   1.9340391
  61.6385078  38.7083588   0.9467083  62.3326683   0.4406461  22.5900021
  62.1345825  -0.4904512  22.6902618  61.8094292   0.7171803  21.8376865
   8.9255638  38.1680412  76.2203293   9.5786905  38.3075409  75.5346222
   9.3903141  38.3564034  77.0356598   2.5203109   8.2324362  68.5627518
   2.8865855   8.7157307  69.3033600   2.3967652   8.8943043  67.8823853
  71.4849625  38.2100945  21.0986233  72.0723877  38.4522095  20.3826981
  70.7174454  38.7692337  20.9781933  33.1524773  63.4241257  57.6045227
  32.4984703  63.1749229  56.9515266  32.8677177  62.9876175  58.4073944
  58.7444954  25.4117069   3.3898127  57.9108505  25.0704460   3.7135539
  59.0664139  24.7336292   2.7958324  53.7960167  65.6861038   9.7635269
  54.6450500  65.7610703   9.3279161  53.8151245  64.8238297  10.1786728
  21.4509964  54.7833939  35.3524818  20.7804737  54.2785149  34.8923454
  22.2788868  54.4693871  34.9888458  60.2435455  67.8308487   1.9056615
  59.6716995  68.2229691   2.5655570  60.3988037  68.5339584   1.2749795
  57.0000877  67.7818527  74.8317642  57.5677719  68.4749908  74.4948273
  56.2899437  68.2474442  75.2735214  35.6440468  57.3472061  73.2671890
  36.1882362  56.6003494  73.0176086  36.0489960  57.6818428  74.0673523
  73.1981812   3.9580948  83.5370178  73.9833527   3.6196225  83.9673386
  73.5172501   4.6693144  82.9814987  47.2726555   6.0714531  17.7810421
  47.0572281   6.7155647  18.4555359  46.4759941   5.5495882  17.6850491
   1.4905752  43.0799294  31.3633595   1.3297360  42.6517601  32.2042122
   2.2845607  42.6621094  31.0298233   2.5812898  54.9423256  61.7020378
   3.4278588  55.2317429  62.0423164   2.4977479  55.3865700  60.8582954
  85.3898315  32.1129074  82.2903137  84.9113693  32.7929611  81.8161392
  85.1617432  32.2558022  83.2088928  61.6225357  41.2174339  41.2939034
  62.0202446  40.3656082  41.1137543  62.3116188  41.8507538  41.0931511
  23.2331448  71.1934662   9.4742928  22.6824379  70.7858276   8.8058748
  22.6568203  71.8223190   9.9086046  56.9735680  60.2535095   4.3010006
  57.4918709  60.9591637   3.9141586  57.6183891  59.5910683   4.5492053
  52.2305641  70.8207245  40.4767799  51.9132004  71.7228394  40.5180626
  53.1807556  70.9045105  40.3971405  57.7447968  65.8328552  65.3235550
  56.7982407  65.6906662  65.3167725  58.1077003  65.0133133  65.6595230
  12.3101501  35.5331573  70.1694031  12.9414835  34.8208771  70.0678787
  12.7854748  36.3160019  69.8911057   9.1582241  42.8337936   5.7242303
   8.9414520  42.5623970   6.6161871   8.7652321  42.1618233   5.1672311
   5.8657784  40.2379150  32.3755493   6.0992532  39.7090454  31.6126480
   4.9493370  40.0205956  32.5462494  59.1828232  17.3449001  68.5966263
  58.4183350  17.1610584  68.0507355  59.0333748  16.8399487  69.3959503
  13.3339052  31.9900837  72.1892776  12.4135809  32.0507088  72.4453201
  13.4261246  32.6215401  71.4758377   5.4423141  36.8928413  43.2276382
   5.3731189  37.7887764  43.5574074   4.7733879  36.8364410  42.5452957
  34.3937302  38.9779243  19.9839420  35.2019272  39.4641304  20.1472034
  34.5874405  38.4428368  19.2142754  85.2446365  57.3269806  36.8855476
  85.2642746  57.8447838  36.0807343  85.6797028  56.5066299  36.6532288
   3.4000723  18.7429562   8.9854593   2.9118760  18.0462132   9.4241447
   3.7026274  19.3077488   9.6965857  57.9953270  37.4761887  20.2255459
  58.6189728  36.7502136  20.2415504  58.5013504  38.2194443  19.8972988
  50.0029106  25.2518520  66.5370865  49.5535011  25.9930668  66.9431152
  50.9199028  25.5227833  66.4928207  43.2409973  32.2030373  10.4709005
  42.4320984  31.7443390  10.2439442  43.8063469  32.0834389   9.7078085
  79.5514908  30.5416374  59.6224442  80.3342514  31.0916481  59.6540680
  79.2748108  30.5712318  58.7065773  85.1627121  37.2406998   7.9760027
  86.0231171  37.6600914   7.9823623  85.0909195  36.8282852   8.8368111
  54.8087349  43.7499161   7.9865499  55.3000717  44.1786079   7.2858062
  55.2761688  43.9880943   8.7871790  40.6723938  69.4595261  19.7851486
  41.5469475  69.6608429  19.4521961  40.0954475  69.5795593  19.0308571
  75.2594833  61.6799622  58.4222832  74.8423462  62.4266205  57.9924812
  76.1067810  62.0150909  58.7155647   8.6452627  60.2169838  10.6857796
   8.7761269  61.0342941  10.2050409   8.3201275  60.4926453  11.5428267
  15.0281487   3.3146687  15.0733900  15.9155331   3.5217214  15.3664932
  14.6654654   2.7713666  15.7730436  81.3659592  44.1638222  86.2158279
  81.9052048  43.4561195  86.5688248  81.9640121  44.9077568  86.1442337
  76.2016144  57.4211044  23.9545059  75.5200348  57.8517609  24.4704704
  77.0185394  57.8152008  24.2603722  14.3849516  26.8797970  12.3067207
  14.4606543  27.4405384  13.0787764  13.4891224  27.0163956  11.9983988
  70.9429932  70.0143967  82.6540985  71.6549530  69.5676575  82.1960831
  70.2113647  69.9940338  82.0372162  24.6507320   2.5165892  69.0053635
  24.3069344   2.7668254  69.8629227  25.2897911   3.1976130  68.7955017
   2.0351493  70.3338699  73.0157013   2.5961316  69.8284149  72.4274445
   2.1297204  71.2387085  72.7181396  14.3064547   4.1630702  67.1303177
  14.9267130   4.7575035  66.7082291  13.7342281   4.7365122  67.6401749
  78.5553741  58.1110344  42.3520584  78.2860413  58.7742805  41.7166100
  78.7683945  57.3434258  41.8213692  49.0520897  40.8432007  31.5194778
  48.9322548  41.7788658  31.6819725  49.9026947  40.6395798  31.9083767
  64.2784958  32.7394676  37.4281349  65.1003799  33.0727196  37.7882538
  64.5448990  32.1952400  36.6871376  13.3333979  53.4935837  47.8206863
  13.9085836  54.1836967  47.4903259  13.1971903  52.9155388  47.0699883
  75.1846390  23.9075565  62.9888115  75.1737289  23.1676826  63.5960159
  76.1126099  24.0517178  62.8035698  70.4994125  54.6238365  55.2884674
  70.6610413  55.2717247  55.9742889  70.2712860  53.8244972  55.7630730
  32.3334236   2.9276533  29.7718449  31.5142002   3.3596518  29.5300159
  32.2358551   2.7338040  30.7041187  82.0478745  68.0013809  45.1221733
  81.6121902  68.8457336  45.2382469  81.6908340  67.4499283  45.8183441
  49.0569611  17.5103760  75.2806854  49.8184013  17.8942337  74.8458328
  48.3050117  17.9187660  74.8517151   5.0403442  28.3593998  30.9125404
   5.9644890  28.5724792  31.0420990   4.6007724  29.2091122  30.8809700
  35.7805290  62.5513039  70.4410782  35.4762726  63.0344200  69.6727905
  34.9795265  62.3204994  70.9115601  10.6622963  55.9301071  61.9618034
   9.9408836  55.9511604  61.3330307  10.7629290  55.0035439  62.1799355
  50.2840271  60.3751106  31.9229031  51.0400391  59.9096985  32.2807693
  50.3320503  60.2203217  30.9795227  35.9220619  49.4279518  56.1409073
  36.3078537  48.5538673  56.1989899  35.1985741  49.4125443  56.7674522
  64.4564896  11.9161081  69.1738129  65.0091171  12.1395931  68.4248886
  64.2629318  10.9856834  69.0594559  12.2237768  29.5604229  70.4137268
  12.5462484  28.7868614  69.9512939  12.9749851  29.8659763  70.9222107
  64.6972046  17.6285954  52.3852501  65.2719345  17.0349979  51.9019737
  64.9642639  17.5294094  53.2990723  13.6426134  67.5842285  64.5319672
  13.2360516  67.0450058  65.2103271  13.4533453  67.1236725  63.7144737
  -0.1504292   5.8413248  43.2023239   0.5127852   5.4478803  42.6352463
   0.0350652   6.7799010  43.1723557  23.0912609  67.8236008  24.8257160
  22.7630215  68.4839859  24.2154789  24.0382500  67.8183746  24.6863728
  23.5734463  61.2287827  50.5050774  23.1452808  60.4574127  50.8764229
  22.9140892  61.9201927  50.5636673   9.1016912  25.3586884   9.8048048
   8.5596771  24.8643932   9.1898861   9.6807127  24.7033558  10.1940422
  56.9859009  46.1795197  64.5659561  56.3934288  46.4258614  63.8556557
  57.8327980  46.0526047  64.1382980  19.0444546  51.0913391  40.7659760
  19.4462872  51.8993416  41.0851822  19.7840729  50.5114021  40.5846748
  65.6252365   7.8763986  63.3163452  65.1345062   7.0614419  63.4224510
  65.5600052   8.3079147  64.1682663  46.0223732  43.0222206  68.6597061
  46.8951263  43.3145256  68.3968506  45.4234161  43.5852165  68.1692810
  60.6870270   5.2911820  87.0935593  61.0759010   5.9201450  87.7013550
  60.3432884   4.5964637  87.6552048  14.0144281  68.0385437  29.9222736
  14.2004652  68.2992172  30.8243122  13.4790411  68.7508545  29.5726891
  70.8980408  17.2139149  39.5644608  71.1285324  17.9575500  39.0075874
  71.7267456  16.9462814  39.9617691  23.5488853  42.5804596  22.9287224
  23.1895599  42.6572685  22.0448570  24.4778557  42.7883110  22.8285065
  42.1631317  27.1033478  46.2770081  42.1404037  26.1496124  46.3551407
  41.3974571  27.3183384  45.7443237  56.7717972  42.4520073  59.6733246
  56.6162643  41.9318275  60.4616470  57.0759850  43.2983704  60.0009956
  40.4705772   5.8960767  29.6421947  40.2124557   6.0315242  30.5539284
  39.7724991   5.3547831  29.2735214  33.7672615  68.2638550   8.8445635
  34.5679436  67.7426224   8.7857723  33.7345428  68.5504913   9.7572508
  40.8449478  46.3972778  76.7653885  41.4808884  46.2513008  77.4657516
  40.4550629  47.2473755  76.9692535  39.6753159  49.7845383  41.7281303
  39.5873947  49.6773148  42.6752319  38.8025665  50.0461044  41.4346581
  27.3169308  37.6781006  86.4776306  26.6904221  38.3351707  86.7809067
  27.2073956  36.9451332  87.0834274  81.0965729  26.9249630   6.0639124
  81.5680542  26.2213421   5.6179776  81.0932159  26.6647472   6.9850574
  21.3834953   6.4326897   5.9331803  21.1784153   5.5434308   5.6444030
  22.3400364   6.4672070   5.9414849  40.4504318  70.1395187  38.0383492
  39.7021561  70.0824203  37.4441643  41.0790558  70.6963654  37.5790291
  58.8553810  30.1399536  32.9324646  59.8064041  30.0481453  32.8745041
  58.5959473  29.5196075  33.6137085  25.5689220  23.3531456   2.2318907
  25.2365875  23.8541317   1.4870431  25.9933357  22.5910702   1.8377488
  67.6375732  27.1192722  26.7303772  67.4926682  26.2014732  26.9603329
  66.7616806  27.4636002  26.5557518  21.8833351  28.0296764  12.6590681
  22.8186970  28.0741367  12.4606915  21.4529381  28.2792492  11.8413258
  49.7491646  67.0061951   7.7756333  49.8947601  66.9656601   8.7208271
  48.9217339  67.4779968   7.6807699  85.1010971  11.1161623  39.7156944
  85.0477066  10.2395515  39.3349953  85.9415283  11.1275902  40.1737137
  58.4769363  32.0974083  87.9255371  58.8560028  31.8115654  87.0943756
  59.1022758  32.7367897  88.2666779  69.4541855  56.5773773  36.9974861
  70.0472412  57.3283615  37.0207253  69.3456650  56.3293915  37.9156151
   8.2976103  35.5327682  75.7993469   8.5776386  35.5350838  74.8840256
   8.3614149  36.4481964  76.0716476  37.1049309  18.0928078   2.7490444
  37.5362091  17.5051441   2.1286554  37.6437492  18.8839321   2.7437644
  51.4548302  42.4063911  69.8203964  52.3774147  42.4660263  69.5723877
  51.4076843  41.6339188  70.3836899  56.3841095  21.5979328  41.9565773
  56.9800301  22.1889229  41.4963150  56.9132080  21.2261028  42.6622887
  56.0413857  34.2728043  85.3350220  56.4417992  34.9640541  85.8623505
  55.1126633  34.5025101  85.3043518  83.5041275  35.1889038  23.9702778
  83.3515015  34.8632927  23.0831947  82.6810226  35.0248947  24.4305382
  80.6897507  41.9722366  57.3007965  80.7003708  42.7579575  56.7542076
  81.0448151  41.2841606  56.7380219  14.7652950   3.9073327  12.2915277
  14.3078165   4.7481265  12.2948399  14.8094025   3.6550262  13.2138224
   9.9890823  28.8732872  72.1855850  10.4238844  28.5928059  71.3802872
  10.7000189  28.9766235  72.8181381  37.9690857   1.7719309  37.9469299
  37.5062447   2.5864224  38.1434326  38.8641663   1.9262053  38.2490349
   0.5842261  50.9761543  11.2427292   1.3726385  50.7005653  10.7750874
   0.5720131  51.9288635  11.1509428  15.8499384  42.8866653  10.2752714
  16.7817993  42.6922989  10.1748276  15.4478197  42.0393791  10.4666891
  66.4970398  59.8632355  39.9157639  66.2411118  60.6487465  39.4323349
  65.6789246  59.3827248  40.0423508  60.1258049  53.9409180  29.5829487
  59.5274124  54.6828728  29.4954243  59.5682411  53.2153854  29.8639336
   7.0890522  58.7049904  14.6359005   7.5294371  57.9772453  15.0748501
   6.7280765  58.3199348  13.8373652  75.6126251  62.8017235  31.2222576
  75.1090698  63.5316505  31.5826359  74.9630814  62.2619820  30.7716961
  26.7517586  40.5776939   3.9439073  27.6793461  40.4373169   4.1339264
  26.4000854  40.9693031   4.7434072  43.1381149  45.3467216  31.1086388
  42.6155014  46.0760765  30.7752552  42.4925537  44.7100830  31.4155140
  61.9896469  58.1372643  22.0021935  62.3356857  59.0155106  22.1608562
  61.0396385  58.2533531  21.9865971  58.0308304  39.0132256   7.3694744
  57.1644440  39.2567902   7.0434632  58.0579796  38.0598602   7.2883034
  39.4757080  31.6053886  60.9171867  38.5851822  31.5811157  61.2673378
  40.0382576  31.5748730  61.6910362  51.6170197  26.5713234  43.0202141
  52.2804031  26.2613335  42.4037247  51.7418137  27.5199051  43.0494041
  75.9058380  62.1658516  37.2072296  76.6829376  61.7070923  37.5264168
  75.3535614  61.4751892  36.8408852  44.4399033   7.8381300  74.3918457
  43.7072067   7.5421152  73.8516998  44.1464882   8.6729708  74.7567902
  24.2431812  55.5152664  11.6605396  24.3067341  55.6997375  10.7234354
  23.6943836  54.7328339  11.7139454  19.8494644  35.5592766  84.7482376
  18.9575977  35.7159996  85.0584641  20.0517693  36.3215256  84.2057571
  20.5474129  62.0258217   8.0162249  20.4470882  61.4603043   7.2504859
  21.4922314  62.0615158   8.1654739   0.5293798  10.8626928  51.3800774
   1.3812653  11.2970905  51.4227524   0.0279754  11.3801203  50.7499237
  67.3570786   8.7626486  26.7339230  67.1577225   7.8663473  26.4634876
  68.0804443   8.6704597  27.3539791  19.9510746   8.6095686  69.1552048
  19.8772545   9.5166388  69.4518661  20.5439472   8.6504803  68.4048309
  80.8459625  65.0303116  37.9074402  81.3086700  65.4020004  38.6584282
  80.0679321  65.5792847  37.8098259  49.5246849  70.3374939   7.2324414
  49.1358643  69.4970398   7.4746985  49.0214996  70.6232910   6.4699731
   3.4364083  53.9785614  47.9473495   3.5266273  54.9313507  47.9642754
   4.3115010  53.6589813  47.7275467  78.9766159  68.3498688  77.1335144
  78.9593201  68.2166595  76.1857834  79.3181305  69.2371597  77.2444687
  37.4374428  14.1702328  68.7747498  36.5668030  13.8075628  68.9381180
  37.9210052  14.0062389  69.5843811  59.4549446  58.7199402   8.1823177
  59.3590698  57.7776909   8.0437422  58.8896980  59.1181221   7.5203671
  14.9368219  66.0168839  48.0599976  14.6983032  65.5128555  47.2819939
  14.9889212  65.3663025  48.7601852  52.0779152  15.1347675  80.3684921
  52.6667328  14.9299021  81.0948257  51.3250275  15.5568943  80.7822571
  57.3022575  41.5316696  19.4157505  57.4922333  42.0614510  20.1900082
  56.4363937  41.1607704  19.5858898   0.9150361  67.6639252  41.2830849
   1.2660218  68.2991486  40.6589661   1.5719653  67.6228561  41.9780579
   5.5785956  25.4200211  25.3858547   4.8074956  25.0349731  25.8022366
   5.2459526  26.1984806  24.9391060   4.0607390  43.8724976  49.6060371
   3.5847895  44.1365280  50.3934326   3.4699693  44.0897751  48.8849182
  72.1496429  19.7484989  45.5034866  71.6738510  19.1685085  44.9089546
  71.7218323  19.6260204  46.3509560  67.7593079   3.2350459  16.8881054
  68.4939804   2.7690592  16.4889183  67.4441681   2.6442375  17.5721111
  58.3288193  51.0024376  54.1278915  59.1270142  50.5023041  53.9576492
  57.6324577  50.3457832  54.1387253  73.6874390  42.2678833  28.3471718
  73.1390457  42.8993034  27.8815460  74.4752121  42.1919518  27.8087692
  12.8197708  50.5719681  46.4090195  12.3421183  50.0495872  47.0533791
  12.1586885  50.8164711  45.7613945  34.9900284  55.3818512  86.7713547
  34.1035690  55.5471878  86.4502792  35.1931915  54.4967728  86.4686966
  48.9264374  41.0804443  21.9850540  48.8822174  40.8941536  22.9229088
  48.0322495  41.3254814  21.7471142   5.0193472  68.0254974  32.5137138
   5.9238453  68.3180161  32.4016914   4.5097375  68.5979080  31.9402332
   7.6367607  35.9456100  54.5162392   6.9940968  36.6528931  54.5706635
   7.8844457  35.9176331  53.5920639  78.4703751  37.5445404  56.6955948
  79.3302917  37.1405907  56.8121719  78.2309875  37.8545570  57.5689888
  38.3906746  28.2905045  85.0755692  38.9869232  28.7771988  85.6446457
  37.7606697  27.8904247  85.6749573  32.1292114  48.5006142  55.8674583
  31.5595627  48.3656082  56.6247635  32.8911057  48.9605980  56.2198296
  26.1526470  38.3360176  74.6120758  26.0506020  37.5377197  74.0938644
  25.9921608  38.0582886  75.5139313  40.6726227  29.2720146  86.3769608
  41.2895088  29.3993454  87.0977020  40.3217926  30.1458015  86.2047806
  83.5599442  52.9889183  22.7565536  84.1302872  53.5456314  23.2866554
  82.8685608  53.5762329  22.4511337  66.0876694  21.2158203  85.2564240
  65.5322571  21.9070053  84.8958511  66.8545456  21.2016315  84.6837769
  30.6031895  26.0577888  10.9875917  31.5229816  26.2896061  10.8592281
  30.1187534  26.8315506  10.6997623  23.3309021  18.4960079  87.8562012
  23.7754955  17.9260979  87.2286835  23.7898064  19.3331261  87.7864075
  75.1255875  65.2715912  49.1067467  74.2325821  65.6125946  49.0568428
  75.1638489  64.5998459  48.4259224  22.5148125  61.4076233  54.6284790
  21.8927269  61.5834160  53.9225502  23.3406239  61.2253151  54.1801147
  84.5836868  58.6828041  79.2892990  84.9697952  59.1048279  78.5218048
  84.4982910  57.7628174  79.0391769  59.6753311  53.5946159  68.4896545
  60.4584045  54.0513191  68.1823273  59.6289864  53.8003807  69.4233246
  55.0219002  38.2651482  76.0014343  55.9622231  38.3719559  75.8578568
  54.7146263  39.1405487  76.2369995  -0.1902355  50.0559540  59.0826263
  -0.1595811  49.7599144  58.1728706   0.6849753  50.4053535  59.2504234
  61.2583961   2.1458066  67.8229980  60.9974251   2.3820438  68.7131195
  60.4584999   1.8072751  67.4207611  81.8607941  49.6365204   6.1705894
  81.6162872  48.7616234   5.8689275  82.8178024  49.6377106   6.1514335
  16.0066223   7.3735533  69.9900665  15.1039734   7.6386194  69.8134384
  16.0964870   7.4477348  70.9401474  41.5423317  32.4793396  13.5994759
  40.6364250  32.7340431  13.4242773  41.4972801  31.9797840  14.4147348
  68.8352127   5.4347444   2.2190766  68.6734772   4.8460703   2.9563272
  68.0067749   5.8983259   2.0965338  43.4739571  56.8095512  88.5175476
  43.9599533  56.3021088  87.8675156  43.6553802  56.3705635  89.3485718
  28.8778152  55.4002953  10.0836506  28.8049126  55.9278107   9.2882595
  29.4208450  55.9261513  10.6708689   2.4832723  47.4465523   8.3663530
   2.8393545  48.2696419   8.0317469   2.1036046  47.0199776   7.5981622
  55.5039673  25.3316994  73.5701141  55.5387192  26.2879524  73.5455551
  54.9087410  25.0953159  72.8587341  23.4714451  31.0784836  14.0622053
  24.2829628  31.4540176  14.4037399  23.7068233  30.1842327  13.8149309
  68.5467911  17.4763546  31.6132870  69.3026047  17.9764042  31.9213772
  68.7561646  17.2614288  30.7043324  13.1349516   3.4459910   0.8650231
  13.1999960   4.1573958   1.5021293  12.5397663   3.7794383   0.1936077
   5.3216996  49.9565697  30.6723461   6.2010026  50.3317642  30.6245117
   5.0934610  49.7644615  29.7628231   3.0737236  15.3736439  26.4064541
   2.4092534  15.6148224  25.7610531   3.0906589  14.4167976  26.3866787
  10.8526478  34.9104614  87.4810486  10.5662251  34.4767151  88.2848282
  11.7159491  35.2645378  87.6945267  44.2528000  57.7896385  28.8742924
  43.3712959  58.1058235  28.6762791  44.7124825  57.8206711  28.0352688
  65.4719315  53.9875336  29.5935154  65.7383575  53.0716057  29.6730385
  66.2253647  54.4223137  29.1940880  71.8589401  33.9479942  34.1940918
  71.8465729  33.0628395  33.8299751  72.7780838  34.2117538  34.1513329
  60.1996498   9.9362049  70.2177658  59.4895401   9.9970036  70.8567352
  59.9772186   9.1731510  69.6843796  75.8359909  37.6383133   0.7087676
  75.0805969  37.1479530   1.0330441  75.7969208  38.4738235   1.1742015
  56.6216087  63.1754608   7.8951807  56.0837975  62.7338028   7.2379694
  57.4002609  62.6247749   7.9769015   4.6976070  34.3685493  85.4815369
   5.3741384  33.9451027  84.9531174   5.0356774  34.3334389  86.3763657
  46.2715721  35.7338219   6.8336000  46.1663589  34.9867744   7.4227390
  46.0587273  35.3873215   5.9670739  41.8725243  43.7902489   1.9660655
  41.3464203  44.2062950   1.2831662  41.2775650  43.1641579   2.3786988
  71.7716599  44.9256172  43.2894974  71.4308548  44.6286926  42.4457474
  72.2468796  44.1700287  43.6351662  11.9030857  29.0643501  74.2996597
  11.8323946  28.8540230  75.2307816  12.5695200  28.4625473  73.9681015
  51.5252953  65.5254440  38.8264198  51.9710503  65.8865814  38.0601883
  51.7181473  64.5883636  38.7961540  83.6696167  33.6771431  46.5046768
  83.4533310  34.6091881  46.5320396  83.7913361  33.4867172  45.5745430
  69.6131363   5.3429255  36.3103294  68.7500153   5.1982632  35.9226189
  70.0111084   4.4728947  36.3403168  74.2981339  33.3092613  60.8903503
  74.2006607  34.0917473  61.4329834  74.4539948  32.6018066  61.5160065
  17.0523891  50.2629471  16.2277050  17.5817356  49.8493233  16.9095707
  16.9986591  49.6053123  15.5342646  27.4349880  70.1572571  40.2291679
  28.3704777  70.3492050  40.1640053  27.3767681  69.2084656  40.1167145
  23.7801456  37.9289551  76.1180725  24.4879398  38.3862610  76.5720825
  22.9831886  38.3719978  76.4092789  34.9592590  34.5165291  69.8283234
  34.5274620  33.9657059  70.4812927  34.6530876  34.1762161  68.9876785
  75.4753036  48.3403473  20.0204124  76.3145752  48.7973289  19.9654007
  75.1790543  48.4908028  20.9180927  62.3536491  44.3274422  15.1250963
  63.1725655  44.0277557  14.7303782  61.6690407  43.9061890  14.6053972
  64.0204544  10.9687433  15.2929468  64.7188339  10.5696707  15.8118286
  63.5001869  11.4597034  15.9289570  26.3511028  -0.0282296  82.6341782
  26.5533543   0.4407213  83.4437561  26.8882370   0.4009450  81.9682007
  41.1852646  28.1750259  83.5685883  41.7823334  28.8451214  83.9013214
  40.6164246  27.9711285  84.3109283  86.0159988   3.6183326  61.8711662
  86.4553986   3.6149650  62.7215500  86.5754623   3.0809958  61.3103638
  65.0340424  58.2329407  61.9797974  64.9009552  58.8836594  61.2905312
  64.5082016  57.4818535  61.7048607  38.8850327  45.3056107  15.3407784
  39.3813171  44.6174850  14.8975897  39.1558151  46.1141701  14.9058704
  26.7690525  34.0383110  66.5565796  26.6348743  33.8631973  67.4880142
  27.1779613  33.2411957  66.2194901  21.6185093  55.3998528  82.5785751
  21.5708942  56.1326523  83.1925507  22.1749859  55.7185593  81.8679428
  72.9019394  15.7505493  88.6851425  72.0879822  15.2737427  88.8475037
  72.8981781  15.9168215  87.7425003  49.8590393   3.5024052  48.9257164
  50.5599709   3.1214097  48.3967819  49.7477188   4.3860974  48.5751038
  36.0876389  15.9993887   7.1540508  35.5121117  16.4907074   6.5678749
  36.4924736  15.3377848   6.5931401  20.9289074  10.6826181  77.5357513
  21.1808929  11.4586763  78.0362167  21.1878395  10.8831539  76.6363220
  14.5784397  40.8556519   1.3850121  14.5443268  41.6901817   1.8525827
  14.5591269  41.0987434   0.4593969  12.9471483  50.6644630  89.3501892
  12.7689781  51.2583923  88.6209869  13.0726194  49.8098068  88.9378281
  83.5007935  44.5593452  72.7826157  83.8973770  44.1371460  72.0205765
  84.2442017  44.8868561  73.2888947  31.6236687  57.9603348  59.0022545
  32.5575104  57.7589531  59.0624123  31.1870804  57.1270485  59.1790504
  64.8756943  63.2493248  56.4303627  65.7093887  63.0303459  56.0141525
  65.0970535  63.9289780  57.0669975  20.9272976  12.6654902  19.0430851
  21.1110172  13.6032753  18.9879799  19.9719696  12.6073437  19.0289192
  41.1393051  15.6152782  69.1471863  40.7344360  15.6940985  70.0109558
  40.7819862  16.3492298  68.6473160  84.7572250  20.7030506  38.0153046
  85.6116486  21.1279907  38.0902481  84.1591492  21.2829342  38.4867630
  75.2493591  34.2055473  83.7294083  74.8877487  35.0506897  83.9962463
  75.6397324  33.8493271  84.5275040   4.8841743   9.9343853  31.0786476
   5.1748796  10.8027449  30.7999496   3.9302857  10.0027571  31.1193085
  64.6890182  48.8973274  79.3954315  65.3325806  49.5155830  79.0492783
  64.0841064  48.7491951  78.6685410  12.5780458  19.0023289  88.5245209
  12.1505995  19.8560123  88.4556503  13.1026936  19.0608864  89.3229904
  73.2287903  21.5561943  15.4238014  73.8125992  21.4258766  16.1710758
  72.6322479  22.2503071  15.7041054   8.5676327  13.3285303  84.5293579
   9.4824924  13.3724174  84.8074570   8.3960905  12.3935738  84.4168396
  49.6470566   6.2990046  21.4243069  48.7823868   6.4724603  21.7964554
  50.0101051   7.1668167  21.2473049  57.1279335   7.2768331   2.4992294
  57.1213493   7.4058809   3.4476676  56.6330223   6.4687419   2.3640208
  46.7894020  57.1703835  69.3219070  46.0985718  57.8316650  69.3630295
  46.3273811  56.3524513  69.1381607  46.2831039  57.4923096  13.8505201
  47.0082092  57.2014656  14.4035673  46.5619698  57.2814369  12.9594545
  20.7398510  24.4571381  23.7451420  21.3057041  25.1541443  24.0771408
  20.8343258  24.5046616  22.7938023  27.4670982  62.0517349  55.7233734
  26.6880722  62.1398163  55.1741982  27.7177753  62.9521980  55.9296684
  55.3775673  30.7857018   1.0661721  55.2072983  31.3876228   0.3416493
  55.8359222  30.0486546   0.6625603  41.3304520  20.4439983  21.2955494
  41.1100197  19.5571518  21.0106945  42.2863045  20.4772587  21.2571487
  84.9806290  60.2688179  41.6216545  85.6044846  60.1941338  42.3437691
  85.3763046  59.7652550  40.9102516   5.7070408  38.6749649  49.8838310
   5.4011183  38.2557373  49.0795326   5.8009429  37.9555054  50.5081635
  32.8451996   3.1356204  35.3950768  31.9297123   3.0347648  35.1344109
  32.8037491   3.5020380  36.2783928  81.4893723  15.4313011  77.8719864
  81.2555313  14.5113630  77.9955292  81.4811783  15.5551348  76.9228668
   6.0156975   5.2644854  60.7609062   6.8996396   5.1864977  61.1197891
   6.1235008   5.1085248  59.8226700  69.1951065  55.9471741  77.1193237
  68.8027420  56.2737350  76.3096085  68.6858749  56.3611107  77.8161545
  18.1948261   8.9823656  87.9108047  18.2862549   8.0442181  88.0773926
  18.5363789   9.4003916  88.7012634  45.4974518   1.1378472  51.4143219
  46.2982521   1.5981538  51.1631813  45.1281242   0.8306097  50.5864105
  12.5351667  65.3174438  19.8695526  12.5708694  64.9290085  20.7436676
  13.4500332  65.4883575  19.6458588  18.9270458  26.5888519  88.4913712
  19.8271904  26.7084465  88.1886063  18.4282494  26.4087696  87.6944962
   0.3200991  51.4935532  80.7298355  -0.5336077  51.1985054  80.4130325
   0.8179147  50.6869431  80.8632278   7.1787734  28.6034279  13.9817324
   6.6391454  28.1448975  14.6257687   7.7574353  27.9273129  13.6292400
  70.7742081  31.0276680  88.1178360  69.9743423  30.9396038  87.5994720
  70.4666367  31.1124725  89.0203018  15.3495321  48.7561798  12.1302147
  14.6116905  48.2376137  12.4510117  16.0661640  48.5498466  12.7302971
  82.6646271  22.8613377  37.7357788  81.8077164  23.2447147  37.5487823
  82.6816025  22.7657604  38.6880455  67.0375061  65.4224625  30.4886780
  66.8839417  65.3774109  31.4324055  66.3744888  66.0333481  30.1670246
  46.0108795  22.8223801  31.1325626  46.1443214  23.5077133  30.4777775
  45.9802513  22.0104103  30.6266003  80.4917297  33.4547615  81.0350876
  80.8502579  32.8802872  81.7115936  79.6654358  33.0421219  80.7837067
  49.0407753  14.3938036  57.1445885  48.9981003  15.3257427  57.3588333
  49.3577003  13.9779873  57.9463921  10.6439505  10.4308853  22.0044460
   9.8272829  10.4281416  22.5037231  10.8731537   9.5058374  21.9150848
  64.1801453  70.5878983  38.0347290  64.2525253  71.1389389  38.8140488
  64.4608459  71.1529770  37.3149185  78.8825226   9.9727440  34.0870781
  78.2508621   9.8674259  33.3756409  78.3501358  10.2066708  34.8473892
  56.1585236  15.9525137  73.7231598  55.3199043  16.4138355  73.7346039
  56.7745171  16.5845356  73.3525696  30.2257729  61.7496262  49.5471153
  30.9890060  62.2235832  49.8773766  30.2002602  61.9577789  48.6131706
  86.9864044  53.2868423   8.6636200  86.2858124  52.6736565   8.8859072
  86.8912277  53.9988174   9.2962866  77.9769135  65.1277390   1.4947695
  78.1623230  65.9873734   1.8727702  78.0531235  64.5208511   2.2310481
  43.9454269  21.1628628  73.4242783  44.0431595  22.1139488  73.4702530
  43.8780899  20.8845749  74.3376541  14.3776655  41.8344879  53.1151047
  13.9792147  41.0637856  53.5194435  13.6720572  42.2270813  52.6010818
  19.1307297  61.8515434  18.1628876  20.0774784  61.7114906  18.1459980
  18.8682270  61.8249512  17.2427692  79.9843369  29.9159203  67.5952377
  79.4489670  29.7312164  68.3669281  79.4602051  29.6004868  66.8590240
  57.5375061  71.2433548  79.1064301  56.6343880  71.1879959  78.7941055
  57.6682167  70.4370270  79.6054153  17.4065876   6.9232221  22.2165756
  17.6600075   6.3905501  21.4627380  16.8626404   6.3422365  22.7483730
  41.2384720  16.7943325  83.6931000  41.6462784  16.9674950  84.5415955
  40.6538010  16.0539417  83.8550110   0.7093561  20.2654705  20.8556576
   0.4914373  19.6553860  21.5603142   0.2007453  21.0517826  21.0537987
  74.8697662  46.2686729  87.6726837  74.1551971  46.0212440  87.0858307
  74.4516754  46.8050804  88.3462601   5.5883651  65.9374390  86.1305161
   6.4308357  66.0672913  86.5659637   5.5352335  64.9923019  85.9886551
  43.2621002   5.8160324  31.0348225  42.4458427   5.4504657  30.6937675
  43.7938271   5.9821157  30.2564182  68.9389801  35.0338554   0.2877324
  69.0510559  35.5203438   1.1044346  68.9377899  34.1146469   0.5547266
  46.6879807  44.6987953  55.0571785  47.3264618  45.1591454  55.6018333
  46.1452217  44.2160339  55.6805458  22.8214912  51.7086601  67.7648621
  23.4279900  50.9681549  67.7583008  21.9690132  51.3183479  67.9576416
  28.7183533  21.1604080  12.7821617  27.8886719  21.5232258  13.0923605
  28.9415588  21.6921310  12.0181713   9.0637074   4.7115073  77.2190170
   9.6938534   4.4706006  77.8980713   9.2948246   4.1602893  76.4713745
  67.3409729  35.0132866  50.5242386  66.7143707  35.6245575  50.1370125
  67.1744919  35.0638275  51.4654922  77.0602646  63.0861282  63.8315277
  76.3059845  63.2944603  64.3827820  77.2004471  62.1482658  63.9618874
  63.2187119  71.2846146  30.8326321  62.4538574  71.5953674  30.3482113
  63.9381638  71.3367996  30.2034245  57.6708641  49.8752747  32.0655289
  57.6622849  49.9106941  33.0220337  57.3470383  48.9993744  31.8553696
   2.0606308  71.4197083  48.1162300   1.4506166  71.9328613  47.5863304
   2.5814500  70.9326630  47.4776688  78.4895554  25.3686562  28.5800552
  79.2190170  25.3299885  27.9614887  77.8274155  25.8989563  28.1366825
  13.0224648  47.4240456  66.9468002  13.5342531  47.0501595  66.2294998
  13.6464491  47.9668770  67.4286804  53.5380478  46.5255547  88.5208130
  52.8022766  46.1497650  88.0374298  54.2324600  45.8708954  88.4470444
  31.8263817  38.5948715  78.6478043  31.7236214  37.9756546  79.3704605
  31.2600880  39.3306656  78.8805008  60.3620872  53.9107513  60.9197311
  60.9269676  53.4986382  61.5734138  60.5428391  53.4318542  60.1108932
  18.1720161  64.7231827  12.4241428  17.9357529  63.8083229  12.2710543
  17.3474541  65.1468201  12.6625996  68.7222977  29.0833740   9.6721563
  69.0448837  29.5802174  10.4240313  67.8059998  29.3465805   9.5864401
  46.6455917  25.1547947   0.4989974  46.4435234  25.0454960  -0.4302246
  46.5374565  24.2799778   0.8721361  43.7704010  36.4176712   8.3852081
  43.1699028  35.6833611   8.2570715  44.4661026  36.2728653   7.7439127
  22.4653568  46.9036407  30.4873924  22.4442348  45.9988785  30.1756401
  21.5498810  47.1828728  30.4744244  76.0410080  17.2530231  66.5796280
  76.7711868  17.8486710  66.7477722  76.2052994  16.9152603  65.6992035
  82.6904526  39.2090111  46.9478722  81.8553619  39.4034195  46.5223541
  82.4820557  39.1783371  47.8816109  86.3251877  47.3169327  61.9252853
  87.0568695  47.6518211  61.4068985  85.5524673  47.7384758  61.5492020
  17.0510044  18.6756649  10.3835955  17.9542408  18.7860889  10.0866060
  16.8292255  17.7752647  10.1462631  58.6138000  40.4764557  75.8758392
  59.0905876  41.2901230  75.7119827  59.2882042  39.7972755  75.8647614
  62.5549049  39.6225281  27.8333664  62.1659698  40.4967842  27.8080025
  61.8250008  39.0418167  28.0484200  73.6814499  36.4673042  72.9517593
  73.1760559  36.5044785  72.1397018  74.5612488  36.7474442  72.6993484
  24.5118122  55.1214447  75.5522766  24.4915619  54.3285751  75.0163956
  24.4054585  54.8066025  76.4499435  17.5537872  51.9867134  13.8011160
  17.9104633  51.2637520  13.2850351  17.3799381  51.6041374  14.6611404
  65.5685120  17.4477196  63.0395737  64.7679520  17.2638988  63.5310478
  65.2639084  17.6676922  62.1592026  58.4209938  11.5810061   2.4671142
  57.8707924  12.3639107   2.4910703  58.0319519  11.0356913   1.7833647
  40.5956154  36.9550934   5.7421646  41.1245499  37.5728416   5.2373381
  41.2350998  36.3817444   6.1647291  39.8600006  54.7091599  57.6574631
  39.3657761  54.3789597  56.9071732  39.5471725  54.1893578  58.3978539
  63.4886971   8.0938463  41.4367714  63.5515938   7.7781196  42.3382111
  63.7350082   9.0173531  41.4887161  34.0761642   8.5545874  71.2655640
  34.7072067   8.3032103  70.5911560  34.4079742   9.3852425  71.6063614
  43.2083054  43.1996994  22.0389099  42.5459442  43.0481491  22.7131081
  42.7094994  43.2726135  21.2252083  14.9634199  53.7594528  16.8952675
  14.4294815  54.5524597  16.8475094  15.8469019  54.0517006  16.6710300
  54.6494904  69.2160034  31.7532578  54.1037941  68.4296646  31.7420464
  54.9283180  69.3270187  30.8443241  36.6376038   9.8541403   0.2491133
  35.7832146  10.1967649   0.5115268  36.7715073   9.0897446   0.8094701
  23.6937656  67.6349869  28.0558281  22.9541531  67.8551331  27.4894905
  23.3619995  67.7645798  28.9442921   8.2834940  16.9335861   0.4193803
   7.6214190  16.8243313  -0.2632263   7.8652802  16.6019535   1.2139550
   7.5981421  19.2123623   4.0963483   7.4667497  19.9821835   4.6498327
   8.5441599  19.1779480   3.9545772  72.8540878  66.6774368  57.5461388
  73.1709976  67.2442474  56.8429146  73.4276123  66.8719559  58.2873955
  41.9082108  10.7290945  13.8882027  42.3050766  10.6370573  13.0220299
  42.2479820  11.5600719  14.2202654  21.0976372   1.9220332  87.1620331
  20.8842430   2.1724796  88.0609055  20.2570133   1.9329865  86.7043610
  27.9946308  55.1831665  79.2388611  27.0693512  54.9629860  79.3466034
  27.9935246  55.9463081  78.6610641  49.1658897  44.3042984  79.0501556
  49.3488312  43.8712425  78.2163544  48.6435852  43.6693268  79.5403061
  17.9673347  39.9714928  87.9467392  18.8633690  39.6731529  87.7907028
  17.5092087  39.1953697  88.2691956  59.3272209  54.3613434  45.8041115
  60.2696152  54.5143661  45.7354851  58.9685059  54.7054405  44.9860954
  15.5386505   6.7769208  17.6106091  15.3990765   7.5605955  18.1422138
  14.8327618   6.7969904  16.9644279  59.3069153  50.9486656  41.3365707
  59.9668159  51.1338921  42.0047417  59.3480186  49.9999962  41.2158470
  34.9322014  20.1247959  70.3549271  33.9884224  19.9655571  70.3423157
  35.0204086  21.0573215  70.1578293  75.1791000  70.9840088  55.7561531
  74.9504547  70.7368393  56.6521797  74.3524475  71.2716827  55.3687019
  43.9369965  51.2928085  38.9298706  44.4621010  50.4975433  39.0195808
  43.1943550  51.1571198  39.5183525  76.4901810  59.4553108  44.1556473
  76.7249908  59.5427094  43.2318192  76.4693451  58.5107307  44.3091545
  67.5921173  25.2827854  14.1715240  66.6484375  25.4031239  14.2774496
  67.8020020  25.7402191  13.3573160  70.3804474  42.7864113  57.6977806
  71.0155487  43.0274887  57.0234261  70.8925095  42.3058052  58.3481941
  48.4105186  64.7766800  43.5686569  47.9438820  65.1712646  42.8319168
  48.4448166  63.8435020  43.3583183  15.8648558  30.0940094  15.8376503
  16.6504192  29.7239361  16.2403488  16.1928940  30.6036758  15.0967970
  61.8712234  12.2603331  88.8790131  62.6666183  12.4963284  89.3563843
  62.0979347  12.3880863  87.9578629  72.5970840  53.3591270  70.4164124
  71.8589935  53.2384186  71.0138092  72.2035065  53.7089462  69.6170654
  10.9737453   2.0415604  86.8872147  10.9631681   2.5383925  86.0691223
  11.1453276   1.1393672  86.6173325  74.9416580  21.9299965  57.4187622
  75.4121857  22.3669796  56.7089157  75.2743988  22.3421631  58.2160263
  25.6351032  60.3857346  78.7689056  26.2995987  60.2483368  78.0937805
  25.7472229  61.2989235  79.0329971   7.4278455  66.3287964  41.0592537
   6.7145166  66.9629288  41.1318512   7.8837137  66.5723038  40.2535706
  75.2718735  45.2924843  80.9755096  75.3297577  44.4388657  81.4047165
  74.3410263  45.3995361  80.7798080  48.6757317  12.8887453  13.4349022
  49.1367798  12.2664022  13.9973583  48.7097321  12.4945765  12.5632906
  83.3772888  38.9315987  12.4826736  84.2191772  39.0765419  12.9144793
  82.7954483  39.5880356  12.8657970   0.5476708   2.0814548  51.3077850
   0.4673880   2.2287827  52.2501678   1.1258092   1.3223031  51.2324409
  60.9640808  66.4998550  34.6829758  60.9515495  67.4447250  34.8355827
  60.0749893  66.2918091  34.3958015  50.3034630  45.5257568   4.2059965
  49.3851013  45.3206635   4.0305452  50.6403465  44.7506561   4.6553950
  26.7826195  53.6208153  24.1642475  27.4935303  54.2617645  24.1596680
  25.9872379  54.1446419  24.0683060  55.9411583  31.7899933  62.2603683
  55.3181877  31.0923386  62.0568466  55.8931618  31.8839340  63.2117348
  11.8461752  12.5364370  75.8671265  11.4683819  11.7793207  75.4196014
  11.4687061  12.5079298  76.7462921  19.7920265   1.2952882  26.2772694
  20.6673794   1.5571878  26.5625725  19.4273529   2.0814750  25.8708763
  55.3540077  61.4250641  43.6395340  55.2012634  62.2841835  44.0329971
  54.6016045  60.8997307  43.9118309  27.4031010  63.8371887  16.0932541
  26.7798767  63.2524414  15.6621008  27.1089249  64.7169189  15.8570929
  66.5399323  56.8477707  15.5066967  65.6763611  56.4373703  15.4615021
  66.3892593  57.6726227  15.9683752  10.9941521  32.1193848  86.3733292
  10.4441996  31.5690880  86.9309616  11.2445393  32.8537788  86.9338608
  13.4210682   6.1532269  77.4769135  14.2999001   6.5039811  77.6213379
  13.2987785   6.1965036  76.5285492  86.5103836   5.9177966  64.4127350
  86.9073334   6.2667861  65.2107773  85.5710220   6.0585327  64.5311508
   4.5208426  54.4642601  68.5628738   5.2468367  53.8722763  68.3661118
   4.1100879  54.0889168  69.3417435  86.8232269  32.9765549  74.0092316
  86.4108200  33.3617859  73.2360840  86.5924835  33.5695534  74.7243118
  83.0990143  57.7491302  41.2335777  83.2018967  56.9048996  41.6728058
  83.7432938  57.7310257  40.5259056  43.4762306  51.4017982   4.0953817
  44.1145020  51.2210960   4.7854447  43.6433640  50.7313232   3.4329894
  80.9748993  51.4596291  55.2020760  81.8603134  51.0987511  55.1568794
  80.5051117  50.8685989  55.7904778  36.0054054   0.6239422  69.1382751
  36.5329552   0.6071483  68.3397522  35.3677979  -0.0799412  69.0189438
  65.5208893  12.6568193  46.0901375  66.4698792  12.5317869  46.0952263
  65.1889038  11.9954081  46.6972198  10.3684330  59.5046272  83.7078934
   9.8941717  59.6948929  84.5172806   9.9726267  60.0837364  83.0565872
  24.6914062   6.5741286  67.4351196  25.3876534   6.4428587  66.7915039
  23.8824635   6.4157982  66.9485245  27.8813286  64.7746429  59.9867554
  26.9515152  64.6456833  59.7995415  28.3296700  64.1543503  59.4118996
  47.0450249  46.4372559  39.3411255  47.9446144  46.7223663  39.1808624
  47.0606308  45.4937248  39.1806984  76.9368515  29.4533520   1.0859925
  76.7500763  28.9091148   1.8509444  77.5887985  30.0831223   1.3935335
   7.5801601  52.5643959  61.2778549   7.3530798  52.8876457  60.4059715
   7.1672320  53.1849213  61.8784103   0.1625032  69.1353455  36.6950378
  -0.5910631  69.0473328  37.2786674   0.9191591  68.9500580  37.2512512
  23.3715267   0.7815059  50.4710503  23.4297981   1.7302694  50.5836754
  22.7932243   0.4916315  51.1765785  24.7098064  60.4608688  59.7519417
  24.9747906  59.6738205  60.2279358  23.7531719  60.4484901  59.7823792
  14.5585375  12.7670288  76.0209122  14.7360697  12.5254602  75.1118698
  13.6147509  12.9245787  76.0469208  84.9745483  49.7834854  84.1789780
  85.0810013  49.1329079  83.4849625  84.4887009  49.3250389  84.8645477
  75.7835236  26.0078316  67.4459076  75.0812759  25.4381161  67.7597733
  75.5829926  26.1475639  66.5204391  27.9207516  23.7491589  85.9292374
  28.4848385  23.1643047  86.4351807  27.8528614  23.3324986  85.0701523
  16.7540493  39.5931282  64.0279465  16.9479141  40.4973869  63.7810402
  15.9608622  39.6549683  64.5601730  71.9047546  32.6367149  50.7376175
  72.1257553  32.7866554  49.8184280  70.9569092  32.7633858  50.7798080
  81.0232239  32.5781860  29.3347111  81.8887482  32.9401779  29.1448078
  80.4429855  32.9996033  28.7007065   6.7437887  39.4594040  57.7738266
   6.5700026  38.9186211  58.5442734   7.6977491  39.4649506  57.6953354
  15.9423494  45.7644501  53.8585701  15.8295593  45.6902771  54.8062019
  15.1134624  46.1273842  53.5463905  79.4874115  34.7206306  27.9825764
  79.5121765  35.3878555  28.6684570  78.6356277  34.2975311  28.0906715
   0.4574988  53.6911469  70.5328522   1.3886508  53.5385666  70.6938171
   0.4051059  54.6147919  70.2871628  13.6159420  65.3014603  82.7952271
  14.4466295  65.0907516  82.3688583  13.8318768  66.0070496  83.4049377
  25.7379322  35.2217979  75.2949295  25.5846577  35.6565514  74.4560394
  26.6426964  34.9136429  75.2432098  78.1083145  48.4844933  21.8868313
  78.2624893  48.9127960  21.0447979  78.2730255  47.5569115  21.7174416
  42.6317520  68.8272018  32.9400597  42.2458954  69.1163330  32.1131706
  43.0192604  67.9754333  32.7386589  76.8106155  38.4131126  66.9215622
  76.2985916  37.6285820  66.7251663  76.3551788  39.1178780  66.4610062
   9.9608269  67.9004822  61.2385902  10.5135612  67.6425018  61.9762650
  10.5791445  68.1423035  60.5490723  24.8672791  43.1899796  66.2361603
  24.0582771  43.6935387  66.1457214  25.2137890  43.1314850  65.3458023
  85.8714828  21.2699547  71.8674545  85.6214905  21.9525719  72.4901657
  85.0573120  21.0480709  71.4156570  38.1230392  63.8601875  31.0788860
  38.9471207  63.3924866  31.2144585  37.8092537  63.5511436  30.2290249
  34.5864487  21.9919147  10.2684250  34.8970985  22.8816071  10.4362726
  35.3849907  21.4784222  10.1464167  14.2445536  25.2792149  71.9110184
  14.3991880  24.4068298  72.2733231  14.4449272  25.1905575  70.9792328
   3.6802044  14.5751686  74.0657578   3.6314132  13.7450438  74.5398254
   4.0923719  14.3506956  73.2315140  38.7970886  28.2477150  81.7012482
  38.4300079  27.4090157  81.9806595  39.5415154  28.3900204  82.2858887
  13.3702583  33.7105637  85.2205353  12.7235088  33.1147804  85.5986786
  14.1868296  33.2111320  85.2239838  34.8535805  63.1856079  67.4190292
  35.5398178  62.5784035  67.6958160  34.6715355  62.9435272  66.5110168
  42.2296791  58.8948441  63.8574066  42.1249313  59.5454636  63.1631775
  41.5267563  59.0904160  64.4769897  47.5813904  53.5576782  58.4920006
  47.1705132  54.0464973  59.2050705  47.0629425  53.7806854  57.7188797
  78.6654053  43.6780052  28.8150578  79.4856720  43.3812714  29.2091923
  78.9095612  44.4525261  28.3083649  45.1172714  44.3129997   0.2281994
  44.4508667  43.7851601  -0.2117139  44.9262543  44.2113914   1.1606266
  64.4988556  13.1261415  13.6153717  63.5931702  13.0797348  13.9216557
  64.8588181  12.2585936  13.7998152  87.0261917  12.6109228  54.2591782
  86.4357605  12.5315008  53.5099716  86.5669098  12.1699219  54.9738846
  45.7450294  70.1126709  49.7089500  46.0384674  69.2016220  49.6977882
  46.5244637  70.6181870  49.4783783  10.6236887  14.9714737  81.1148682
  10.6759777  15.5375500  81.8849716  11.3508835  14.3577957  81.2188873
  62.4101219   4.7265549  82.9819336  62.8547630   3.9584656  82.6233826
  62.2572365   4.5074553  83.9010925  27.6484776  55.2434006  33.3807373
  27.9490604  54.9354858  34.2357635  28.1712570  56.0270691  33.2110405
  23.2464123  60.9123077  13.1699467  23.9402275  61.1293411  13.7926416
  22.5029755  61.4500160  13.4427090  54.4393120   4.3173327  10.5599022
  54.2665443   4.4267654   9.6248045  55.3923721   4.2532072  10.6214857
  86.1034775  31.0122967  56.1802673  86.3990707  31.0703754  55.2717056
  85.4286499  30.3335342  56.1696587  16.5020237  19.5709820  85.8790665
  15.8202906  20.2411880  85.8311691  16.7273560  19.3928661  84.9659729
  62.8350258  30.7415791  67.4874344  62.4951210  31.6322441  67.5735397
  63.4677505  30.6566925  68.2006531  75.9001312   4.5555072  65.4464569
  75.8615494   5.4197693  65.8560867  75.7770004   4.7272253  64.5128708
  10.7402544  21.4309940  72.2012939  10.3882933  20.6091003  72.5431213
  11.3781309  21.1618633  71.5402985   0.3824318  69.2084885  48.1629906
   0.7061718  69.8880310  48.7543030   0.7235214  68.3916626  48.5272369
  75.4180679  14.5078163  80.3025284  74.9628601  13.8947153  80.8796921
  75.2956314  15.3622179  80.7163315  86.5562820  19.0735359  23.1030350
  86.1789474  18.2075138  23.2574921  86.2955170  19.5881157  23.8668671
   4.2274199  45.6197739  88.9694519   4.9695873  46.2241974  88.9789963
   3.4810898  46.1609497  88.7118607  44.9344902  71.0313263  82.7419128
  45.0674896  71.5111771  81.9244232  44.0001411  71.1269913  82.9264984
  24.3312912  65.4730530  13.3595638  23.5194359  65.0508270  13.0787649
  24.1249733  65.8414383  14.2186089   3.8295228  55.2596893  54.8073921
   3.2835193  54.8772125  55.4942856   3.2952409  55.1995697  54.0154572
  23.3218975  58.3026886  87.8326111  23.9805641  58.0921745  87.1707382
  22.8353577  59.0384026  87.4608154  66.6886444  62.8344688  24.3484764
  67.3715744  63.1298485  24.9506283  66.5824814  63.5594215  23.7325191
   0.6725327  49.3889046  42.7875977   1.0105630  50.2069130  42.4231453
   1.1067312  48.7031479  42.2802086   3.0555086  39.0134926  69.9710159
   2.3643346  38.4911156  70.3779984   3.6280301  38.3697815  69.5537796
  56.9025650   9.8707390  69.5731735  57.4020386  10.2392550  68.8445129
  56.6405182   9.0018892  69.2687683  66.6295319  35.3226471  17.1645966
  66.9630203  34.8134422  17.9033260  65.7177353  35.0455017  17.0748367
  46.9255981  33.4284821   8.7555656  47.7949944  33.8230286   8.8242340
  46.5741310  33.4670677   9.6450672  55.3406601  29.4175777  79.9927597
  55.7326698  30.2043514  80.3716354  55.9125214  28.7044697  80.2768097
  10.7301846  48.2717171  80.8471909  11.5181780  47.8402443  81.1775436
  10.9910011  48.6297035  79.9986343  64.0024185   7.4673181   2.0022128
  63.4483185   7.7071733   2.7449620  64.3280334   8.3025770   1.6667298
   0.9468328  17.6290112  37.0825768   1.2953717  18.5196533  37.0437393
   0.1175500  17.6753807  36.6067886  45.5239182  56.1914558   3.4348485
  46.3741455  56.2955208   3.0076284  45.7225914  55.7456894   4.2582889
  41.9051704  13.8665571  76.0229721  42.2273254  13.1319227  76.5452347
  41.3977394  13.4576759  75.3218536  24.2773609  60.6335068   5.9600253
  24.4838886  61.5404510   5.7341313  23.7715683  60.3101997   5.2144527
  16.8920078  55.2845116  35.1029015  17.2069683  55.1436882  35.9957619
  17.2454548  54.5472374  34.6051674  82.6338120  34.0047836  67.4547577
  83.1470337  34.3590240  66.7285690  82.5240555  33.0782509  67.2409210
  35.6233368   3.6745167  78.6675644  34.7745819   4.1091809  78.5844116
  35.7414818   3.2183793  77.8343735  74.3148804  19.2692833  13.8517637
  74.9665680  18.9981079  14.4982901  73.8023911  19.9441929  14.2968264
  75.6105881  54.8382416  33.5582886  74.7210464  55.1361771  33.3680725
  75.5214691  54.3084831  34.3505325  67.4103928  32.0795403  43.5125237
  67.0102768  32.4180870  44.3134766  67.0291367  32.6089249  42.8120766
  79.7139130  51.9693108   5.8020072  80.5185852  51.4525146   5.8426595
  79.6922073  52.3087502   4.9072776  84.6849899  30.9159985   6.5957260
  84.2119675  31.7239685   6.7948909  84.9649048  30.5856915   7.4494095
  30.7478428  46.2606583  22.7572727  31.6741352  46.4990425  22.7945423
  30.4550285  46.2943382  23.6679630  72.9865875  16.3747387  75.8511581
  72.1355286  16.3407154  75.4143829  72.9960403  15.6032829  76.4177246
  36.8683968  46.7655144  46.4184036  36.6319199  47.2954597  45.6571770
  36.0443878  46.3665428  46.6978073  62.5760574  10.5605459   6.3628774
  62.5604477   9.8578434   7.0126443  62.8195572  11.3412933   6.8602452
  26.4551525  54.5974083  65.6863480  25.5174637  54.5797958  65.8778229
  26.7874870  55.3437119  66.1851654  38.6759605  39.1363564  32.6186218
  37.8201942  38.7088394  32.6520882  39.2017670  38.5754700  32.0483894
  45.9292603  56.3539963  76.6969757  46.1068764  55.4354973  76.8995895
  46.7935181  56.7644653  76.6685944  59.5860100  34.1793671  28.4573479
  59.5503654  33.5628777  27.7259808  60.2700996  34.8024254  28.2122841
  54.9466629  57.9451485  73.6326981  54.1994362  58.4185295  73.2669220
  54.5890160  57.0955467  73.8905640   0.2807749  15.4201241  81.9328156
   0.7880142  16.1570816  81.5924759   0.0233611  15.6929140  82.8134766
  75.6503601  54.2835045  55.6844864  75.6852570  53.4946251  56.2254906
  75.3706589  53.9715424  54.8238602  46.8728905  44.5555458  47.8237457
  46.0646095  44.0467339  47.8871727  46.7869644  45.2269859  48.5005150
   8.8719769  30.5493813  87.9352875   8.8037643  30.3969975  86.9927597
   7.9696407  30.5030594  88.2513199   4.1130519  28.0597553  24.8124046
   3.2715056  27.6788044  25.0632191   4.4568114  28.4357243  25.6227798
  41.1731224  44.7889366  27.9673862  40.5533905  45.2607803  28.5237427
  41.1131325  45.2259369  27.1178761  27.2486172  10.6163683  83.4747162
  27.0294952  11.0714340  84.2878189  28.0561237  11.0347691  83.1762085
  51.0223351  43.7248230  31.1246910  50.0888863  43.7385597  31.3361530
  51.0728607  43.2513809  30.2943096  36.0155716  43.4657440  48.5553856
  35.3877182  44.1049767  48.8921585  36.7825851  43.5631638  49.1196823
  84.9544983  41.2154808  35.0755005  85.2457733  40.4168053  34.6356087
  85.1816330  41.0787849  35.9952621   3.7829392   1.0999106  15.0398712
   3.9383876   0.5784737  14.2523623   4.4087243   1.8214650  14.9767523
  78.4257584  13.0978184  31.4440193  79.2549820  12.6883287  31.1971607
  78.4120712  13.0536003  32.4001007  17.2854309  16.2685642   7.5499387
  16.7327805  15.7287416   6.9847822  16.9906178  16.0656433   8.4377117
  14.5614538  40.9622803  36.1753845  13.7163763  40.6228218  36.4700775
  14.8008051  40.4013290  35.4376335  75.6563797  47.4493256  83.3384552
  75.9961929  47.1375160  82.4996872  76.4346161  47.7151604  83.8282547
  71.8156815  13.6210966  72.2122955  72.5938950  14.0428658  71.8479767
  71.1349564  14.2923355  72.1645813  38.0260963  50.2669907  64.5801849
  38.5950165  50.8700752  65.0585709  38.3307076  50.3181610  63.6741867
  64.8967590  10.5891466  87.4805298  65.7812195  10.2827635  87.2802963
  64.3248215  10.0300722  86.9546432   2.4745932  62.0424118  69.1754837
   2.1093290  61.2100410  68.8755341   2.0039301  62.2318916  69.9871521
  24.5769596  45.7344551  76.4939499  23.6877384  45.3803329  76.5046387
  25.1418915  44.9623489  76.4632797  61.2527657  70.6114273  62.7582893
  61.6379242  69.9590225  62.1732635  61.6937523  70.4717255  63.5962906
  35.2190704  47.4600754  80.8557434  34.4185867  47.1007423  80.4732132
  35.5466499  48.0710144  80.1956863  81.6272278  71.8194656  54.5474358
  80.8387527  72.1976700  54.9366760  81.3823853  70.9180450  54.3383369
  85.9960327   6.9886374  86.3069763  86.9475937   7.0793424  86.3573380
  85.6598740   7.8497882  86.5552673  10.1281185   5.7345405  25.3471222
   9.8854580   6.5993886  25.6778584   9.5923872   5.1250067  25.8547573
  26.2803974  48.9792061  21.9590836  27.0495377  49.0109901  21.3901844
  26.2037659  49.8672142  22.3080788  74.2022934  29.7155895   0.7466452
  74.0620651  29.2681484  -0.0878404  75.1540298  29.7757473   0.8291950
  45.5225105  55.0286446  87.2610321  45.9898911  55.8232079  87.5188141
  46.1111183  54.5941277  86.6438065  60.0215988   4.1956301  32.2312508
  59.2888985   4.7705822  32.0103111  59.6579704   3.3119621  32.1752319
  43.3959045   5.9159894  21.4492970  42.6182632   6.0227094  20.9014683
  43.0590439   5.9123964  22.3452568  22.5939274  49.1829796  24.6499519
  22.4654636  48.3307724  25.0664501  22.6003838  49.8061142  25.3765144
  51.7251244  45.6648598  86.5769348  51.9682922  45.1391029  85.8149109
  51.4510727  46.5055275  86.2103271  51.8459473  31.9678345   8.6700077
  52.7626076  31.8192425   8.4378834  51.7582474  31.5976067   9.5483427
  76.4478073  12.7024937  16.5159874  76.7993851  13.0763311  15.7079802
  75.5327301  12.5093012  16.3121777  10.9933395  24.0924664  72.7891998
  11.0161829  24.4078751  71.8857422  10.8771381  23.1456947  72.7094879
  75.8145599  20.7535114  28.7477150  75.3990402  21.1939507  28.0063744
  76.6526947  20.4446278  28.4036827   3.3495655  69.7658615  86.6894608
   3.5077581  70.3249512  87.4501419   4.1449261  69.8469162  86.1630936
  15.4686337   0.2442549  60.2615395  14.8732681   0.3133991  61.0078583
  16.2447147   0.7372479  60.5277863  80.0202332   6.8223300  64.1230087
  79.2580719   6.9144058  63.5512924  80.4184875   5.9927554  63.8595047
  34.8709030  70.6831970   7.9210548  35.3770905  70.1556931   7.3032002
  34.1629143  70.1052246   8.2055378  19.6224232  61.5932579  83.0099106
  18.7544727  61.2173882  82.8628922  19.8462181  62.0116043  82.1785660
  82.5082397  29.7284698  25.8701115  81.6479416  29.5428638  25.4937210
  83.0862350  29.0715122  25.4820862  17.1374016  60.2899780   1.8553811
  16.5413361  60.0042152   2.5476801  17.9189014  59.7502098   1.9742899
  65.9488525  26.8710232   4.8156710  65.2363281  26.9667416   5.4476342
  66.1489792  25.9349899   4.8203082  79.4359360  18.7676506  22.5340042
  78.7274475  18.8149376  23.1759071  80.1961212  19.1297894  22.9892082
  44.1645889  40.2271767  80.3764572  45.1213837  40.2452888  80.3552933
  43.8984413  40.9126053  79.7636108   2.3286309   9.2537766  21.4133911
   2.9116039  10.0002575  21.2750416   1.4524094   9.5993710  21.2430038
  52.7376137  49.6754761  29.3892899  52.2312241  49.8798027  30.1754532
  53.0386238  48.7770424  29.5250683  23.3923874   4.7928767  78.0137939
  23.9118462   5.5337763  77.7016068  22.8941059   5.1438069  78.7518997
  52.8309441  14.3441162  85.4676895  52.3967705  13.5198717  85.6875687
  52.1181221  14.9791346  85.3979340  73.2366028  63.0302086  49.2956467
  72.7773895  63.6590424  49.8523483  72.6791382  62.9430542  48.5224266
  82.7007446  67.0345001  59.4763184  82.5351334  66.4611664  60.2247162
  81.8778610  67.5068054  59.3497162  52.2794991   2.4108813  36.6211014
  51.4354439   2.1631191  36.9984856  52.1486588   2.3415132  35.6754265
  46.1840744  22.5313129  76.3932190  46.7452316  22.8137093  75.6710129
  46.3738213  23.1488266  77.0995560  67.9932938   1.7401496  56.1928596
  67.0594788   1.5468097  56.2755775  68.3353195   1.0375030  55.6401024
  74.8371964   7.7040148   9.4479923  74.4890060   7.4498973   8.5933447
  75.7863998   7.7181153   9.3253422  28.7250080  70.5458069  73.4011917
  29.5758572  70.1478119  73.5852814  28.8957653  71.1544266  72.6824036
  82.0890732  71.7825546  82.0882721  82.4772110  71.5398560  81.2476349
  82.2824783  71.0426483  82.6639099  42.9041138  65.8115616   8.9623480
  43.6202583  65.7158737   8.3344841  42.4083977  66.5672073   8.6469126
  49.8577461  14.5636492  67.4840393  49.3740845  15.3896446  67.4779739
  50.2891579  14.5324392  66.6301422  72.2325745  47.2052002  68.7038422
  72.3120422  46.4388046  69.2717819  72.9599762  47.1227646  68.0871429
  49.7798996  27.7266541   3.0880251  50.5311928  28.0890236   2.6184757
  50.1429558  27.0030899   3.5987864  53.6464310  69.4560089   7.6381998
  54.4557800  69.2014923   8.0813799  53.0984230  68.6719055   7.6713586
  73.8127823  68.4037476  59.5184326  73.8229752  69.0951233  58.8565216
  73.2972031  68.7684174  60.2377586  36.2781372  69.4709473  50.5757713
  36.3815918  70.4119568  50.4342270  35.6593285  69.4047394  51.3030434
  54.3347282  44.7416573  77.9333649  54.0784340  45.5016289  78.4558411
  53.7720642  44.0340271  78.2478485   1.0332724  59.0408020  38.9094696
   0.6935096  58.5415993  39.6521606   1.3579161  59.8541069  39.2959595
  50.1142769  46.5451469  38.4551582  50.5477371  45.7418251  38.1670341
  50.2250862  47.1526451  37.7237930  82.8668137   1.3438510  58.8570786
  81.9255600   1.1699314  58.8612556  83.0548401   1.6656371  59.7387428
  72.6949844  54.0067902  42.4535255  72.2209549  53.2320633  42.7557259
  72.7272186  53.9116745  41.5016098  46.3694267  44.2314186  27.2268829
  45.5934334  44.3661118  26.6828938  46.0211411  44.0369339  28.0969982
  81.7257690  57.2839584  17.8241215  82.0601959  56.7428856  18.5394058
  82.4558182  57.3444061  17.2080002  70.7150955  67.7558136  77.8444061
  70.1950455  67.9507828  78.6239929  71.2401352  66.9943924  78.0909958
  26.8698921  22.6559906  13.9603081  27.3702831  23.2117653  14.5577660
  26.0562897  22.4715042  14.4296150  71.4552155  20.5534191  34.3813438
  71.1568069  19.8016548  33.8694458  71.1282272  20.3862686  35.2652969
  19.8882847  33.1425705   8.9688921  20.5551434  33.6151581   8.4707012
  19.5493279  33.7887878   9.5883646  18.0098591  23.8135433   4.7669272
  17.2063942  23.6729469   5.2678361  18.1041775  24.7652760   4.7276611
  43.1376419  14.1125317  25.6179237  43.4440117  13.9081078  26.5014267
  43.9312325  14.3496170  25.1380978  70.9735870  52.4933319   2.6556518
  71.0325775  53.3038292   3.1614635  70.1506577  52.0941849   2.9379499
  63.3117981  66.6988297  14.7703457  62.6377296  66.0527496  14.9811888
  62.9060364  67.2618942  14.1111431  35.7946663  42.4510727  88.5645981
  35.6317520  43.2958336  88.9841995  36.2355270  42.6721840  87.7442398
  18.3124580  41.6987839  24.0800476  19.2612667  41.8208275  24.1131992
  18.1904125  40.7515869  24.1445255  68.2743454   1.2596369  68.7306519
  67.3708344   1.3727096  68.4355087  68.7598572   1.9556215  68.2878036
  19.7534294   4.1213565  54.2872887  20.3997898   3.8143470  54.9230537
  19.0101833   4.4053125  54.8194427  32.5053864  37.1681557  58.2794266
  33.1385002  37.5811653  57.6922112  32.2491760  36.3639336  57.8279686
  82.2840652  12.8448019  68.9580536  82.9390488  12.1625147  68.8106995
  82.7513962  13.5245953  69.4435577  55.4906044  57.8579712  41.2754898
  56.1261101  57.5924644  41.9402199  55.6460838  58.7948914  41.1561813
  82.1951828  21.3481941  10.8165264  81.6910248  20.8415089  11.4531803
  81.5341110  21.7513084  10.2537527  30.3891640   9.9229155  16.9865761
  31.0632286   9.2433538  16.9785805  30.6802616  10.5411358  17.6568737
  31.9154949  51.3476830  29.7743320  31.6198425  51.3970490  28.8652744
  31.1160564  51.1954269  30.2782612  11.5941210  53.1581421  32.7205887
  12.2920399  53.2054787  33.3739624  10.7853212  53.1800690  33.2320518
  20.5939522  47.8402023  48.8099861  20.5867805  48.4577484  49.5413017
  21.2446785  48.1943130  48.2038574  69.9960175  10.0341234  19.2765293
  70.5453110  10.3439426  19.9966125  70.1796494   9.0963135  19.2215633
  17.2694836  18.9263916   2.6725600  17.5377274  19.7063274   3.1583359
  17.1869698  19.2249317   1.7668573  55.7657509  62.9750366   3.3400276
  55.9620476  63.0260429   4.2754946  54.8141556  63.0654182   3.2897036
  18.5849113  66.2369232  66.1801529  19.2170486  65.7371063  65.6636047
  17.7608986  66.1484528  65.7011871  75.4225769   8.8891525   5.0397487
  76.1307373   8.3849010   5.4403296  75.7816620   9.1830091   4.2025285
  58.2771072  53.6888237   8.3782730  58.3843880  53.2753334   7.5216804
  57.3720093  53.4981689   8.6245937  35.3793602  55.0160179   6.1687474
  34.6500320  55.5740051   6.4388623  35.4847069  55.1951599   5.2343802
  23.7077656  18.1839352  84.5670776  22.9070930  18.6972237  84.4589615
  24.3872967  18.7079391  84.1429443  54.5891647  62.0661163  53.3052559
  54.9515381  62.8136024  53.7808380  54.6720047  62.3063965  52.3824120
  26.2489471  68.5842438  27.6642284  26.8674126  67.8858643  27.8787155
  25.3868752  68.1851120  27.7815208  55.1139297  29.4667740  20.4656239
  55.8430672  29.8692951  20.9373932  55.2502785  28.5253448  20.5721741
  62.9274025  12.8027325  63.1195564  62.7744827  11.8599386  63.1826897
  62.6467934  13.1481686  63.9670029  14.5638552  16.6328316  69.5152435
  14.3781958  17.5547752  69.6935120  14.4465227  16.1972828  70.3594971
  41.0628204  37.2073517  26.3427010  40.9970322  36.3607597  26.7844982
  41.9991341  37.4062195  26.3442745  69.9875641  16.7778873  63.3185539
  69.4979630  15.9554043  63.3250122  69.4388351  17.3793201  62.8151588
  76.4260178  37.4801941  29.9856930  76.6598892  38.1229134  30.6553574
  77.2318268  36.9855118  29.8367062  75.4329147  55.1561623  48.5662804
  76.1110229  55.5852776  49.0880585  75.7311935  54.2503357  48.4841995
  50.7785339  35.0790100  16.5590000  50.3281937  34.2512207  16.7269058
  51.5203285  34.8397064  16.0033875  81.0027008   7.8295851  13.0911531
  80.1345901   7.8923659  13.4894857  81.2630005   6.9184527  13.2264881
  86.1411972  42.5510025  42.5476608  86.6323242  42.4400101  41.7335930
  85.5670166  43.2985077  42.3809662  69.9108963  40.8674240   5.0669422
  69.9620743  40.3415489   4.2687769  70.7774353  40.7837639   5.4648619
  45.8437195  67.3108902  49.4978180  44.9534492  67.1245193  49.7959976
  46.0700951  66.5668564  48.9397850  15.2428436  37.2713814   8.6018991
  14.5179386  37.2859612   7.9769731  15.6121817  38.1535034   8.5609102
  74.3046036  54.7890701  12.7488241  74.1002655  55.4866753  12.1260672
  73.5378189  54.7458458  13.3201408  81.2953796  59.9875488  33.1791039
  81.6116791  59.2260704  32.6929626  80.5435944  59.6608086  33.6733589
  60.5274467  23.1845779  18.0989933  59.5759239  23.0903034  18.0548954
  60.7739906  23.5294571  17.2407932   8.4673233  65.3815460  69.7430725
   7.7664776  65.2619705  69.1021805   8.8782148  64.5197983  69.8122482
  72.3765335  56.1688118  44.0377884  72.9345627  55.9301682  44.7779846
  72.4180679  55.4122810  43.4528389  71.0005798  23.2997494  15.7857609
  70.8251495  24.2402935  15.8146601  70.1397858  22.8924656  15.8826323
  81.6355515   3.9110425   4.7314787  81.6664886   3.5197387   3.8584633
  80.7391357   3.7587142   5.0305958  81.2201767  67.4279785  17.0832787
  80.5497437  67.1793289  16.4469395  81.3099365  66.6608887  17.6487350
  64.4431381  20.4801731  36.1119156  65.3444824  20.7196941  36.3274422
  64.5031586  20.0761299  35.2462463  16.3296547  62.5335426  83.8140717
  16.2312851  63.3063698  83.2579269  16.2493858  61.7935677  83.2122192
  72.8117142  19.7004223  52.8984413  72.6305008  18.7915859  53.1380463
  72.5183640  20.2102585  53.6535873  17.5208683  65.0085678  70.9623032
  17.0969486  64.9196014  71.8158951  17.2148933  65.8523560  70.6297073
  71.3817291  17.5247879  14.2322359  70.8655319  17.4563408  13.4290619
  71.2466736  18.4251575  14.5277462  77.5924072  44.4712448  37.6735992
  77.4307556  44.9347038  36.8518257  77.1770248  43.6173820  37.5527344
  15.5535021   1.6782542   0.7905624  15.9145870   2.0451305   1.5975640
  15.0493937   2.3953574   0.4060241   9.9161320  38.6823044  79.0477448
  10.8533859  38.4900589  79.0189819   9.7169838  38.7643814  79.9804001
  70.0195618  17.7335434  57.4020576  69.8972549  18.3751678  56.7023506
  69.3800430  17.0471401  57.2120781  41.9535904  53.4227219  10.3259602
  41.7656212  54.2566833   9.8953695  41.8256645  52.7656975   9.6417208
   5.2630072  49.5823631  72.2828293   4.6842031  48.8266945  72.3837280
   5.1653666  50.0697556  73.1008453  75.1964493  13.3083124  27.7571564
  74.3002701  13.6059780  27.6006737  75.2270966  13.1239052  28.6959248
  18.2732372  26.0844345  26.1385784  17.9937401  26.3398647  27.0177078
  18.8248615  26.8086147  25.8427639  77.3726578   8.8478012  67.8378983
  77.8137817   8.0145626  67.6725006  77.4865189   8.9969110  68.7765274
  70.3433914  31.1352844   7.1364040  69.9861755  31.6013145   7.8923416
  71.0839844  30.6410294   7.4877944  78.3002701  32.2861671  35.7811546
  78.6842651  32.1743813  36.6508026  78.8059692  32.9960556  35.3854866
  55.6709328  29.3939438  33.8408051  55.3803215  28.5009251  33.6556206
  56.3507004  29.2913380  34.5068550  30.3320312  28.9123325  10.1669369
  29.8098526  28.2270088   9.7499294  31.2059689  28.5307064  10.2495451
  76.6787796  58.6868515  86.6633835  75.9305344  58.1557655  86.9359818
  77.2832031  58.6474037  87.4045639  80.8898010  47.1698875  82.6973801
  81.6057281  47.7065277  82.3572464  81.2344437  46.2769356  82.6879883
  11.0723429  71.7665710   9.7796650  11.3924990  71.1218262   9.1487617
  10.9800758  71.2767181  10.5968304   6.4899416   8.0843353  32.4155540
   5.8685713   8.7795229  32.1991196   7.2696309   8.2909994  31.9001846
  25.3852692  34.9218521  85.8288193  25.9673367  34.6471596  85.1203232
  24.6502476  34.3102036  85.7856903  14.5077620  61.7514458  85.5554504
  13.6405535  61.9196587  85.1868210  15.1161041  62.1158829  84.9125366
   9.9129610  61.7097282  31.0025253  10.1324520  61.0575142  30.3371887
   9.6431818  61.1947327  31.7629414  67.2339325   4.3325529   7.0730224
  67.3062973   3.7130485   7.7991142  66.3048782   4.5612540   7.0449996
  75.5328140  42.9849205  47.2836723  76.2023010  43.6014175  47.5802345
  74.7587280  43.5269623  47.1313171  14.2990246  51.5256157  53.7933960
  13.4320211  51.1728020  53.9935455  14.5146980  52.0735321  54.5480499
  11.7375755  50.3205338  40.6212502  11.6999779  50.4733658  39.6770782
  10.8986416  50.6437683  40.9497948  53.3169899  63.0474091  38.5438881
  54.1401672  63.1648445  39.0180397  53.5700722  63.0484123  37.6207504
  60.1934128  39.1331863  57.7438812  60.9511757  39.1142006  58.3284073
  59.5846672  38.4975281  58.1201820  36.3645020   0.2711580  15.0708876
  36.9847336   0.9061461  15.4291267  36.9144669  -0.3896756  14.6500931
   5.7635541   3.2487962  11.2422886   5.6218848   3.9862499  10.6487198
   6.3000860   3.6092424  11.9482946  22.8725853  38.7145424  17.3912792
  22.0926590  38.5174828  17.9100399  23.5888062  38.7149925  18.0263042
  18.7319584  48.1750450  70.8496323  18.2840023  47.8843956  71.6440430
  19.2719822  48.9119797  71.1351700  13.1422749  32.2632561  33.8032188
  12.8996859  32.2517509  32.8773422  12.5213423  31.6664467  34.2209396
  40.3319092  71.0732193  13.5408382  41.0102959  71.6390610  13.1722565
  40.8075180  70.4695206  14.1114273  71.1619339   5.3419757  87.4865494
  72.0880661   5.5710511  87.5642090  70.8961258   5.7025738  86.6406479
  59.9616776  40.0892792  72.3980484  60.6043587  40.7964935  72.4531784
  59.7014656  39.9308319  73.3054733  70.3287735   2.3251362  48.7975731
  70.1926956   1.6334437  48.1500549  70.4101562   1.8607430  49.6306076
  49.1553841  27.7423763  67.7909927  48.5714874  27.6643295  68.5454483
  50.0116348  27.9403992  68.1702728  63.7390747  64.3904114  80.0055847
  63.6066093  64.7557526  79.1308212  64.4291763  63.7371750  79.8903427
  18.7533016  57.7395706   5.5508218  18.7333031  56.8655243   5.9405370
  18.8217354  57.5805473   4.6094074  80.1364670  60.8353615  54.1078529
  80.9024963  60.2617569  54.1278381  79.8933716  60.9424438  55.0274544
   4.3558359  53.0777969  32.8236465   3.5000768  52.6566124  32.9043388
   4.9808435  52.4030266  33.0887604  19.2697010  59.1551476  19.4048328
  18.7580605  58.5650215  18.8514690  19.2269764  60.0002518  18.9573936
  35.1441727   0.0466948  43.5795135  34.3940849   0.6413199  43.5747070
  35.1593552  -0.3268324  42.6983337  83.6422501  25.7915554  41.6576691
  82.8815460  25.6290054  41.0998726  84.2184219  26.3383560  41.1235695
  73.8204498  29.3300610  27.9423752  73.8727951  28.3788300  28.0353813
  73.0063019  29.5695648  28.3851357   9.3044720  66.0597534  43.3579941
   9.4545145  66.9093018  43.7727089   8.5594769  66.2060318  42.7750587
  52.1591492  44.3114090   9.4018536  52.8706779  44.0988579   8.7978859
  51.6743126  43.4917831   9.4987106  50.8388748  71.0634079  74.0112534
  50.8050308  71.2303162  74.9531860  51.7625694  71.1671677  73.7826614
  82.3419952  16.4776554  67.4592972  82.9657898  16.3243790  66.7496338
  81.4835739  16.3514767  67.0550461  25.0316105  48.3135338  46.3907433
  25.1992359  48.8524361  45.6176224  25.5147572  48.7470436  47.0942116
   7.6867676  50.3366776  66.7916641   8.3457937  49.8153076  67.2500153
   7.0584369  50.5799103  67.4715652  52.6440239  52.9352188   2.3451397
  51.9280205  53.4479599   1.9700866  52.2185783  52.3573608   2.9786282
  22.8643551   4.3070831  23.5993290  22.1042347   4.8653083  23.7631340
  22.8521843   3.6701696  24.3137684  24.9501076   1.6194701  23.6743069
  25.0138264   0.9525203  22.9906769  25.1212540   2.4447060  23.2205162
  56.8048248   0.8382195  35.8635368  55.9231491   0.5653650  36.1173592
  56.6731110   1.6528261  35.3784637  30.2297821  58.4460182  17.6954689
  29.7774734  58.8014641  16.9304161  31.1499844  58.4100494  17.4343891
   9.2778826  14.7239037  27.8556194   8.4701347  15.0470915  28.2547741
   9.4947624  13.9377089  28.3567104   9.1502981  15.4198961  25.1549835
   9.2870045  15.1545181  26.0644436   8.6304703  16.2214069  25.2149181
  62.2234688  10.8497820  49.4334145  62.6402283  11.2444353  50.1994362
  61.7039986  10.1284151  49.7883987  65.4314651   9.5944099  58.6035347
  65.9467316   9.7105293  59.4018135  65.2464218   8.6557865  58.5723190
  51.0193024  21.5212555  88.8338699  50.4198723  20.7981758  89.0184555
  51.8154716  21.0967216  88.5143051  42.2612686   8.7071428  86.6377411
  42.6165733   9.5148392  86.2667770  43.0266228   8.1480665  86.7715378
  51.6450806  53.8014717  30.4627380  51.7366982  54.0310478  29.5380039
  51.3056297  52.9065170  30.4548454  68.8551636  28.6046791  35.9166756
  68.6808319  29.5281544  36.0984230  69.7863083  28.5754719  35.6968002
  19.9361248  42.1512108   8.6100903  19.8881073  43.0924530   8.7773857
  19.1841640  41.9694672   8.0463905  62.2444229  34.7909050  75.7630997
  61.7592468  34.1862640  75.2016373  62.7266960  34.2240982  76.3650742
  33.0331802  46.4025688  71.9090729  32.4104729  46.1546402  72.5924530
  32.6498260  47.1821098  71.5070953  58.2399330   4.7663450  20.6888466
  58.3047523   4.8854003  21.6364002  57.3207474   4.5463557  20.5374146
  41.6159592   0.3549133  64.3276367  42.0468292  -0.4765935  64.1296997
  40.8167458   0.3418533  63.8010292  49.1690445  37.3395576  77.8734360
  48.8161392  36.6529427  78.4393463  49.9753990  37.6172447  78.3080826
  59.7655525  46.4219933  39.0031242  60.4590683  46.0021858  38.4941711
  59.5642891  45.7942390  39.6971321  20.5599594  18.0371704  85.8923798
  19.8118191  17.5370445  85.5662079  20.8011055  18.6097488  85.1642075
  53.4125366  34.5066490  32.6927490  53.2151909  33.5744705  32.7840157
  53.6918297  34.6043358  31.7824287  30.2096367  56.8578796  12.0226145
  29.4699593  57.2244759  12.5070896  30.9528389  57.4095345  12.2666626
  79.6823425   8.3210936  22.6131363  78.9465714   7.7111654  22.5596714
  79.6258774   8.8356724  21.8079967   8.6618471  45.3990288  10.9553909
   9.1544657  45.1076698  10.1881428   9.2453518  45.2266006  11.6943235
   1.5865257  66.2099533   3.6228580   1.0731381  66.4081268   2.8396640
   1.7647018  65.2714996   3.5613306  42.1604195  30.8295841   7.1572142
  42.2750244  30.4728107   6.2764134  42.9961319  31.2523098   7.3550096
   8.8737507  58.7736053  67.6800461   9.4520969  58.7216492  66.9190979
   8.9842100  57.9321442  68.1227341  67.1000977  26.3357906   7.5892019
  67.5063171  25.4735394   7.6771846  66.5614243  26.4280872   8.3750420
  17.3311348  67.4394226  88.9346390  17.2975121  68.3925858  89.0157928
  16.6207409  67.2253265  88.3298798  32.9052887  55.4784393  75.1470108
  33.1336479  55.3343430  74.2286911  32.4525261  54.6770821  75.4098206
   4.0601387  16.2607937  12.7588844   3.4337523  16.2179890  12.0363617
   3.5789793  16.6871414  13.4680700  54.5536270  31.8509007  34.2859039
  53.7280579  31.6014996  34.7011948  54.9573402  31.0194359  34.0370789
  41.9056625  58.4198418  40.1996651  42.2169838  58.0902061  41.0426636
  41.1546097  57.8653603  39.9882507  31.7208252  60.9422417  73.4435501
  31.9536324  60.0587425  73.7289658  31.3684120  61.3623276  74.2281265
  73.9098892  35.3325195  81.1312790  73.0045013  35.6289291  81.0383072
  73.8461380  34.5235710  81.6389923  73.1005249  52.5730286  31.2113895
  73.3175125  51.8865242  30.5806274  72.2928772  52.2703094  31.6264801
  10.6987486  56.2632217  10.3000240  10.6738901  55.3093529  10.2241955
  10.3282661  56.5787506   9.4757576  51.4776154  69.2409439  34.3903580
  51.6815109  68.3289261  34.5974274  50.5495377  69.2316818  34.1562271
  41.1567764  41.6980553  29.0235920  41.3903236  42.3213158  28.3356705
  40.8507347  42.2441444  29.7477169   0.0158019  35.0499535  47.3128815
   0.0928208  34.3451729  46.6697769   0.9116291  35.3661423  47.4301453
  23.6855736  71.1165314  59.3420792  24.5497684  70.9267349  58.9768715
  23.4818401  70.3542175  59.8839188  75.8866730  25.1908436   9.2165852
  75.7584000  25.9319744   9.8086176  75.4909134  24.4483795   9.6730452
  63.4573975  56.8655434  14.1052952  63.8699570  56.3205986  14.7754154
  62.7047462  56.3531990  13.8099079  61.7214203  48.0498734  21.9683113
  62.4920273  48.4099274  21.5292740  61.0606995  47.9862976  21.2786446
  63.3009338  22.7212620  55.1263008  62.8879051  21.9015331  54.8548508
  64.0533981  22.4480324  55.6510620  83.6735840  26.8965378  38.4286499
  82.7699890  26.9926300  38.1277885  84.0192947  27.7890835  38.4374466
  48.1132507  15.8626375  38.7523346  48.2372055  16.7665672  39.0417786
  47.9462585  15.3738623  39.5582123  66.3139114  35.6452408  46.4880371
  67.0665283  36.2340431  46.4322281  66.6963196  34.7677765  46.4954224
  60.0485764  51.8048248  80.2718964  59.3846397  51.3094292  80.7514801
  60.1378937  51.3416061  79.4390182  78.6448441  42.6463890  77.1055679
  78.9042511  41.8491402  76.6436844  77.8433838  42.9285355  76.6647949
  78.9465866  17.4975204  60.2621460  78.8504562  17.7433567  61.1822281
  78.7669373  16.5574818  60.2453690  73.6269531  22.7896099  42.4829292
  74.0227661  23.3701687  43.1329422  72.6866531  22.8452492  42.6531105
  71.3148041  47.6405334  22.7476673  71.2443466  47.8117142  21.8085384
  71.3384552  46.6860733  22.8160381  82.7341690  30.0645504  87.1866913
  82.5379257  30.2346210  88.1079941  82.8741379  30.9322186  86.8074875
   9.6929369  62.0375824  41.8590126   9.1612568  62.4663620  42.5296097
  10.5864191  62.0773621  42.2000999  21.5990562  58.7084198  20.6944962
  21.4484806  58.7643204  21.6381245  20.7654114  58.9692688  20.3030605
  76.8020935  10.2089281  76.4780884  77.1459198  11.0691299  76.2371140
  77.5683441   9.6352749  76.4750214  53.0407906  40.8312721  46.0928383
  52.1970711  41.2764282  46.0140724  53.1777458  40.4244576  45.2372780
  25.6390591  17.7436218  13.3609095  24.7542400  18.0894012  13.4782314
  26.1836243  18.2779522  13.9389849  65.5576553  43.7001266  36.2825890
  66.0430527  44.4631996  36.5961685  65.4363022  43.1568718  37.0612907
  12.8151760  58.1464844  86.3432236  12.2164631  58.7193642  86.8223801
  12.8494444  57.3451576  86.8656540  54.3403969  71.6054077   9.5604734
  54.1155128  70.8793716   8.9786396  53.5210953  72.0884399   9.6684303
   0.0602170  66.9058228  86.1618423  -0.1015610  67.1705933  85.2563248
   0.9589130  67.1854095  86.3362198  13.5913200  33.0193558  57.3547401
  14.4721136  33.3804474  57.4549866  13.0180912  33.6703033  57.7595978
  37.1992569   3.1081042  72.7492371  36.3212776   3.3183665  73.0673141
  37.1606636   3.2799125  71.8083725  80.6200714  52.4324074   1.7167280
  80.0474625  51.6742592   1.8331755  80.1201324  53.1670456   2.0725443
  74.9252014   1.7050836  43.7037506  74.4411850   2.3685377  44.1954689
  75.1368332   2.1299744  42.8725395  86.1087265  13.6231861  68.0690002
  85.9819794  14.5460196  68.2893295  85.5289078  13.4734068  67.3222656
  84.7773895  62.8540764  56.9877090  84.5883102  63.1183167  57.8880730
  84.4052811  63.5529633  56.4498215  20.4087372   4.5828247  70.2674179
  19.5007877   4.7647996  70.0250473  20.8720684   4.5220809  69.4320374
   6.4923368  20.4678974  87.6900330   6.9460678  21.0718117  87.1021118
   6.8869867  20.6265564  88.5475388  74.9751587  47.5591049  57.1008759
  74.7501373  48.4343185  56.7852859  75.8918839  47.6289177  57.3672905
  41.0904045  30.5121346  59.1148033  40.4926338  30.9274387  59.7364311
  41.1300812  31.1210632  58.3773308  44.7218819  62.9140587  83.5180511
  44.4443130  62.1772842  84.0624313  45.2255020  62.5123825  82.8100510
  71.3147736  68.7337341  17.2269211  72.0738449  68.4983292  17.7604275
  71.1717072  67.9723129  16.6647758  28.4229050  53.1865654  71.8431854
  29.1129780  53.6908417  71.4122086  28.0861931  52.6079826  71.1590042
  58.9753914  65.9163208  10.0910110  59.0368538  66.8489456  10.2975693
  58.9179535  65.8857956   9.1360235  24.3783836  67.5256424  42.0768318
  24.6905918  67.2150574  42.9267082  23.4622612  67.2503204  42.0429993
  38.4354744   3.5871704  29.5673332  38.7427711   3.3159156  30.4323311
  38.9490547   3.0606754  28.9547367  13.8757849  64.7310486  15.9640970
  14.2975693  65.2307663  15.2650900  13.4337234  65.3915558  16.4975281
   6.0505257  61.2621307  54.0701828   6.2254586  62.2028160  54.0973549
   6.9176669  60.8568954  54.0792656  50.9242325  67.7017975  13.7223358
  50.5810966  68.1535721  12.9513721  50.7573814  66.7749786  13.5508585
  78.6311035  44.5065155  18.3772964  79.3009949  44.8386536  18.9749336
  77.8517151  44.4051170  18.9236488  65.2224579  24.1401119  31.2522488
  65.0049515  23.8890743  32.1499672  65.3576355  23.3089237  30.7971840
  70.2685928   4.4489808  25.3802166  70.5564423   5.2341332  24.9144764
  70.9011765   3.7759960  25.1288967   3.8910236  19.9350548  77.1799316
   3.8325679  20.5890160  76.4834061   4.7613673  19.5506687  77.0751419
   8.3346033  64.2534866  34.0945129   8.7226076  63.3839226  34.1922188
   8.5398283  64.5076141  33.1947708  35.8592834  41.2131844  37.3412666
  36.5413322  40.8164101  36.7994041  36.3211365  41.5185776  38.1220741
  74.1773300   0.9979216  69.7169342  73.3893204   1.0552591  70.2572861
  73.9003448   0.5117213  68.9403229  11.8157835  50.4968758  53.7791786
  11.2549305  50.9294205  54.4230614  11.3265114  50.5541382  52.9584694
  63.7984619  61.1165504  86.3259048  62.8980103  61.4225464  86.2173615
  64.2422256  61.3881760  85.5224609  65.5125504  58.4664345   9.8885651
  64.8917389  59.1572151   9.6569443  65.0207748  57.6535263   9.7720747
   4.1479549  29.8427505  75.8291855   3.2630086  29.9778385  76.1680908
   4.0662937  29.0946426  75.2376709  70.1866226  14.5597982  83.7082825
  70.2852783  13.8223352  83.1060867  69.3611832  14.9704399  83.4508972
  78.2383728  40.2278519  36.6652718  77.3213501  40.0012970  36.5104485
  78.5006104  39.6752014  37.4015045  37.7877312  14.8753071  71.6944046
  37.8409691  14.9138832  72.6493378  37.8896255  15.7841835  71.4119263
  44.8596611  48.1401100  13.2667646  43.9835739  48.3911781  12.9740782
  45.4425354  48.4559479  12.5763025  37.4687233  71.0129395  54.1032448
  36.6583138  70.9268875  53.6011810  37.2038879  71.4504089  54.9123878
  23.3547726   3.4429095  51.2268448  24.0958023   3.1753023  51.7704391
  23.7353535   3.5971210  50.3622017  10.3826876  35.8107109  73.6194916
  10.3927269  36.0230255  72.6861877  11.0962019  35.1822586  73.7298508
   8.9553480  45.7276115  66.5096054   9.7210722  45.1566277  66.5718918
   8.6029997  45.7536545  67.3992157  66.4472885  12.7776499   5.7651601
  66.9851074  13.4349451   6.2066903  67.0792618  12.1731758   5.3759933
   2.3881052  24.4773254  30.0421333   1.5639966  24.3662148  29.5680752
   2.8201580  23.6258850  29.9742222  74.5567322  62.9314423  39.3342133
  75.2364807  62.7578163  38.6830330  73.7396011  62.9221649  38.8357811
  19.4225426  42.1216049  18.7457733  20.2685165  42.5274429  18.5564251
  19.3830204  41.3657150  18.1598549  32.7981148  17.2128448  10.4197903
  32.2419167  17.8346519  10.8890772  32.2909050  16.4012032  10.4055414
   0.5192449  37.5130005  22.4531422   0.4806897  38.2497635  21.8432865
  -0.2246409  37.6487045  23.0400410  18.1644821  36.9553909   5.3534341
  18.2066383  36.6275978   6.2517695  17.5972710  36.3333282   4.8978634
  72.4558868   6.2146678   6.7995491  71.5327606   6.0032239   6.9387126
  72.9219742   5.6952624   7.4546909  55.7917633  30.3194275  55.8806000
  55.3117104  29.5639954  55.5413246  56.7116737  30.1122112  55.7161102
  46.2757759  10.4395018  53.9575577  45.5673409  10.5683718  54.5882301
  45.9680862  10.8707018  53.1602974  58.8126259   1.9433366  66.7963104
  58.6813583   1.6877664  65.8832474  57.9826508   1.7347560  67.2251053
  51.7414436  60.4311981  75.4153061  51.2311020  61.1391907  75.0222015
  51.3015137  59.6309624  75.1283951  19.9106007  61.9450073  63.4654274
  20.0864906  61.0048828  63.4271889  20.5421944  62.3316994  62.8589706
   5.4158735   7.3598456  84.0506134   4.7946672   7.8393874  83.5025482
   6.2443619   7.4100990  83.5738373  56.7413177   9.4440775   7.2005839
  57.5115623   8.8955402   7.0520368  57.0289307  10.3278790   6.9716616
  76.1763153  30.6280441  80.9750671  75.7063065  30.0748081  80.3511658
  75.4909363  30.9948750  81.5335693  55.8980331  71.6899872  87.3422623
  55.1251907  72.2260437  87.5199890  55.5625343  70.7948456  87.2933121
  79.0173264  23.0352726  72.0998077  78.6620636  23.9218197  72.1634674
  78.2867813  22.5070171  71.7781296  49.0615044  39.6296387  60.1384010
  48.2582741  39.3836098  59.6795731  48.7990341  39.7079010  61.0555801
  16.4736977  11.5365162  70.9590607  16.3729992  12.0740623  70.1734772
  17.3964672  11.2820978  70.9585190  50.2305374   6.4797578  13.1084442
  49.5907593   6.3520217  13.8088713  51.0170364   6.7912807  13.5563364
  48.1882286  50.8028221  52.9478722  47.4101944  50.7425079  52.3935661
  48.8799400  51.1024551  52.3579674  66.7068634  38.2247581   9.4475451
  67.3975830  37.5633202   9.4070501  66.8189621  38.6359558  10.3046227
  80.3206024   1.6767288  72.5787582  79.6752014   1.5700846  73.2775574
  80.6459351   0.7913417  72.4160385  54.8869247  40.5510063  69.9213409
  55.0086823  41.5003319  69.9078674  55.2680702  40.2724380  70.7540207
  64.4078751  32.9344177  29.5401001  63.9334221  33.5701447  30.0757999
  63.9116364  32.8922501  28.7226658   3.4920301  11.1434965  28.4219990
   3.6744928  11.7071066  29.1738529   2.8174765  10.5398970  28.7332497
  78.5035095  69.0227966  12.0343113  78.6261063  68.1203003  11.7398596
  79.2134781  69.1693344  12.6593752  79.4255219  43.8702736  55.3282433
  78.5085297  44.0651741  55.5215416  79.4014740  43.0242577  54.8811302
  71.2412796  64.2166519  32.3524780  70.4437256  64.3260193  32.8703308
  70.9755859  64.4244385  31.4566746   1.5498192  19.7403736   2.6816182
   0.6671418  20.0080147   2.9375103   1.8729678  19.2358112   3.4280922
  70.0874329  22.7243443  30.3643436  70.7725372  23.2454205  30.7830868
  70.2415390  22.8356419  29.4262104  50.1454887  51.0362778  43.4027748
  50.7976456  50.3743324  43.1730919  49.3285179  50.5459671  43.4943275
  50.6933899  56.4926605  50.4679909  50.3390160  57.1346169  51.0832481
  51.1510887  55.8588562  51.0202942  85.4375229  55.6696320  59.7672272
  85.0751190  55.3880501  58.9272232  85.4974518  54.8659554  60.2836990
  69.0143890   1.1455239  58.5631828  68.5880508   1.5449581  57.8049469
  69.4232101   0.3519879  58.2176437  86.3163223  22.4482021  60.9352722
  85.6816330  22.3969746  60.2205849  86.7756805  23.2751102  60.7888451
   6.7618175   0.5157747  47.4015160   6.7040315   1.1291751  46.6689606
   6.0170569   0.7387599  47.9599419  66.3927307   8.0291462  31.5233898
  66.3936462   7.4237723  32.2648430  66.3334808   8.8969975  31.9228325
  48.0655594  33.3004456  64.7463760  48.5373268  32.5592575  65.1262512
  47.4810448  32.9059753  64.0990982   4.1382289  15.3784103  86.5274963
   5.0535493  15.5100603  86.7746582   3.9810910  14.4463215  86.6783295
  20.5687943  46.3007545  18.5681248  20.2866955  46.0314255  19.4422607
  20.9442348  45.5089264  18.1830463  56.7049446  55.9334259  63.1330643
  56.9696808  56.8475761  63.0307083  56.7229652  55.7832489  64.0782394
  48.3459663  13.0883827  64.8114166  49.2152252  13.4498310  64.6382904
  48.4527702  12.5833416  65.6174927  38.0823975  33.4414406  64.6518555
  38.9542465  33.3147125  65.0260925  38.0560188  32.8493690  63.9001999
  70.0623474  60.3549995  64.2967911  69.7096329  60.4983597  63.4185677
  70.1149673  61.2307129  64.6796570  17.4763947  46.4176254  25.8414860
  17.0500660  46.0892754  25.0498657  16.7538185  46.6280937  26.4329414
   3.3539371  51.1063538  10.6135378   3.2839596  51.7287292  11.3374043
   4.1727943  51.3390846  10.1758823  22.2841949  10.1148081  51.3344727
  22.6979675   9.3268385  51.6867905  22.1537952   9.9221344  50.4059753
  62.5262413  18.3897533  11.8266125  62.0180740  18.8436813  11.1543407
  62.2065811  18.7511768  12.6533051  19.8952274  59.3257904  75.1818771
  19.9674129  60.0140877  75.8431396  20.3584309  59.6754303  74.4206696
  49.7790794  47.6594658  50.2595863  50.5685081  48.1967735  50.3253670
  49.7237206  47.2108231  51.1033211  15.1020708  22.9755993  72.6666794
  14.3962011  22.5552616  73.1578979  15.4157124  22.2964516  72.0695038
  67.5683365  51.8539848  66.2487335  68.4007111  52.3218422  66.3157730
  67.7295456  51.0152321  66.6808624  63.5517693  51.7839661  60.5796700
  63.1854973  51.9870415  61.4403915  63.2750816  52.5123787  60.0237122
  66.3354416  34.9890747  85.1887360  66.8631668  34.7597160  84.4237976
  65.4302139  34.8960342  84.8918381  73.1455536  55.6654091  25.5267582
  72.6271667  56.2409630  24.9643993  72.6913834  54.8235550  25.4914761
  21.0424747  55.7111931   5.5634604  20.5584908  56.2145157   6.2181792
  20.6471176  54.8398895   5.5908589  13.0117960  51.3014221  61.3458176
  13.0481014  50.3929405  61.6451111  12.2135735  51.3485374  60.8196526
   4.8242927  54.8902740  65.8277740   4.1329522  55.2042770  65.2449493
   4.4086928  54.8431969  66.6887589  81.7747269  55.1479568  20.3679867
  81.0696793  54.6187248  19.9950790  82.4929352  55.0664978  19.7404785
  54.3896561  10.0859222  72.3469849  53.7462692  10.6203909  71.8815460
  55.1897774  10.6112185  72.3367386  61.1511383  54.5664368  86.1150360
  61.4723587  55.4272690  86.3834076  61.2026634  54.5788422  85.1593018
  64.1012344   5.2420764  25.5688381  63.2097816   5.0243230  25.8411064
  64.3236847   4.5737801  24.9206676  67.8839951  60.9021797   1.7967182
  67.9810333  59.9741478   2.0101843  68.1554031  61.3605309   2.5920072
  38.1167755  46.3140373   2.0281146  38.4823265  47.1894493   1.9006103
  38.2682991  46.1237144   2.9538839  72.5974808  30.7966118   9.3850861
  72.9254608  31.2627182   8.6160583  72.1928635  31.4771080   9.9230852
   2.6475337  25.2595482  38.0352364   1.8887024  24.6975632  37.8784561
   2.9636891  24.9992428  38.9004059  66.1138840  41.1682091  26.2566071
  66.6370468  41.1182404  25.4565868  66.0999603  40.2710915  26.5901031
  70.7227707  13.5765905  59.1256332  71.6798172  13.5865040  59.1117516
  70.4974823  12.7254744  59.5012398  14.1651163  28.5983143   3.3228219
  14.4374399  27.7525616   3.6788733  13.4789124  28.3825760   2.6913054
  78.8113174  17.9877090  88.1997986  79.6121750  18.3738575  88.5544128
  78.7731476  18.3025360  87.2966614  69.8080292  48.6236076  71.7821198
  69.2939911  47.8175278  71.7348862  69.1550751  49.3232460  71.8019180
   2.2870250   8.0627689  77.9017563   2.7358134   7.9234719  77.0678406
   2.2437596   7.1928325  78.2987061  64.5383682  52.5877686  42.9563522
  65.0387650  53.0919266  43.5979538  65.1901932  52.2987862  42.3177261
   3.1503229  48.6397705  11.9857397   3.5984564  49.3579025  11.5388670
   3.1720550  48.8829079  12.9112902  22.3956356  68.9561996  61.1875267
  21.5973377  69.4288635  60.9518471  22.3758163  68.9144058  62.1436081
  83.5452805   3.8986559  51.4711609  83.9481201   4.5529256  52.0420227
  82.6443787   3.8276360  51.7866974  35.8340569  29.5030632  80.1643448
  35.6583633  28.5744953  80.0122681  36.1856384  29.5377426  81.0539627
  13.4193850  22.5971012  81.7819214  13.1164618  23.5005665  81.6912460
  12.6163273  22.0770397  81.8113327   8.6625471   1.1312040  18.6217747
   9.5967941   1.2474501  18.4488525   8.4171810   0.3632848  18.1057053
  69.0242081  41.8930664  71.3843231  69.5449448  41.3393974  70.8025055
  69.2826309  41.6239014  72.2658005  65.5093689  24.3445778   2.6773510
  65.9171295  24.9432106   2.0515666  66.2332306  23.8104687   3.0044360
  48.6756668  17.5015182  15.5812273  49.2127914  17.2767029  16.3409557
  48.5675888  16.6746998  15.1112032  49.4898834  47.1911316  24.5927048
  49.4202118  47.7134323  25.3918171  49.3576584  46.2889557  24.8839436
  21.3334503  19.7744579  74.0663071  21.8656750  19.1312618  74.5345688
  21.2326603  20.4978867  74.6849594   8.9696789  65.1904907  10.5928850
   9.6434317  64.7391586  10.0843658   8.7912998  64.6039276  11.3279772
   2.9223995  20.5292492  24.1559982   2.8569608  20.2043133  23.2580204
   3.2858138  19.7947292  24.6506119  13.7417202  66.5532761  71.8857803
  13.1157846  66.6869888  71.1740494  14.4719591  67.1351318  71.6749954
  77.0180893  37.5123177  83.6980743  76.9745255  37.3674240  82.7529068
  77.9277420  37.7621231  83.8604126  83.7280197   7.1121931  33.3443260
  84.2135315   7.9107704  33.5511742  84.3596497   6.5606689  32.8826981
  35.4175873  26.8814011   9.6236277  35.3800049  26.5837059   8.7146740
  36.1841354  26.4395485   9.9888706  14.9567900  37.7931366  36.5153580
  15.0473309  38.4704628  37.1856270  14.7336550  38.2734871  35.7180443
  68.3732681  15.1753063   2.8624125  68.6127014  16.0696087   3.1055803
  67.5459137  15.2688446   2.3902268  71.5404434  18.5067978  78.3617706
  72.2275162  18.2087440  77.7656860  71.7202911  18.0486794  79.1827545
  46.4576302  50.9236145  26.9187794  45.8061409  50.3538055  26.5099869
  47.0990982  51.0883446  26.2276840  22.1858845   4.8070207  18.9619427
  22.5333633   5.2606483  18.1940136  22.4670181   5.3423924  19.7039490
  33.6325417  39.8497353  39.2455330  34.3786545  39.8964081  39.8433380
  33.7111092  40.6342201  38.7027245  59.4520607  34.8754082  12.9442167
  59.7444382  34.2099419  12.3214006  60.2030678  35.4612923  13.0388670
  30.3053532  45.6952553  49.8682976  29.8192310  45.0744629  50.4110107
  30.3594971  45.2727661  49.0110893  76.0098038  71.0963135  46.9258003
  75.4428024  71.8491516  47.0930405  75.9235764  70.9355774  45.9861412
  64.6885986  12.3029747  79.2826614  65.2363586  13.0873861  79.3125687
  63.8765221  12.5611563  79.7186737  82.8459625  13.2754745  39.1883774
  83.5192795  13.8719988  39.5155373  83.1522369  12.4053278  39.4438667
  64.3385468  60.4187546  50.3071289  63.5094109  60.5193863  49.8395462
  64.5001602  61.2784004  50.6958771  84.0881119  44.5864525  42.5381508
  83.1988678  44.3868904  42.2454948  83.9822845  45.3219376  43.1415520
  54.7761726  10.4011011  25.1043301  54.8058929  11.1426725  25.7088299
  55.5508080  10.5105019  24.5527840  30.3418541  64.0457687  39.2553673
  30.4655685  64.9461365  38.9549332  29.5000877  63.7826538  38.8833046
  27.9979858   0.6417104  55.5716782  28.5972290   0.1233717  55.0345879
  28.4401302   1.4838512  55.6791039  20.0081520  44.7156982  47.7535591
  19.3023357  45.2411194  48.1303711  20.2905064  45.2103653  46.9842644
  63.4488487  63.8209610  20.9204464  64.3727798  63.6364250  21.0893307
  63.2391205  63.3023949  20.1436977  29.6701756  64.5706711  20.5746384
  29.3543377  65.1759338  19.9037113  28.9308510  64.4708939  21.1743660
   3.5213223  47.4924850  72.3771362   3.9531376  46.7562065  72.8103256
   2.7937648  47.7181816  72.9567490  38.3475571  21.9576054  11.7787457
  38.0055504  22.4775066  12.5060463  38.1647148  21.0510368  12.0255938
  31.4834194  45.0237198  37.8630676  32.3901329  44.7407417  37.9814911
  31.0873890  44.9273911  38.7291565  19.3602085  37.3351364  26.2377167
  20.2067146  37.5978966  26.5991249  19.5765610  36.6851349  25.5691929
  48.3308372  19.2339478  12.5002565  48.5053062  19.6630211  11.6625872
  48.2524185  19.9537621  13.1263161  10.3610344  15.3009624   0.8993773
   9.8753824  16.0187092   0.4929118   9.6890182  14.7662048   1.3220606
  52.2667618  48.3928452  14.7589931  52.8783112  49.0656967  14.4598055
  52.7303352  47.5675507  14.6167994   6.7560377   9.1378756  75.8454285
   7.0043445   8.2489119  76.0990372   7.5750265   9.5432644  75.5605545
  16.9707699  54.3607674  84.8511810  16.3656368  55.0990677  84.9215851
  16.6539478  53.8624001  84.0978622  12.3356075  55.5730400  87.7281799
  13.0289841  55.6638260  88.3817978  11.7102137  54.9667473  88.1250687
  59.7645111  56.4238014  64.2052307  59.8489609  55.5429497  64.5701981
  58.8234100  56.5982857  64.2159500  35.2804489  69.4372787  72.4277725
  35.9318428  68.8580322  72.0323105  34.5807266  68.8504181  72.7145233
  73.1068268  49.5055466  71.8760529  73.3034286  50.3446693  71.4595718
  72.7957306  48.9503517  71.1610641  19.0914078  34.5565186  17.9889297
  18.8233433  33.6837807  17.7013493  18.3978634  34.8351936  18.5869007
  11.4195976   2.6835656   4.4706306  11.0994902   2.0139253   5.0750685
  11.6562996   2.1989737   3.6798246  37.7456322  27.6210480  19.2346077
  37.9763184  26.6972561  19.1364956  37.4832573  27.7063541  20.1511841
  58.6384010  29.9795513  69.9713745  58.1312370  29.4308681  70.5696793
  59.1448936  29.3584766  69.4479599  55.7555504  47.8684120  82.1364288
  56.1175957  47.6280212  81.2835693  55.1508942  47.1574593  82.3489609
   3.7124712  51.0426521  27.3453312   3.8247344  51.9093056  27.7359028
   4.5104280  50.5689583  27.5800838  76.4209442  68.5035934  47.9940872
  76.8493042  67.8875732  47.3997307  75.7395554  68.9149628  47.4623718
  45.7761383  13.0628738  88.8552704  45.5040970  12.9643555  89.7676926
  45.3424034  12.3431053  88.3969650  53.8179817   9.8475018  69.3379745
  54.6239700  10.1725416  69.7391815  53.1330299  10.4253120  69.6744308
   4.7977033  53.6265907  88.0121918   4.2627497  54.3570442  87.7015610
   4.7373357  52.9724579  87.3159866  74.8726349  24.8667660  43.9633865
  74.6760788  24.9389610  44.8974037  75.5319595  25.5422401  43.8044662
  24.4900036  49.4148216  72.6018066  24.9586258  48.5957069  72.4415665
  25.0983238  50.0979156  72.3197403  20.7315464  48.0572815  84.4766541
  21.1108131  48.1132202  85.3537292  19.7858486  48.0808868  84.6226959
  67.8154221  33.9413757   6.0063357  67.8834686  34.7124176   5.4432230
  68.4038467  34.1266251   6.7382264  20.4673367   7.1706033  71.3600311
  20.2009659   7.5084162  70.5049515  20.8287525   6.3041582  71.1732559
  47.4747162  64.0495071  16.8155155  46.8161125  63.3660240  16.6917152
  47.9881706  64.0364838  16.0077858  15.5356350  64.2995911  29.6314812
  16.4055805  64.0586243  29.9498558  15.0706100  64.6025620  30.4113483
  42.1402092  53.3627052   3.0764525  42.6460304  52.6826019   3.5212338
  41.3524818  52.9134979   2.7699647  59.4141655  31.9473095  85.1192932
  58.5300751  31.6444588  84.9121780  59.9125252  31.7991238  84.3156052
  63.6942635  60.7689323  71.4275665  62.8122215  60.6658859  71.0703278
  64.2518234  60.8872032  70.6585693  53.0266190  33.5376701  72.0676193
  53.2694702  33.6090546  72.9907455  53.3751640  34.3335800  71.6660309
   7.3922582  48.5219498  70.6492538   7.1579280  48.9663429  71.4640121
   6.6587625  48.6990547  70.0603104  49.3692436  47.3689690  20.5659046
  50.1121979  47.4112930  21.1679535  49.7389030  47.0238953  19.7531872
  46.4735031  38.3242455  60.0434036  46.5339966  38.8964577  60.8083496
  45.5682335  38.0132790  60.0479012  45.8970909  64.4055634  50.3931732
  46.7916260  64.4717865  50.0590210  45.8140755  65.1391602  51.0024109
  63.9902115  59.5727158  79.7977295  64.1405029  58.7717667  80.2998505
  63.2078590  59.3866730  79.2785568  25.0222530  32.9089775  21.2631283
  25.7370625  32.6584167  21.8483620  24.4155998  32.1692848  21.2956676
  54.3285904  25.2203636  41.4643898  54.3100815  26.0281162  40.9511414
  54.9282036  25.4089661  42.1862793  64.8516846  58.0723801  64.5794601
  65.0640106  58.1659241  63.6508064  63.9953346  58.4897842  64.6725845
  22.4147625  30.6067448  65.2728271  23.0867004  30.3760662  64.6313324
  22.7693272  30.3063030  66.1096420   5.5191674  65.6224289  77.5880737
   4.6509395  65.8829041  77.2805634   5.9546900  65.2750320  76.8097000
   0.8026671  55.1983109  20.2039013   0.4800446  54.2971306  20.1993294
   0.2030702  55.6644135  20.7865372  61.2463951  55.0776062   6.8169041
  60.4940033  55.5246010   7.2046385  61.9963150  55.3855057   7.3258719
  72.1605225  42.8372650  34.8120766  71.6805038  42.6335220  35.6147614
  72.4461060  43.7435722  34.9272919  32.3675728  71.0645142  32.3119545
  32.5204544  72.0067062  32.2403259  31.7436867  70.9772110  33.0326347
  19.7199268  47.3697243  13.5279150  19.4706440  46.6138496  14.0596523
  20.3086205  47.8739662  14.0895319  37.7135048  53.0985641  41.7183800
  38.5242805  53.3552399  41.2790718  37.9939651  52.8003464  42.5836182
  30.4393597  62.5516739  71.6267624  31.0919399  61.9919205  72.0475388
  30.2846680  62.1413193  70.7759323   8.4017735  10.0263805  15.9957857
   8.8623362  10.6884766  16.5112877   7.8811264  10.5296707  15.3698006
  22.8950462  44.0096703  72.1926804  23.4673367  43.3060303  72.4986343
  22.4028282  44.2732201  72.9701767  11.4942331  63.0035667  33.0580292
  12.2908459  63.3285713  32.6384926  10.9696846  62.6540070  32.3376884
   4.2696619  57.1602325  31.4018326   4.3071623  57.8985939  30.7938461
   3.9629767  57.5423889  32.2241058  83.2935028  65.4600143  21.8902264
  83.9755554  66.1215057  22.0062523  83.6998672  64.7910919  21.3391933
  27.3438091  43.7256966  10.2445498  27.6455822  44.5799561   9.9356680
  26.4152374  43.8551178  10.4375114  53.5801353   0.1632169  47.4097443
  54.4995346   0.4265178  47.3696556  53.0995064   0.9854003  47.5058899
   3.7552011  10.7566233  15.8472633   4.1409526   9.8864136  15.7464495
   3.5939362  10.8397093  16.7871151  11.2037792  22.3715115  15.1842232
  10.7476406  21.6644859  15.6406040  10.5038986  22.8976879  14.7975216
  43.4010010  65.5404510  89.3416443  43.5290184  66.3593903  88.8629074
  43.4512863  64.8601227  88.6701889  80.0523300  10.7446032   3.3457019
  80.7419586  11.2133350   2.8756626  79.3354950  11.3755693   3.4109380
  84.2429962   0.6499928  30.0459270  84.1777954   1.1456453  29.2296486
  85.0202179   1.0029575  30.4790306  79.6126709  37.9783020  11.4348955
  78.6668854  37.9979210  11.5809584  79.8159103  38.8377838  11.0658207
  48.2244835  33.7591934  32.1485481  47.9407616  34.6402245  32.3925018
  49.1289635  33.7048187  32.4570732   8.6965904  35.4085274  56.9257622
   9.3814487  36.0772133  56.9177399   8.1333656  35.6336441  56.1852646
  66.5588989   1.4241875  86.4823761  67.4654007   1.7264550  86.5382233
  66.0845795   2.1597884  86.0948944  38.9002151  52.0876312  33.6909218
  39.1452599  51.6120682  34.4846611  39.3090782  52.9473190  33.7909355
  72.8643723  11.4768171  29.3435745  72.6004791  11.7521181  28.4656219
  72.6141815  12.2075043  29.9090271  36.9777412  14.8965578  89.1726227
  37.6221390  14.2075157  89.0107498  36.3252716  14.7813768  88.4817886
  60.4799500   2.1203485  74.9519272  60.0692139   2.4733069  75.7412033
  60.4142723   2.8280640  74.3107910  29.1727848  52.0480881  48.1074600
  29.1009560  51.3839111  47.4219360  28.6582661  52.7861557  47.7807159
  28.6861172  62.6657867   3.3779409  29.5267086  63.0179138   3.0852921
  28.8667526  61.7464600   3.5740161  79.6078262  23.1686554  64.0668716
  78.8537521  23.5122719  64.5459671  80.2780914  23.8459740  64.1575241
   7.0889454  59.5930405  22.2313023   7.8825498  59.3733749  22.7193298
   7.2906060  60.4283333  21.8095760   3.8197315  60.8841171  38.9433327
   4.1164494  60.5916862  39.8051186   4.1529179  60.2218361  38.3378525
  56.4016838  69.2066422  54.5821686  55.8927498  68.8552628  55.3127518
  56.2310066  70.1482849  54.6023521  83.3733063  44.5606003  25.5789013
  83.8828278  44.0705376  24.9335690  83.9928665  44.7419167  26.2856522
   5.9080253  54.5879059  13.1735544   5.3222456  55.0446930  13.7772436
   6.5007443  55.2682610  12.8541279  36.5951614  61.1633530  67.9032135
  36.7369308  60.4220390  68.4919281  37.0672264  60.9284630  67.1043320
  34.0080566  30.4143314  20.2765846  34.5977936  30.8518829  20.8905792
  33.6451569  31.1237297  19.7462158  28.4596100  46.5161896  53.5315895
  28.5380306  47.3443413  54.0051346  27.5595932  46.5109024  53.2057495
  23.1668396  30.4545326  80.8401108  22.8549423  30.8195591  80.0120392
  24.1080704  30.6286507  80.8392029  47.2486992   1.9992907  18.5053043
  46.3331566   2.2453954  18.6373787  47.7450218   2.6425254  19.0114098
  71.7839890  21.9068146  79.2153244  71.7713547  21.6407146  78.2959442
  71.4364319  22.7986774  79.2113266   4.4213300   8.9069748  62.4643822
   4.5654745   9.1855583  61.5600357   4.5619011   7.9602833  62.4486694
   6.7839212  45.7265472  69.9265518   6.9648523  46.5304871  70.4135513
   5.8673840  45.5301514  70.1205139  73.4191437  16.4540577  67.1127548
  73.7608719  17.2764626  66.7618942  73.5002747  15.8328304  66.3890686
  62.9161491  48.2222481  77.4924316  62.3151283  47.7568665  78.0741730
  62.5007477  48.1749878  76.6313629  16.5884228  41.6945419  51.1262665
  16.0731716  41.2094154  51.7707825  15.9693832  41.8900909  50.4228592
  74.5238113  35.9666748  25.7615013  74.2648544  36.8362961  26.0663433
  73.6965256  35.5077896  25.6157246  45.1669426  21.4791069  61.5462761
  45.7061882  20.9767075  62.1570473  44.3910065  20.9356842  61.4089775
  75.8797760  54.1863213   7.8397927  76.6788406  54.3126488   8.3514194
  75.4248962  55.0267487   7.8946195  20.5135288  52.6336975  86.6555557
  20.5640430  53.2454872  87.3899918  19.9027958  51.9574623  86.9487076
  72.1398163  15.1805601  24.2678223  72.5415573  16.0422306  24.1566505
  71.5080872  15.3005104  24.9768772  43.4600945  50.7843285  45.1573563
  43.3737488  51.2150955  46.0077782  44.3816566  50.8968620  44.9243393
  32.9916191  53.1236191   9.7638559  32.0583839  53.2886429   9.6294289
  33.4220352  53.9243698   9.4642363  27.2310600  52.9700432  15.2464314
  27.9229298  53.4771729  14.8217306  27.4196949  52.0620613  15.0093365
  39.7255669  68.4540863   5.3912859  39.6093674  67.7015610   5.9713140
  40.1667328  68.0966492   4.6206732  81.2059479  59.4691811  49.4102173
  81.3629303  60.2021790  50.0054474  80.2598419  59.3287392  49.4475327
  47.4198799   6.5237951  22.7709351  46.7524643   6.0046582  22.3222847
  47.5563698   6.0708089  23.6030426  15.8321085   4.9433880  27.2567368
  16.1071148   4.1438451  27.7054386  16.1021290   4.8128700  26.3477325
  37.1365929  56.6667595  24.5787678  37.6477547  55.8601036  24.5135574
  37.1241264  57.0151367  23.6873016  42.1368790  33.3665771  83.4942169
  42.8743668  33.5995979  84.0581665  42.0190392  34.1285248  82.9269562
  69.4406052  23.9799347  18.3584042  70.3777771  23.7904186  18.3134689
  69.3788757  24.7505760  18.9227943   6.6109281  18.8931656  76.9783936
   6.7389293  19.8397541  76.9166107   7.4760933  18.5484047  77.1994476
  53.2130890  55.1567497  73.3730850  52.6514854  55.7478867  72.8716965
  53.4389381  54.4604073  72.7563782  72.4341049  71.5373230  34.6173058
  73.0410919  72.2508850  34.4207611  72.7287521  71.1982040  35.4625320
  57.6256905  26.3888474  16.2754192  58.3784714  26.7845135  15.8361034
  56.8874550  26.5670109  15.6927519  85.8304825  57.8491249  54.8909836
  85.2338486  57.7671471  54.1469803  86.4445190  58.5358734  54.6310463
  56.7033577  10.7616816  74.8316727  56.8435898  10.5580292  73.9069595
  55.9470253  11.3483467  74.8356934  71.8102341  65.0002518  61.6083298
  72.0998077  65.1533585  62.5077400  72.4763947  64.4215240  61.2374725
  86.0871124  31.5182247   3.2694280  86.2825012  31.5863857   2.3348653
  85.5640640  30.7203484   3.3471940  60.8540115  32.5095520  36.1020927
  60.5067596  32.8417206  35.2742577  60.1578445  31.9501743  36.4466019
  22.1913986  11.1776133   1.5449257  22.0107155  11.2549553   0.6081207
  22.2507401  12.0819807   1.8528703  75.0511322  13.0630770  20.2465076
  75.1770477  12.1177549  20.1643925  74.6020966  13.1729784  21.0846748
  36.6274490  50.9736023  36.4974213  36.6431847  51.9273949  36.5766029
  35.8758583  50.7924919  35.9330254  60.2206650  24.9862785   8.0975885
  60.0863800  24.0825787   8.3831110  60.6062737  24.9070072   7.2250900
  69.3792191  12.4570713   1.4937657  68.9597549  13.3115063   1.5948806
  69.6522827  12.2179880   2.3794904  82.0461960  30.1632633  62.2313423
  82.6801605  30.1197300  61.5154991  82.5816269  30.2381382  63.0212402
  86.8527545  71.6621557  89.2152957  90.0000000  90.0000000  90.0000000
