QMMM reactant CHA#2 frame 59999
 55680
  27.4225883  41.4641266  36.4522743  27.8573093  41.2410698  37.3362236
  27.9527988  41.9486580  35.7421989  26.6925163  42.0312767  36.8590240
  26.7794819  40.2990990  35.9353638  25.9735718  40.7421074  35.3502541
  27.7090569  39.4919128  35.0296593  27.0822773  38.7427673  34.5458984
  27.9659882  40.1960793  34.2383080  28.9048767  38.8252792  35.7609062
  29.0602970  39.2651367  36.7460327  28.5798244  37.8165817  36.0158005
  30.4533806  38.7704315  34.8696251  30.9628010  40.4916954  34.9892197
  30.2622662  41.0932961  34.4100609  30.9423103  40.8347893  36.0236130
  31.9446507  40.5158501  34.5164719  26.1994801  39.5002289  37.0505104
  26.7864857  39.4097900  38.1660080  25.1721039  38.7364731  36.7042389
  24.8864002  38.9476929  35.7587967  24.6265869  37.5500107  37.3926125
  24.3576889  37.8719749  38.3986626  23.4462757  36.9177132  36.6100311
  22.7691879  37.7337723  36.3576393  23.9673042  36.5105934  35.7434959
  22.5798054  35.7793922  37.1707344  23.1071911  34.8260460  37.2039375
  21.8048382  35.5665703  36.4343719  21.9049911  35.9662018  38.8549347
  21.0418339  34.4322853  39.2984352  21.1572876  34.2825317  40.3719063
  21.3619385  33.5557747  38.7350845  19.9734077  34.4583092  39.0842171
  25.7030926  36.4779282  37.5806351  26.6363602  36.3637466  36.8433075
  25.5079994  35.5596085  38.5756416  24.6832714  35.6349182  39.1537857
  26.3731251  34.3678665  38.8094673  27.3362045  34.3917656  38.2995567
  26.7821884  34.2690582  40.3331871  25.9026051  34.0510025  40.9388962
  27.6861744  33.0737000  40.6413727  28.7320652  33.1491356  40.3438606
  27.6085777  32.8597984  41.7073593  27.3117676  32.2105751  40.0909767
  27.4911594  35.5570946  40.8483238  28.2277851  35.8887405  40.1165504
  26.8200436  36.4158669  40.8629112  28.0750408  35.3744278  42.2325439
  28.9543266  34.7436752  42.1017494  28.2913132  36.3464584  42.6758041
  27.3614998  34.9398918  42.9326439  25.6147156  33.2000122  38.2621078
  24.4095402  33.1584015  38.4260635  26.2847500  32.3120384  37.4601746
  27.2913704  32.3695183  37.4009018  25.6612015  31.1370544  36.7471619
  24.7964325  30.7844124  37.3092270  25.2812195  31.6758327  35.3002319
  26.2248020  31.7628670  34.7615509  24.7205830  30.8728905  34.8216095
  24.3600082  32.9372292  35.2153168  23.5167236  32.6656036  35.8502884
  24.9649601  33.7617836  35.5924759  23.7571106  33.3072586  33.8394852
  24.4871273  33.8486633  33.2377739  23.4474030  32.3614159  33.3949966
  22.6403542  34.2438812  34.0602150  21.8775654  34.0803757  34.7017136
  22.4447098  35.4433670  33.5304680  23.2195454  36.0420876  32.7042961
  22.8869972  36.9215050  32.3353271  23.9842606  35.5956230  32.2185097
  21.4045391  36.1295090  33.8034821  20.7753582  35.9109039  34.5627174
  21.2119064  36.9257698  33.2127380  26.5053978  29.8408051  36.7995949
  27.5842781  29.8972759  37.1859779  25.9685230  28.6708221  36.3496017
  25.0358715  28.8123226  35.9887161  26.6731071  27.3701000  36.2086830
  27.5248203  27.3026485  36.8855362  26.0239563  26.5477829  36.5095215
  27.1097870  27.0453205  34.7323341  26.2833023  27.0767612  33.8279343
  28.3104019  26.6017494  34.5513763  28.8531837  26.6371880  35.4023972
  28.8806973  25.9295406  33.3756409  28.1224709  25.9824371  32.5943642
  30.1627960  26.5494156  32.8660698  31.0472717  26.3816566  33.4806137
  30.4196224  25.9819489  31.4947548  29.4930019  25.9272842  30.9233685
  31.2100258  26.5203781  30.9718246  30.7716045  24.9547920  31.5904522
  29.9636250  28.0728149  32.6188774  29.0363541  28.3045082  32.0948677
  29.7656384  28.5570908  33.5751076  31.1035843  28.9123306  31.9957066
  31.1708317  28.7788963  30.9159966  30.9977627  29.9914780  32.1068039
  32.0471115  28.6614170  32.4803734  29.0063038  24.4571419  33.6079178
  29.7472744  24.0288677  34.5224876  28.3597221  23.7001133  32.6752472
  27.8980160  24.2420044  31.9588108  28.4746284  22.1196861  32.6255035
  29.1806526  21.8195629  33.3998146  27.1066666  21.5676250  33.0162010
  26.5364380  22.3617668  33.4981499  26.5584507  21.1852684  32.1551743
  27.2848396  20.3890209  34.0502853  27.6864338  19.4476604  33.6752319
  27.8908405  20.6807213  34.9080582  25.9212132  20.0188732  34.6097946
  25.9689236  19.2080708  35.3367233  25.4775524  20.9328556  35.0046387
  25.0704670  19.5581398  33.5411949  24.4149895  20.1821785  33.0928345
  24.9480610  18.4296532  32.9294624  25.7698212  17.4330788  33.2146492
  26.4787674  17.6182156  33.9097862  25.8055706  16.6139183  32.6249046
  24.0901318  18.3062229  31.9021568  23.8870621  17.4023647  31.4997826
  23.4385033  19.0314312  31.6384277  29.1249771  21.5458431  31.3409519
  29.5699596  22.2653980  30.4335651  29.4721088  20.2212791  31.3663826
  29.1835842  19.6784325  32.1677399  30.0204487  19.5376797  30.2215004
  29.2160130  19.3777924  29.5035744  30.8529949  20.0637455  29.7543564
  30.4758034  18.0829449  30.4913483  30.4771366  17.6447296  31.6809177
  30.6452560  17.3456764  29.4038448  30.4653397  17.7687054  28.5045242
  30.8922367  15.8825712  29.4034672  31.2989941  15.6019754  30.3750210
  29.5159111  15.3209047  29.3176880  28.8275375  15.6487818  30.0966225
  29.1160374  15.5577126  28.3317242  29.6121502  14.2381306  29.3979187
  31.8849678  15.3926907  28.2917137  32.0135117  15.9768858  27.2179871
  32.6670456  14.3466702  28.6283779  32.5141716  14.0021410  29.5654106
  33.6208153  13.6310730  27.7268734  33.1905174  13.6262331  26.7254124
  34.9477043  14.3272762  27.6233559  34.8309898  15.3822813  27.3754749
  35.7581673  14.2423487  28.9503193  36.7042274  14.7806368  28.8927383
  35.1081657  14.6774998  29.7094288  35.9082375  13.1897640  29.1904259
  35.8104782  13.7655258  26.5810318  36.4623756  14.4146910  26.3067856
  33.8133392  12.1435146  28.0914173  33.2310028  11.7075596  29.0354557
  34.6005974  11.3739510  27.3718357  35.0452156  11.8127575  26.5781937
  34.7874184   9.9516993  27.6286201  34.6546898   9.7230721  28.6860790
  33.8282166   9.0993385  26.8401623  34.2281036   8.1210852  27.1070118
  32.3357162   9.0988207  27.2366180  32.0931473   8.7967634  28.2554493
  31.8122425  10.0502491  27.1424942  31.7645664   8.4547672  26.5679760
  33.8908081   9.3463154  25.4658432  34.4763641   8.7521191  24.9908142
  36.1797218   9.5219545  27.2786121  36.7369308  10.0823822  26.3144684
  36.7360344   8.5037756  27.8625736  36.2664795   8.1553173  28.6861000
  38.0041580   7.8351350  27.5040684  38.4830093   8.4630928  26.7527485
  39.0393944   7.8723664  28.6850853  39.9932213   7.4456863  28.3748188
  39.3685532   9.2844639  29.1900864  39.7973938   9.8452072  28.3595695
  38.4891281   9.6959152  29.6854897  40.2686348   9.2669020  29.8046131
  38.5999908   7.1286983  29.9211788  37.7510529   7.7140803  30.2743568
  38.3584251   6.0965867  29.6672249  39.4405746   7.1663904  30.6140671
  37.8543663   6.3456626  27.0232601  36.9165421   5.6551824  27.3112297
  38.8950615   5.7776489  26.3447018  39.6063347   6.3681569  25.9378967
  38.8844147   4.3084855  25.9246464  37.8493919   3.9765327  25.8431702
  39.3941460   4.1639848  24.5350266  40.4327011   4.4935851  24.5645027
  39.3875961   3.1255803  24.2037048  38.6178169   4.9038110  23.4942188
  38.7498779   5.9515581  23.7641926  39.1194611   4.7165442  22.5448055
  37.0858231   4.5716724  23.5217495  36.2268753   5.4756684  23.4446354
  36.7117081   3.4200761  23.6204643  39.5475998   3.4262536  27.0089722
  39.5134430   2.1635165  27.0035725  40.2788811   4.0492716  27.9410973
  40.2580872   5.0578365  27.9907341  41.1221390   3.3374760  28.9008236
  40.6608162   2.3800924  29.1431007  42.6135864   3.1304348  28.4115639
  42.9392929   4.1423135  28.1704865  43.1746483   2.6746564  29.2273903
  42.8079605   2.2641819  27.1882420  42.4310722   1.2703321  27.4297333
  42.3618011   2.7265756  26.3077660  44.2972221   2.1101210  26.8673458
  44.8928566   1.7332265  27.6987724  44.3643379   1.4331516  26.0156956
  44.8676872   3.3962829  26.4312267  44.3308182   4.0143075  25.8396893
  46.0990791   3.7941444  26.7929688  47.0148354   3.0707266  27.3506184
  47.8453407   3.5022585  27.7302761  46.8013382   2.1236622  27.6291656
  46.5094490   4.9670715  26.5422173  47.4290581   5.2340984  26.8633480
  45.8698578   5.7209859  26.3357372  41.1743851   4.0793843  30.1974926
  41.3408737   5.2837572  30.2165718  41.1619339   3.2752292  31.2639618
  41.0388794   2.2849491  31.1080666  41.1576538   3.7167721  32.6563911
  40.6318512   4.6714568  32.6707993  40.4140434   2.6229134  33.4729195
  39.3704872   2.6302202  33.1582108  40.7263947   1.6400865  33.1199493
  40.5344620   2.8905561  34.9555206  40.6997681   4.0797653  35.3539658
  40.2985268   2.0033131  35.7784386  42.6575890   3.9528368  33.1612091
  43.2313538   3.0762022  33.8053856  43.2787132   5.0774250  32.7227325
  42.7327843   5.7283139  32.1764679  44.6683960   5.3782797  32.9334793
  45.0689621   5.1049170  33.9096565  45.5137978   4.5890479  31.8513355
  45.5874329   3.5170527  32.0343742  45.1207008   4.8572927  30.3912373
  44.1071663   4.5070982  30.1957588  45.4007149   5.8913908  30.1904106
  45.7150040   4.2717791  29.6897545  46.8544960   5.1016293  31.9688034
  47.2955589   4.6488037  32.6913071  44.8166237   6.9322891  32.8890762
  43.9999886   7.7161922  32.3770523  45.9094429   7.3935485  33.4528313
  46.4592438   6.6755757  33.9026489  46.4510269   8.7477570  33.3810806
  45.7021942   9.4076424  33.8191414  47.6661148   8.7364922  34.2828102
  48.1697464   7.7843671  34.1157455  48.2990112   9.6065159  34.1078568
  47.4310684   8.8469419  35.7706871  47.0320511   9.8366299  35.9929466
  46.6591644   8.1242771  36.0352974  48.6935158   8.6958914  36.7145042
  49.6041336   9.5461159  36.5432472  48.6461449   7.7922640  37.6522789
  46.6816406   9.2032013  31.9294052  46.5536575  10.4539852  31.5985661
  46.9539642   8.2547827  31.0008202  47.0220108   7.2732387  31.2289448
  47.2830505   8.6381674  29.6297855  48.0494614   9.4115648  29.5791206
  47.8854828   7.3538022  29.0279312  47.8741684   6.5003142  29.7058182
  47.2701111   6.9912577  28.2045383  49.3407669   7.4699273  28.5655689
  49.5444374   8.2602625  27.8430805  49.8858528   7.8070645  29.4472313
  49.9319420   6.1635599  28.0476704  49.1878967   5.3107581  27.4283600
  51.1606026   5.9807873  28.1817589  46.1318779   9.1555462  28.7933636
  46.3030891   9.6189823  27.7043438  44.8662682   9.1484041  29.2937679
  44.7904472   8.7297335  30.2097721  43.5849495   9.6011858  28.6345825
  43.8134346  10.1098185  27.6979980  42.7966537   8.3213482  28.2689953
  42.4465218   7.9180698  29.2191906  41.9582520   8.5767355  27.6209507
  43.6324959   7.1614985  27.6425705  44.4858246   6.8358684  28.2374611
  43.0564804   6.2417493  27.5407429  44.1386299   7.6094108  26.2027321
  43.4192581   8.3116217  25.4877377  45.1551208   7.0970592  25.6559467
  42.8670921  10.4503212  29.6078491  42.4724960  11.5381336  29.1760902
  42.7523804  10.0895872  30.8782234  43.0965958   9.1687965  31.1100941
  41.8689423  10.8228130  31.7801018  40.8315582  10.8262215  31.4455395
  41.7940903  10.1484346  33.1540298  42.8238869   9.9092598  33.4194107
  41.2096481  10.8900833  34.3317299  41.0786514  10.3441029  35.2659874
  41.8097115  11.7509556  34.6265526  40.2155952  11.2991352  34.1510658
  40.9806557   8.8027067  32.9265785  39.9482536   9.1340456  32.8149567
  41.2392044   8.2574997  32.0188332  41.0618820   7.7200413  34.0035172
  42.1063728   7.5311275  34.2514000  40.5382957   8.0577564  34.8978882
  40.6827049   6.7899852  33.5800476  42.4481354  12.2599993  31.8817673
  41.6932678  13.2487907  31.8932781  43.7577095  12.3698015  32.0884323
  44.3060417  11.5237303  32.0284538  44.4159584  13.7246866  32.4267464
  43.9009666  14.2721634  33.2161446  45.9000397  13.5005083  32.8063202
  46.3149872  12.7943382  32.0871201  46.4446182  14.4273291  32.9866943
  45.9558372  12.7495680  34.1215553  45.5255318  11.7522287  34.0307045
  47.4445190  12.5615749  34.4970474  47.7905617  11.9589977  33.6572495
  47.9880257  13.5039310  34.5653572  47.6395950  11.9208078  35.3569679
  45.2898560  13.4799185  35.3778381  44.2256584  13.5856981  35.1671219
  45.4878616  12.8529043  36.2471733  45.8327408  14.4054346  35.5696564
  44.3458977  14.5864000  31.1566982  43.8179855  15.6728601  31.1526146
  44.6746521  13.9362469  30.0337219  44.9764748  12.9726553  30.0559521
  44.5412407  14.6324558  28.6844845  45.1357727  15.5460415  28.6843719
  45.1646118  13.6843672  27.5757332  46.2269135  13.6503716  27.8175068
  44.8168716  12.6552763  27.6660042  45.0410233  14.3431072  26.1645470
  45.5908661  13.7516842  25.4324322  44.0130653  14.3786211  25.8037949
  45.6567307  15.7067318  26.0997143  46.6986771  16.0598774  26.6623287
  45.1422691  16.6399860  25.3673401  44.2969589  16.3957043  24.8714752
  45.6195908  17.5218983  25.4877396  43.0751991  15.0418463  28.1960583
  42.8881111  16.2279167  27.7636166  42.0475082  14.1083813  28.3563995
  42.3746567  13.2765999  28.8267326  40.6369514  14.3527660  27.9769192
  40.5763550  14.9143744  27.0447063  39.8614807  13.0844412  27.9490776
  40.2183609  12.4511938  28.7613106  38.8587723  13.3315716  28.2978039
  39.7520676  12.3468828  26.5833588  38.9761086  11.5927372  26.7147198
  39.2855835  12.8940897  25.7641773  41.0045547  11.5522928  26.1487846
  41.8135071  12.2828226  26.1443233  41.3553619  10.7760019  26.8287907
  40.7570686  10.9563160  24.7677002  40.0055809  10.1863222  24.9422817
  40.3520241  11.7107983  24.0933151  41.8858795  10.2571630  24.1994781
  42.6024399  10.8918324  23.8772411  42.3760796   9.6793756  24.8672886
  41.5855103   9.7125616  23.4036846  39.9376335  15.3033676  28.9309673
  39.0483627  16.0410233  28.5570774  40.3722572  15.3783102  30.1697254
  40.9530220  14.7269478  30.6781940  39.9652214  16.4598866  31.1298695
  38.8838921  16.3612576  31.0344810  40.2933998  16.0990028  32.5308914
  41.3709908  15.9930134  32.6560555  39.8864594  17.1799412  33.6010017
  40.6145782  17.9909515  33.5866203  38.9361343  17.6275654  33.3101196
  39.8600235  16.7886200  34.6179924  39.7210045  14.8924618  32.9977150
  40.4258575  14.2784996  33.2164230  40.4524994  17.8143616  30.7153969
  39.7051582  18.6897869  30.4284935  41.7564583  17.8763599  30.5601997
  42.2824516  17.0917320  30.9176769  42.4275055  19.0972939  30.1290474
  42.3261337  19.8431091  30.9174519  43.9284782  18.7922935  29.9149036
  44.3205910  18.0737171  30.6346245  44.0910759  18.2981949  28.9570255
  44.7153664  20.1694965  29.8321934  44.3635674  20.7816467  29.0017643
  44.5561829  20.7828789  30.7190571  46.1990662  19.8634472  29.5858326
  46.8808327  20.7120075  29.6427917  46.4374771  19.2139397  30.4280910
  46.5753326  19.2287521  28.2038689  46.1494141  18.2476406  27.9938335
  46.2027626  19.9175625  27.4456921  48.0091362  19.1049519  28.0619698
  48.1933708  18.7764130  27.1248360  48.4730034  19.9873219  28.2243233
  48.3623734  18.3384972  28.6168289  41.8823891  19.6506577  28.7470226
  41.8058281  20.8712234  28.6132679  41.5416527  18.8112316  27.7535114
  41.8910828  17.8656063  27.8150635  40.8362808  19.1510086  26.4849854
  41.3926239  20.0226307  26.1402245  40.8599548  18.0648422  25.4640675
  41.9102516  17.8418579  25.2763004  40.2430382  17.2197380  25.7695408
  40.1889420  18.5622578  24.1554527  39.2000465  18.9566479  24.3892040
  40.8362274  19.3338795  23.7386532  40.2212677  17.5315647  23.0646210
  40.9480209  16.6089344  23.1047497  39.2608871  17.5315418  22.1433163
  39.4158173  16.8717613  21.3944588  38.6339188  18.3224640  22.1052036
  39.4212341  19.6792755  26.7959366  39.0554504  20.7607250  26.3338108
  38.5658455  19.0166492  27.5428047  38.8520279  18.1116333  27.8879814
  37.1998940  19.3976040  27.8194771  36.6528549  19.5966816  26.8979473
  36.4648705  18.2587299  28.4937057  36.2939072  17.4290619  27.8077602
  37.0059433  17.9727345  29.3956776  35.0741539  18.7296944  28.9420490
  35.1847878  19.6522808  29.5118771  34.1970673  18.9352169  27.7142372
  33.4134712  19.6416569  27.9881382  34.7964211  19.2655144  26.8658390
  33.7051277  17.9802551  27.5294552  34.3662338  17.7444935  29.9448071
  33.4741020  18.2589340  30.3019524  34.0429077  16.8557148  29.4029255
  35.0861130  17.5115509  30.7294178  37.1815147  20.7845840  28.5464935
  36.4817429  21.6820145  28.0802975  38.1655693  20.9465141  29.4379749
  38.6713829  20.1049709  29.6747417  38.3648186  22.2052708  30.1304131
  37.4241524  22.5986614  30.5157623  39.3346939  21.9031792  31.2603016
  38.8626862  21.1651936  31.9089088  40.2029724  21.4477005  30.7841454
  39.7326241  23.0750027  32.1135330  40.1657524  23.8043194  31.4289913
  38.5700531  23.7143955  32.8122139  37.7579842  23.8349037  32.0951843
  38.2860146  23.0051155  33.5896111  38.9011765  24.6190853  33.3221092
  40.7969742  22.7126045  33.1580315  41.1840858  23.6424751  33.5746727
  40.2180252  22.2093258  33.9323921  41.5788651  22.0953121  32.7156601
  38.8238831  23.2086353  29.0622406  38.2417793  24.2547913  28.9268627
  39.9198189  22.9839954  28.2889538  40.3049774  22.0508976  28.3218174
  40.3754044  23.9751015  27.2526302  40.6136322  24.9279976  27.7252121
  41.6185150  23.4275913  26.5878544  41.5717163  22.3830643  26.2798405
  41.7859535  24.0453892  25.7055893  42.8876686  23.6022587  27.4353313
  42.6128540  23.3172684  28.4508896  43.5687981  22.8660030  27.0086040
  43.6507874  24.8954525  27.4904537  43.0702438  25.9189930  27.9503212
  44.8425522  24.9513016  27.1106491  39.2956238  24.4699154  26.2725925
  39.3655663  25.6109562  25.8168278  38.2772331  23.5930347  26.0339355
  38.4050102  22.6454124  26.3591824  37.2637596  23.8903980  25.0313206
  37.7306976  24.5334473  24.2852898  36.8485451  22.5576973  24.2794838
  37.7712936  22.0867157  23.9406452  36.4510651  21.8407383  24.9978790
  35.9407730  22.7274361  23.0870686  35.5772171  21.7852440  22.6769466
  35.1529503  23.4016876  23.4229527  36.6874619  23.5115128  21.8933620
  36.9097443  24.5105133  22.2684460  37.6074409  22.9519272  21.7242126
  35.8742332  23.5582600  20.6817303  35.2895470  22.6384411  20.6683636
  35.1209106  24.3296452  20.8416290  36.6365929  23.6962986  19.4385777
  37.4395027  23.0845623  19.4036121  35.9933739  23.4803047  18.6904354
  36.9428902  24.6579819  19.4005566  36.0080299  24.5272331  25.6389866
  35.3957520  25.3866138  25.0654659  35.7365379  24.2808609  26.9491653
  36.1010132  23.4486065  27.3903084  34.8296814  25.0662537  27.8024826
  33.8829803  25.1221352  27.2651329  34.6139526  24.3576012  29.1289978
  35.5567093  24.1004524  29.6118908  33.7871704  25.2091103  30.1339169
  32.8530121  25.5110817  29.6603508  33.5373230  24.6425152  31.0309353
  34.2868004  26.1294785  30.4362335  33.7893105  23.0789223  29.0151081
  32.7230530  23.2566071  28.8750229  34.0106544  22.5218582  28.1047287
  33.9290962  22.1314621  30.1811981  33.4690971  21.1666145  29.9677200
  34.9882622  21.9583626  30.3717499  33.5077133  22.6001797  31.0704861
  35.3908691  26.4822025  27.9303284  34.6489754  27.4370441  27.9188423
  36.7168159  26.5974903  28.1022606  37.3197021  25.7875919  28.0759869
  37.3851204  27.8893471  28.3083363  36.8398438  28.4363785  29.0774517
  38.8332748  27.5466156  28.7756424  39.1190186  26.7148380  28.1317463
  39.8427277  28.6818619  28.5634556  39.6762505  29.3031769  27.6834812
  39.9506416  29.3499107  29.4179535  40.7708359  28.1157436  28.4845505
  38.8145142  27.2048035  30.2991505  38.4236832  27.9941864  30.9411983
  38.1055641  26.4202061  30.5635490  40.1610565  26.7785549  30.8614502
  40.0635262  26.4264565  31.8883953  40.5735588  25.9880428  30.2345276
  40.8240051  27.6433773  30.8876896  37.3292427  28.6881542  27.0582256
  36.9262314  29.8430996  27.1290398  37.7029686  28.1407261  25.9646950
  38.0725136  27.2008018  25.9736233  37.6797867  28.7742367  24.6860046
  38.3740044  29.6140347  24.6559181  38.3001671  27.7065315  23.7376213
  39.2839279  27.3388062  24.0293388  37.5212212  26.9443035  23.7189617
  38.4135971  28.1490173  22.2476215  38.4959412  27.2554798  21.6288261
  37.4808273  28.6340504  21.9599056  39.5406151  29.1145782  21.9190769
  40.6039047  29.0509701  22.4808292  39.3634949  29.9145203  20.9541206
  36.2259674  29.2109528  24.3274269  35.9463120  30.2794323  23.7765789
  35.1611633  28.4620342  24.6609554  35.4704819  27.5324097  24.9063530
  33.8093758  28.7330914  24.2587032  33.8410683  29.0727386  23.2234554
  33.0905647  27.3613338  24.1787415  33.2081871  26.7805309  25.0935822
  32.0173225  27.5417881  24.1180077  33.5300522  26.5633907  22.9438686
  34.5176239  26.8893929  22.6174889  33.5391197  25.5112324  23.2284584
  32.5864487  26.7133656  21.7653236  31.9373875  25.8106289  21.2732964
  32.3308601  27.9262447  21.4164486  33.1593552  29.7651196  25.1231194
  32.3280067  30.5341473  24.6565971  33.5230103  29.7863007  26.4171143
  34.1929016  29.1227417  26.7790966  32.8140373  30.6676598  27.3745995
  31.9408455  31.1082630  26.8934479  32.3163834  29.7321548  28.4355698
  33.2551765  29.3753605  28.8592052  31.7599487  30.3680420  29.1241379
  31.4327869  28.5719070  27.9545708  30.2079258  28.7303448  27.8775864
  31.8943558  27.3877678  27.5897617  31.1961365  26.6655445  27.4849567
  32.9016457  27.3478870  27.5274887  33.7563629  31.7914944  27.8120022
  33.4222069  32.6322823  28.6398335  34.9572716  31.8443565  27.1669827
  35.2307701  31.0505848  26.6055336  36.0001984  32.9400940  27.3312092
  36.9139290  32.6496544  26.8127117  35.4394951  34.2893600  26.7394848
  34.6021271  34.6421585  27.3415222  36.2063789  35.0569038  26.8437252
  35.0590401  34.0571861  25.2868233  35.8423309  33.4359283  24.2859020
  36.7301903  32.9824333  24.4476051  35.0060463  33.4026604  23.1782684
  35.2157288  32.8745804  22.2598095  33.8114510  34.0407181  23.5211964
  32.9980888  34.1276207  22.9287548  33.8184891  34.4769249  24.7975197
  33.0748596  35.0365105  25.3454971  36.3493462  32.9937401  28.7958717
  36.7085190  33.9960365  29.3422241  36.2174454  31.8885098  29.4656258
  36.0660210  31.0251522  28.9638367  36.3039818  31.8167400  30.9356022
  35.7711411  32.6358604  31.4185295  35.7457733  30.4686050  31.3934250
  36.4526291  29.6896896  31.1075134  35.4478111  30.5560818  32.9006691
  35.2864952  29.5792580  33.3566246  36.2753639  30.8730907  33.5353088
  34.5795517  31.1969223  33.0541153  34.5603714  30.2967701  30.6778126
  33.9899101  31.0198593  30.9485741  37.7798958  31.8990784  31.4031906
  38.7133102  31.2669754  30.8038712  38.0525475  32.7171135  32.4114838
  37.3001823  33.1654358  32.9145317  39.3520584  32.7672539  33.2085152
  40.0996132  32.1094322  32.7651939  39.9370003  34.2361450  33.0960159
  39.2196350  34.9551888  33.4915733  40.8574333  34.2596626  33.6794052
  40.2943611  34.6401024  31.6941414  39.3976936  34.8090858  31.0978775
  40.8614197  35.5668259  31.7820492  41.2228355  33.7078819  30.9350090
  42.1465034  33.5629463  31.4953098  40.6885757  32.7591553  30.9858284
  41.4618912  34.2311974  29.5282936  40.7549133  33.7807274  28.8316154
  41.3060188  35.3078613  29.4604282  42.7910767  33.8683968  29.0197754
  43.5221634  34.4010162  29.4691353  42.9673042  32.8806572  29.1355972
  42.8729172  34.1194229  28.0448971  39.0279160  32.2350197  34.5894089
  37.8859901  32.2857628  34.9677391  40.0413704  31.7960167  35.3541870
  41.4558640  31.7478752  34.9371414  41.6930733  32.7707100  34.6444969
  41.6333466  31.1084709  34.0724068  42.2865868  31.3945351  36.1635857
  42.5594864  32.2847595  36.7302666  43.1218567  30.7673817  35.8519745
  41.2550125  30.6218624  37.0416565  41.5183449  30.7042847  38.0961533
  41.1561432  29.5838470  36.7240829  39.9390831  31.2170868  36.6509094
  39.2062721  30.4110126  36.6875992  39.3605423  32.1853409  37.7576065
  38.6166573  31.5934029  38.5560837  39.5925102  33.4687309  37.8098068
  40.1423378  33.9298401  37.0990601  39.1823196  34.3484688  38.9088211
  39.4980392  33.7966118  39.7941895  39.9789734  35.6582909  38.8908501
  39.8736916  36.0341454  37.8731308  39.4253120  36.3668365  39.5069046
  41.4330826  35.4990120  39.2606850  41.4046021  34.8071747  40.1025009
  42.0748367  35.1024132  38.4739418  41.9523659  36.9194908  39.7473564
  41.6612968  37.3119164  40.9133415  42.6993256  37.6062622  39.0331459
  37.6699905  34.6671982  38.9684601  37.1952171  35.0896530  40.0173836
  37.0120354  34.3831863  37.8498878  37.6474342  34.0490074  37.1394691
  35.5675278  34.4582024  37.7248840  35.2104225  35.2890511  38.3333778
  35.2191315  34.7977257  36.2903748  35.6497803  34.0013695  35.6833687
  34.1365128  34.8692169  36.1858673  35.8843193  36.1132317  35.8660660
  36.6494904  36.1312447  34.8972282  35.6162872  37.1762085  36.4995003
  34.8033485  33.2558937  38.2905846  33.6170311  33.3586044  38.6151009
  35.5196381  32.1369896  38.4205360  36.5152245  32.1863899  38.2578506
  35.0080833  30.8159962  38.9264755  33.9778366  30.7571735  38.5754242
  35.8402863  29.6877079  38.3087158  36.8249550  29.6717663  38.7759209
  35.2284355  28.2555389  38.4933357  35.0697784  28.1161461  39.5626831
  34.3019600  28.0873070  37.9443016  35.9443588  27.4924564  38.1879501
  35.9637871  29.7885056  36.7579041  34.9604950  29.8987770  36.3463936
  36.4953117  30.7213230  36.5696373  36.4871559  28.8903008  36.4301643
  35.0403900  30.8658199  40.4788551  36.0727882  30.9799767  41.0855141
  33.8449402  30.6604614  40.9807968  33.1583176  30.2931633  40.3375664
  33.5456390  30.5549145  42.3644104  33.9397278  31.3552494  42.9907150
  32.0044670  30.5017128  42.5381699  31.6197987  29.6369209  41.9975471
  31.5606804  30.2410431  43.9934349  31.6329174  29.1615849  44.1262779
  32.1834793  30.8764610  44.6230927  30.5365620  30.5766010  44.1567955
  31.2780342  31.7642956  42.0302086  30.2061214  31.5864925  42.1168022
  31.5865288  32.4760017  42.7959824  31.5655384  32.1398926  41.0481873
  34.1251068  29.2581882  42.8808823  34.9734001  29.2804413  43.8276558
  33.7689667  28.0719547  42.3034973  33.2040825  28.1660461  41.4715385
  34.1045952  26.6716824  42.7340546  35.1902542  26.6668301  42.8311310
  33.3869438  26.2534447  44.0181084  33.8639259  25.3398857  44.3730774
  33.7181931  26.9380589  44.7989311  31.8868122  26.1841164  43.9471321
  31.4249725  26.6239986  44.8310509  31.5266819  26.7007313  43.0574608
  31.4982796  24.7139797  43.8135986  31.8175507  24.0423927  42.9078407
  30.6410866  24.2685986  44.7349701  30.0721664  23.4455357  44.5971451
  30.3483868  24.9677792  45.4024811  33.7737389  25.7571735  41.5746880
  32.9492149  26.1177902  40.7340088  34.5109558  24.6154022  41.5371552
  34.9609184  24.3843975  42.4113808  34.4084816  23.6496410  40.5134659
  33.5732269  23.8554115  39.8440552  35.6637421  23.5702591  39.6429749
  35.8164291  24.5242691  39.1383476  36.5473480  23.4962902  40.2769165
  35.7387428  22.4371471  38.5569878  35.8025742  21.5423660  39.1761742
  34.7922173  22.5049076  38.0207062  37.2536278  22.6825542  37.5794487
  36.8058929  24.1431389  36.4603691  36.2394447  23.7648811  35.6093941
  36.2635384  24.9136372  37.0083542  37.7251129  24.4972363  35.9937286
  34.1401596  22.2294903  41.0368156  34.9518051  21.7942543  41.8576660
  33.2015457  21.4247150  40.5191612  32.5865860  21.7939205  39.8080940
  33.1742592  19.9910240  40.7275391  33.9514923  19.6948223  41.4320068
  31.8311214  19.6070633  41.3944931  31.0230865  19.6418133  40.6637573
  31.9970570  18.6156578  41.8160133  31.4067326  20.4576588  42.5937347
  31.3261337  21.4954758  42.2704048  29.9954281  20.0746880  43.1160660
  29.2798996  19.9265118  42.3072586  30.0714569  19.1102810  43.6183014
  29.5065193  20.8659439  43.6843834  32.3759575  20.3303623  43.7763939
  32.3566742  19.4367847  44.4002914  33.3888702  20.6456490  43.5259972
  32.1497307  21.1065559  44.5074577  33.4977684  19.2625923  39.4421272
  33.1657639  19.6842766  38.3366585  33.9511719  18.0437431  39.7057724
  34.0340042  17.7096233  40.6553040  34.1739235  17.0568600  38.7324677
  33.6087875  17.3319721  37.8419418  35.6383476  17.0071697  38.3081436
  36.3811989  16.7986908  39.0780830  35.8073120  16.1519718  37.6537819
  36.0985146  18.2269840  37.4668465  35.1239700  18.7017879  37.3531532
  37.0716019  19.1483803  38.3132706  38.0591316  18.6908016  38.3725395
  37.2907639  20.0036507  37.6740646  36.6571274  19.4267483  39.2821999
  36.5291443  17.8849449  36.0678062  35.8083076  17.2934437  35.5033493
  36.6566277  18.8661175  35.6104813  37.4857903  17.3664436  36.1316948
  33.7796059  15.6329365  39.1781502  33.7078896  15.2921772  40.3477745
  33.3941994  14.8195419  38.1811485  33.2318993  15.3583736  37.3424492
  32.9468193  13.4435673  38.3322525  33.3037529  13.0098362  39.2663727
  31.4317493  13.3795080  38.3663750  31.1024151  12.3427496  38.4354553
  30.9517498  13.8952942  39.1980400  30.8732090  13.8045673  37.1515121
  30.8011856  13.0331831  36.5846062  33.4431267  12.5297127  37.2584496
  33.8369331  13.0029392  36.2053108  33.3635979  11.1927443  37.5104103
  33.0918274  10.9236288  38.4451904  33.7204895  10.1053171  36.5448723
  33.2232056  10.3196430  35.5988922  35.2153168  10.0773668  36.4089165
  35.5570831  11.0958319  36.2244568  35.5798531   9.6832781  37.3575478
  35.4678841   9.4357443  35.5647354  33.1399765   8.7468081  36.9053726
  33.1522598   8.3861065  38.0723343  32.6091957   7.9320354  35.9222488
  32.7523155   8.2341518  34.9691811  31.7569618   6.7587490  36.2027206
  31.0327873   7.1261182  36.9298477  31.1373596   6.1490951  34.9021149
  30.6140938   5.2062912  35.0615463  30.2715836   7.1509748  34.2509613
  29.8285866   6.6888857  33.3687363  29.4024239   7.5472445  34.7759666
  30.8522015   7.9700451  33.8265610  32.1426506   5.8945861  33.9793777
  31.9654789   5.0345755  33.5913162  32.7002831   5.7369475  36.8531952
  33.9126587   5.8064551  36.7509270  32.1541252   4.6671309  37.4945297
  30.8214302   4.7040329  38.1175232  30.0743332   4.5200143  37.3454552
  30.6697121   5.7086077  38.5123787  30.7919788   3.6842179  39.2453156
  29.7994671   3.2610695  39.4001350  31.1147537   4.1302261  40.1860580
  31.8877430   2.7572238  38.8595772  31.4763737   2.0429339  38.1463699
  32.3743820   2.2718225  39.7055511  32.9499283   3.5934312  38.1097755
  33.5335159   4.0592556  38.9038353  33.7630768   2.6880348  37.1827240
  34.7221565   2.0202086  37.6543159  33.5445442   2.7753129  35.8528786
  32.7366982   3.2485173  35.4739761  34.4532967   2.2237175  34.8340492
  34.4418602   1.1345897  34.8761215  34.0388565   2.5389075  33.3837814
  34.2239151   3.6064792  33.2648392  34.6252251   1.9487482  32.6795197
  32.4697647   2.4353249  33.1189537  31.9282646   1.3696498  33.0378227
  31.7483940   3.4743032  33.0989151  35.9659996   2.6205699  34.9820786
  36.9303741   1.9456732  34.5497284  36.1819458   3.8166311  35.5365791
  35.3233757   4.2371292  35.8623772  37.4255981   4.5952106  35.7170486
  38.3042374   4.0878725  35.3186722  37.1996002   5.9621906  35.0948601
  36.4154129   6.3535180  35.7429428  38.1467133   6.4998894  35.0505219
  36.6039810   6.0561666  33.6737633  35.6745605   5.4884548  33.6291962
  36.4437485   7.5308433  33.3473549  37.3032532   8.0863810  33.7224846
  36.3533592   7.5792952  32.2621918  35.5515862   7.8664083  33.8760681
  37.6347885   5.4570432  32.8167114  37.7880669   4.3837862  32.9295425
  37.2682037   5.5857282  31.7983017  38.6049118   5.9527602  32.8518486
  37.7509346   4.6887832  37.1366005  36.8864021   4.9416928  37.9687233
  39.0411339   4.5206265  37.5115013  39.6944580   4.2699418  36.7831993
  39.5778465   4.5436692  38.9052925  39.0639420   5.3303270  39.4577141
  39.1964264   3.0743365  39.4195633  38.1313896   2.8869362  39.2828979
  39.7152672   2.3459260  38.7964058  39.4148521   2.7412310  40.8642845
  38.4534874   2.8614600  41.8177109  37.5536118   3.3115268  41.7295990
  39.1003532   2.3491132  42.8981133  38.6649704   2.2179689  43.8777237
  40.3903122   1.9415429  42.6030388  41.1336594   1.6967444  43.2414780
  40.6235771   2.2424500  41.3213539  41.5657349   2.1712015  40.7982101
  41.0754471   4.8510385  39.0944862  41.5488586   5.1036701  40.1705284
  41.8394661   4.9154253  37.9462318  41.4298592   4.6636734  37.0580063
  43.2438049   5.3578901  37.8614922  43.7474861   4.5378180  38.3732452
  43.6620293   5.3516927  36.3606300  44.7314529   5.3424916  36.1500359
  43.3763008   4.3981977  35.9164391  43.0988121   6.0440502  35.7348976
  43.7189903   6.6526523  38.3875771  44.8932266   6.6427355  38.8530045
  42.8813934   7.6861253  38.4728851  41.9135437   7.5393224  38.2242546
  43.2496643   9.0117397  38.9199638  43.7777977   8.9325523  39.8701820
  44.2842407   9.6052656  37.9807739  45.0792923   8.8711014  37.8504066
  43.6614456   9.9036217  36.5977898  43.0064583   9.0900145  36.2861252
  43.2200317  10.8980379  36.5315170  44.3816719   9.9948654  35.7847443
  44.9654312  10.8872623  38.4597321  45.8857231  11.1090250  37.9193802
  44.3121376  11.7563152  38.3819199  45.1858711  10.8424568  39.5262680
  42.1092606  10.0208244  39.0764046  41.0954971   9.8797855  38.4105377
  42.1930199  11.0093832  39.9733162  43.0809593  11.0633717  40.4515915
  41.2977905  12.1699619  40.1736565  40.2970810  11.7407742  40.2234154
  41.5808716  12.8098421  41.5055580  42.6347160  13.0826645  41.5610695
  40.9795952  13.7131681  41.6083794  41.2368279  11.9965973  42.7595787
  39.8854523  11.9617796  43.1078911  39.1949768  12.5096140  42.4837761
  39.5546341  11.5333586  44.4156761  38.5809441  11.6777973  44.8600464
  40.5685310  10.9410982  45.1873131  40.2703476  10.5966444  46.1665154
  41.9219551  10.8317690  44.7608299  42.6258583  10.4202538  45.4690590
  42.3076363  11.4355478  43.5229912  43.3545380  11.3179445  43.2851677
  41.4219742  13.1935215  39.0294456  42.4546318  13.8703909  38.8870392
  40.3733253  13.4403248  38.2479324  39.0604401  12.8634224  38.4244804
  38.6310921  13.0439844  39.4099541  39.1459541  11.7960415  38.2207985
  38.1745186  13.5672321  37.4038086  37.7944183  14.4130621  37.9766884
  37.3723755  12.9019947  37.0842438  39.1772652  13.9905348  36.3075485
  38.7622337  14.8733549  35.8212547  39.3654633  13.1337156  35.6606026
  40.4796715  14.2775011  37.0412941  41.2439919  13.9722939  36.3266144
  40.8217659  15.7181406  37.4114876  41.3713379  16.4508343  36.5484161
  40.7385788  16.1863556  38.6570892  40.3800087  15.5243282  39.3303261
  41.1514740  17.5260372  39.1592102  40.6483879  18.2542114  38.5229912
  40.6342888  17.7188015  40.5931664  40.9582024  16.8074074  41.0957031
  41.1112709  18.5222416  41.1544914  39.5494232  17.8008804  40.5266075
  42.6632233  17.7539787  38.9546700  43.0907021  18.9080772  38.8332787
  43.5636101  16.6835861  38.8686829  43.2674179  15.7333021  39.0399437
  44.9663277  17.0150623  38.7735252  45.3117638  17.7251091  39.5249329
  45.7643890  15.7508354  39.0208549  45.5377045  15.0210314  38.2436180
  46.8136177  16.0459957  39.0308990  45.6263733  14.9014893  40.3638573
  45.5260658  15.6663847  41.1339035  44.6428680  14.4423151  40.2639580
  46.7358780  13.9301786  40.5422516  47.0345612  13.4285192  39.6218033
  47.5573807  14.5503750  40.9008484  46.1268387  12.9098396  41.6261292
  45.0731392  12.6909122  41.4532585  46.7135239  11.9982147  41.7394524
  46.2583733  13.5482302  42.9767914  45.5446014  14.2455397  43.1329651
  46.2194405  12.8898745  43.7417412  47.1250763  14.0611429  43.0532646
  45.3958321  17.6922817  37.4840698  46.3720131  18.4211140  37.4560051
  44.5406723  17.4791431  36.4834862  43.7558365  16.8850365  36.7096977
  44.6062965  18.0545979  35.1572952  45.6045189  18.1258221  34.7253418
  43.7690430  17.2479191  34.1820984  43.6529083  17.8590584  33.2870483
  44.3144913  16.3171082  34.0266190  42.7494354  17.0985298  34.5373230
  44.2066574  19.5336838  35.0767174  44.9046326  20.2512321  34.3252525
  43.3073158  19.9736710  35.9675941  42.8753014  19.2701168  36.5493774
  42.8277855  21.3475857  35.9173012  42.5135040  21.6784077  34.9274101
  41.7309570  21.4889622  36.9795113  42.1430435  21.2479076  37.9594002
  41.0689888  22.8858643  37.0855637  40.6518364  23.0690784  36.0953484
  40.3097839  22.8463936  37.8666840  41.7945404  23.6395741  37.3914986
  40.5841942  20.4567299  36.6205902  39.7831573  20.5038662  37.3582993
  40.0929260  20.6139946  35.6603699  40.9147949  19.4224205  36.7155113
  43.9759216  22.3354301  36.2973175  44.2046394  23.2869167  35.5528488
  44.8187180  21.9588566  37.2990341  44.5921516  21.0108280  37.5636292
  46.0321465  22.5782928  37.7308388  45.8885536  23.6469669  37.5713768
  46.3351784  22.3668556  39.2461357  47.2745323  22.8827171  39.4451332
  45.5212173  22.8385029  39.7967033  46.4585648  20.9546947  39.7004395
  45.5652962  20.3791199  39.4577751  47.3425598  20.5056858  39.2476158
  46.7348175  20.9654770  41.2056160  47.5865250  21.6177826  41.3984795
  45.9514389  21.4850578  41.7573891  46.9589500  19.5715141  41.6580544
  47.8800850  19.1576214  41.6405907  46.0028534  18.7128925  42.0484505
  44.7571678  18.9819717  41.9644318  44.1021194  18.2240887  42.0933685
  44.4159737  19.8764973  41.6427040  46.3312569  17.5100842  42.4344292
  45.6140137  16.9188805  42.8295822  47.2795029  17.4114609  42.7679024
  47.2578087  22.3308735  36.8295860  48.3412590  22.8510990  37.1552353
  47.0919151  21.6953316  35.6365585  46.1866150  21.3900738  35.3089180
  48.1598969  22.0140038  34.6380844  49.1893272  21.9318905  34.9868393
  48.0241547  20.8863106  33.5768051  46.9862671  21.0019283  33.2645073
  48.6917152  20.9648609  32.7187309  48.2713890  19.4781723  34.1610794
  47.6795349  19.3475304  35.0670280  47.9369507  18.8086605  33.3686104
  49.6847725  19.0841179  34.5020142  50.5494576  19.9272594  34.6339798
  49.9479218  17.8692455  34.5992050  48.0413437  23.4446716  33.9538307
  49.0271072  23.8891010  33.4149857  46.8960114  24.1205883  33.9589615
  46.0463219  23.7444916  34.3547897  46.6468582  25.4420033  33.3584061
  47.2848892  25.6135483  32.4914627  45.1846161  25.5121326  32.7626457
  44.4619560  25.5950985  33.5744209  45.0605927  26.4298000  32.1876640
  44.6442413  24.2574406  31.9693146  44.4868011  23.3334599  32.5257072
  43.2895050  24.7919884  31.5033054  43.3358727  25.7690182  31.0222988
  42.8295364  24.1442223  30.7570305  42.6002502  24.9695454  32.3288383
  45.5108299  24.0161304  30.7575264  45.0607643  23.2089748  30.1795635
  45.6325378  24.8456707  30.0609989  46.5358353  23.7169018  30.9764671
  46.8136940  26.7434769  34.2551079  46.6955566  26.7245941  35.4817581
  47.1275215  27.8454037  33.5765686  47.0140839  27.8472042  32.5729637
  47.7018318  29.0552063  34.2232933  48.6014023  28.7604790  34.7636757
  48.1602898  30.0733128  33.1483803  49.1010323  29.8094959  32.6651535
  47.3746567  30.2204189  32.4072723  48.4801903  31.2848492  33.8224449
  49.0767059  31.7569675  33.2368927  46.6617928  29.6753407  35.1277275
  45.5820160  30.0733051  34.6409340  46.8454933  29.8202286  36.4344673
  47.7333679  29.4888783  36.7837334  45.9636040  30.3195782  37.4338684
  46.5211105  30.7414322  38.2701263  45.4314194  31.1597176  36.9877243
  44.9553680  29.3253517  38.0302734  44.5421638  29.3428802  39.1741104
  44.6277084  28.3048153  37.2392693  44.9956322  28.2375088  36.3010750
  43.6593475  27.2240009  37.6706161  42.8023300  27.7449913  38.0974579
  43.2518806  26.5207367  36.4131508  44.0952110  25.9736404  35.9917488
  42.5012321  25.8207512  36.7800980  42.4948769  27.2186069  35.3515167
  43.0669174  27.9743309  34.4280243  44.1390648  28.0108471  34.3032494
  42.1806526  28.5464821  33.6291084  42.4394722  29.0758038  32.8087845
  40.8701019  28.3809376  34.1327858  39.5570374  28.8053150  33.7522430
  39.4932938  29.5970917  33.0205154  38.4765015  28.2586555  34.3668022
  37.4628372  28.4737148  34.0624466  38.5937996  27.2400398  35.3496895
  37.7316437  26.8733711  35.8869476  39.9009171  26.9679508  35.8628273
  40.0770073  26.2114563  36.6132393  41.0627403  27.4398289  35.1824608
  44.1458893  26.2760696  38.8224297  43.3231468  25.6945629  39.5041275
  45.4819183  26.3218575  39.2551346  46.1511497  26.9138947  38.7842598
  45.9637070  25.8775673  40.5806618  45.5002823  24.9021397  40.7285690
  47.4450417  25.7151260  40.6232414  47.6389198  25.1271305  41.5203323
  47.8001976  25.1329918  39.7728996  48.2727394  27.0110531  40.7026596
  47.7926064  27.7236824  41.3732796  49.2721214  26.8028889  41.0847626
  48.4989891  27.7446022  39.3814392  47.8776894  27.3877506  38.3683548
  49.2536087  28.8227654  39.3251534  49.6440506  29.0942230  38.4341049
  49.6428604  29.1163521  40.2096825  45.4285927  26.5790977  41.8345642
  45.6438866  26.0075855  42.8768311  44.8744125  27.8078537  41.6941872
  44.8172379  28.1131020  40.7331200  44.1113853  28.3769283  42.7832756
  44.3824997  27.9288921  43.7392387  44.4747849  29.9119911  42.7982254
  44.0582390  30.3562698  41.8942299  43.9840012  30.3367710  43.6738968
  45.9774895  30.2489128  42.8355446  46.6481895  30.2252045  44.1036415
  46.2025299  29.9011765  45.0325127  48.0062981  30.5605888  44.1587181
  48.5095520  30.5416565  45.1141129  48.7628860  30.8994083  42.9950867
  50.0775681  31.0852127  43.0918999  50.6189499  30.6565304  42.4250107
  48.0805359  30.8268356  41.7046738  48.6705017  31.0781517  40.8356628
  46.6709709  30.5058517  41.6491470  46.0869331  30.5213680  40.7408142
  42.5077133  28.2316341  42.7075958  41.7989311  28.6249657  43.6279984
  41.9514275  27.5345764  41.7512550  42.4790344  27.1832275  40.9649429
  40.4989166  27.2219372  41.6995049  39.9574776  28.0920448  42.0708046
  39.9770470  26.8445969  40.2788544  40.4572945  25.9907303  39.8009682
  38.4638176  26.5899868  40.2557983  38.2516441  25.6124210  40.6887512
  37.8805008  27.3861923  40.7182961  38.1425552  26.5807705  39.2142601
  40.0931358  28.1234665  39.4031563  41.1338234  28.3246155  39.1489487
  39.5647354  28.0173550  38.4557228  39.6507683  28.9522896  39.9558449
  40.1307526  26.1239414  42.6325798  40.7732430  25.0401897  42.5485954
  39.1976204  26.2984924  43.5635414  38.3405609  27.5349789  43.7804451
  37.7523079  27.8353977  42.9133797  38.9419098  28.3958149  44.0727501
  37.5091667  27.2558060  45.0089798  36.5066566  27.0272636  44.6472626
  37.4714394  28.1224098  45.6690445  38.2559624  26.0980148  45.7397423
  37.5114822  25.5303822  46.2979927  39.0957108  26.5125294  46.2975044
  38.8928528  25.3181915  44.5931625  39.8396683  24.8823433  44.9120331
  38.0027466  24.2175312  43.9654846  36.9831696  24.4289265  43.3032913
  38.2620926  23.0057468  44.2657051  39.0091591  22.8344078  44.9234543
  37.8666115  21.7870827  43.4929733  36.9206734  21.9870548  42.9896736
  38.9118385  21.3446484  42.5168343  38.9083405  22.2504711  41.9105530
  40.3743629  21.1148567  42.8953972  40.8385086  22.0581455  43.1832771
  40.4841576  20.4317131  43.7376366  40.9178658  20.5844803  42.1134720
  38.4606781  20.1795368  41.6501122  38.9863281  20.1606655  40.6954193
  38.7041359  19.3196640  42.2741737  37.3845100  20.1986084  41.4780693
  37.4981804  20.6405640  44.5375633  38.1423225  20.5235271  45.6442375
  36.4436569  19.8224354  44.3878059  35.8460083  19.9556389  43.5845757
  36.2672653  18.4440174  45.0251389  37.2487144  18.0471039  45.2845917
  35.3938141  18.3828106  46.2560005  34.3433495  18.5877628  46.0495605
  35.5208473  17.0655270  47.1021729  36.5667839  16.9137020  47.3687630
  34.9294586  17.2669182  47.9953690  35.3013878  16.1157818  46.6143990
  35.9032440  19.4748688  47.0632744  36.5107918  20.0259571  46.5644875
  35.6942520  17.5757732  43.8912811  34.8884926  18.0083618  43.0634499
  35.9726181  16.2798767  43.9713364  36.4592781  15.9405804  44.7887383
  35.6674042  15.1376362  43.0885124  35.4295807  15.5205564  42.0960808
  36.8540154  14.2073450  42.9442902  37.2552681  14.0031919  43.9369736
  36.6622086  13.2755127  42.4123154  38.0281792  15.1255236  41.9991646
  38.6318588  15.6884680  43.0496674  34.3500748  14.4110765  43.5659065
  34.4788666  13.3726044  44.2757339  33.1382332  14.9111366  43.1943283
  33.0375938  15.6604977  42.5246773  31.8225307  14.2617540  43.5472298
  31.8653297  14.0649614  44.6184654  30.6596222  15.2576084  43.2467499
  29.8232307  14.9406385  43.8697128  30.9223003  16.2900105  43.4774933
  30.3135071  15.3324432  41.8141670  31.2417793  15.2895279  41.2444572
  29.8244400  14.4268026  41.4553757  29.2676640  16.8065987  41.6004715
  29.7760925  17.1212635  39.8438339  29.5139370  16.2386475  39.2604256
  29.3201542  17.9203892  39.2593536  30.8630333  17.1569271  39.7704048
  31.7322254  12.8545790  42.9318390  31.7544231  12.7406769  41.6841164
  31.5235291  11.7959328  43.6947212  31.3724785  11.9425793  44.6825371
  31.1999092  10.4335127  43.1655693  32.0946808  10.1600475  42.6063690
  31.1299763   9.4862375  44.3545341  32.1139336   9.3958178  44.8147011
  30.4655838  10.0570831  45.0032425  30.4918194   8.1287918  44.0071297
  30.2103500   7.5804305  44.9061127  29.5866661   8.3132906  43.4285393
  31.4858532   7.3765383  43.2099495  32.6931152   7.2033401  43.5812035
  31.1839867   6.8615131  42.0117302  30.2415867   6.9391689  41.6568184
  31.9701977   6.4530783  41.5268021  29.9587231  10.3306112  42.2278633
  28.8703976  10.7627211  42.5571632  30.1792068   9.6505804  41.0503159
  31.0930233   9.2290754  40.9644508  29.2002068   9.5895586  39.9872398
  28.6098137  10.5005198  39.8888283  29.9159966   9.3296642  38.6654625
  30.8196659   9.9365110  38.7221870  30.3617382   8.3362370  38.7156410
  29.1780128   9.3833294  37.3349152  29.8689690   9.0916824  36.5439529
  28.3741531   8.6502542  37.4020729  28.5956821  10.7082014  36.9137917
  28.6516132  10.9425192  35.6393547  28.1570950  11.6088152  37.7190361
  28.2162914   8.4363289  40.3820572  28.8204212   7.3821778  40.6923676
  26.8965168   8.6492233  40.4333115  26.5664978   9.5706291  40.1839180
  25.8346634   7.6713772  40.5102539  25.8957977   6.9971251  41.3645058
  24.5139408   8.3948336  40.6332130  24.3336582   8.7449989  41.6495705
  24.5011177   9.2740784  39.9891129  23.2706547   7.4846926  40.5657997
  23.3653030   6.8385472  39.6930809  23.1270256   6.8823152  41.4628067
  21.8442326   8.4885941  40.3140564  20.4227448   7.3618741  40.2416267
  20.3980370   6.5672994  39.4958725  20.2691727   6.8656559  41.1998978
  19.6581287   8.0526447  39.8862381  25.8830204   6.6913047  39.3203125
  25.7438927   7.1916208  38.1974792  26.0440159   5.3490539  39.5866432
  26.0305080   5.0997653  40.5653038  25.9281693   4.2755189  38.6286621
  26.5751209   4.3746462  37.7570381  26.3073826   2.9370923  39.3010292
  27.2354622   3.0054359  39.8685646  25.5565453   2.7389879  40.0659523
  26.3237667   1.8523804  38.2178764  26.8856239   2.1400671  37.0893822
  25.7335415   0.7897953  38.4989204  24.4940777   4.1984582  38.1301346
  23.6118965   4.0746922  39.0164185  24.2168140   4.4081612  36.8274117
  24.9713345   4.6618290  36.2057610  22.8689842   4.3638983  36.2347641
  22.2105942   3.9811401  37.0145836  22.3854103   5.7090707  35.7970734
  23.1220284   6.2265663  35.1825066  21.0834961   5.6329999  35.0589790
  20.3847256   4.9789395  35.5805359  20.6855125   6.6469378  35.0185013
  21.2944832   5.3266678  34.0344124  22.1234627   6.5677190  37.0605087
  21.2768974   6.1880465  37.6325874  22.9807739   6.6331310  37.7304611
  21.9386253   7.5775032  36.6940880  22.9574528   3.3495238  35.0059395
  23.9606323   3.3595157  34.3216095  21.9032497   2.5594726  34.8116112
  21.0316544   2.6242030  35.3178024  21.8271580   1.4736120  33.8143921
  22.5819473   0.7375250  34.0911064  20.5036812   0.6642944  33.8785133
  20.3850765  -0.0756452  33.0869827  20.2662659  -0.1266061  35.1581612
  20.5026493   0.4192969  36.0715141  19.2169857  -0.4193482  35.1958237
  20.9654236  -0.9505497  35.0153503  19.3978863   1.6420522  33.7566147
  18.6213341   1.1173928  33.9646988  22.1119423   1.8837450  32.3897362
  23.0740814   1.4264743  31.7451134  21.3940659   2.9438233  32.0159302
  20.6454887   3.2185636  32.6358109  21.5608768   3.7902167  30.8514709
  21.7835636   3.2050433  29.9592400  20.6408043   4.3543191  30.6986427
  22.6374912   4.8615708  30.8884506  22.7367821   5.7043109  30.0008049
  23.4799824   4.8040180  31.9398022  23.3493557   4.0928884  32.6450195
  24.6860561   5.6476760  32.1090546  24.4783001   6.7176943  32.1092529
  25.0504227   5.1551642  33.0105934  25.7054901   5.3861513  30.9386330
  26.1160030   4.2646322  30.7398357  26.1720619   6.4774084  30.3130836
  25.8447151   7.3901973  30.5955029  27.2941895   6.4092841  29.3091812
  27.1276836   5.7364430  28.4679527  27.3934669   7.7569933  28.6258278
  26.4415932   7.9514294  28.1316299  27.5517368   8.4219141  29.4749050
  28.6429749   7.9666667  27.6267929  29.5621128   7.5220542  28.0083771
  28.4432049   7.2752600  26.3496075  29.3219070   7.5403366  25.7616272
  28.6128292   6.2418976  26.6520824  27.4804630   7.4442782  25.8672562
  28.6647606   9.4351377  27.2823753  27.6301575   9.6318359  27.0013142
  28.9412651   9.8876562  28.2346745  29.3109894   9.6698999  26.4365788
  28.5917244   5.8950047  29.8846741  28.9177837   6.2832437  30.9662304
  29.1790695   4.8316250  29.2696438  28.9096355   4.5664306  28.3330650
  30.3117905   4.1594958  29.8923264  30.1078587   4.0627766  30.9587021
  30.4757004   2.7667310  29.3145561  30.5150223   2.7542174  28.2253380
  31.4333420   2.4013901  29.6854343  29.4232368   1.7195214  29.8533955
  29.5956745   1.4728175  30.9010124  28.4520416   2.2136183  29.8260536
  29.3899632   0.4374451  28.9926586  29.1225109   0.7259603  27.9761276
  30.3726444   0.0106355  29.1933289  28.2868843  -0.5731246  29.3996468
  28.4528046  -1.5149187  28.8765850  28.5603123  -0.8254622  30.4241772
  26.8507805  -0.2215696  29.2597504  26.5781364  -0.2277395  28.2872658
  26.2330761  -0.8653787  29.7330933  26.6095772   0.6796386  29.6467209
  31.6170063   4.9142065  29.8246040  31.9270782   5.5328207  28.7988033
  32.4602242   4.8795943  30.9048691  32.1531296   4.3778844  31.7258930
  33.7737923   5.6564527  30.8788509  34.3042564   5.6072164  31.8297901
  34.8353729   5.0227823  29.9211769  34.3952484   5.1521635  28.9324150
  35.8091240   5.5017457  30.0236607  35.1130905   3.5181439  30.0144119
  35.6063042   3.3073056  30.9633007  34.1384964   3.0305605  30.0373955
  36.0529251   2.9170938  28.9836559  35.6373520   3.2768142  28.0423794
  37.0886421   3.1516654  29.2293453  35.8292770   1.4448686  28.9984741
  35.9796028   0.9941396  29.9794655  34.8054352   1.2895811  28.6582623
  36.7240067   0.7585989  28.0804482  36.6153412   1.0571548  27.1217213
  37.6690979   0.9270830  28.3943291  36.5242081  -0.2296979  28.0217056
  33.6754646   7.1795306  30.7368889  34.6094780   7.8044605  30.2016411
  32.6038513   7.7598767  31.2298660  32.0080452   7.1268516  31.7440567
  32.4265785   9.1653576  31.1384697  32.9720154   9.5518532  30.2775307
  30.9289589   9.3879623  30.8875408  30.4884357   8.6599703  30.2063179
  30.3439426   9.2178917  31.7913895  30.2662315  10.9518814  30.3082886
  31.2539101  11.2635345  29.4643326  32.9571304  10.0042028  32.2667999
  32.8760338   9.6878633  33.4651985  33.5381699  11.1430283  31.8618164
  33.5159569  11.3975363  30.8846607  33.9986839  12.1535473  32.7932281
  33.8937111  11.8139763  33.8236542  35.5029335  12.4350815  32.6436195
  35.5894966  12.6820774  31.5855045  36.1168938  13.5125580  33.5049858
  35.4008904  14.3264446  33.6191025  36.3292236  13.0031958  34.4449654
  36.9799500  13.9856043  33.0365219  36.4455147  11.1854801  32.6422501
  36.4129219  10.6883411  33.6117287  36.1056938  10.5348139  31.8364773
  37.9064941  11.5137472  32.2815514  38.3311348  11.9930019  33.1636505
  38.5205956  10.6372356  32.0748863  38.0433998  12.1557417  31.4113808
  33.1443634  13.4340429  32.5852890  32.9980812  13.8139687  31.3817310
  32.7384911  14.1519022  33.5975761  32.7789841  13.8113127  34.5475540
  31.9011841  15.3358135  33.5669937  32.0321922  15.7006655  32.5482597
  30.4300060  14.9985952  33.7306213  30.2314644  14.5189457  34.6890678
  29.8064518  15.8924942  33.7153473  29.8306561  13.9773521  32.7176018
  30.0078125  14.3237076  31.6993923  30.2376251  12.9672251  32.7636375
  28.2967491  13.7623272  32.7833443  27.7948494  14.6990728  32.5410614
  27.9909058  13.0809536  31.9894352  27.9262466  13.2771978  34.0878716
  28.5222702  12.5919619  34.5298080  26.9708614  13.7648849  34.8797951
  25.9864445  14.4080420  34.4151726  25.2828674  14.7906494  35.0305557
  25.9727859  14.4804935  33.4078674  26.8887844  13.4153500  36.1225204
  26.0429611  13.6601105  36.6172714  27.4550018  12.6956558  36.5485954
  32.4935760  16.5005131  34.4042130  33.1110878  16.2494011  35.4453087
  32.1313286  17.7443829  34.1799011  31.5283833  17.8513756  33.3767128
  32.4113579  18.9565907  34.9620171  32.8534698  18.6174946  35.8988457
  33.5290031  19.8155670  34.3548889  34.3578987  19.1123638  34.2740517
  33.2217255  20.4054966  32.9558182  34.0943413  20.8789463  32.5058289
  32.8006134  19.5758934  32.3879051  32.4926949  21.2155399  32.9769287
  34.0200081  20.9759674  35.2801323  35.0384064  21.2536221  35.0083351
  33.3799706  21.8560810  35.2180634  33.9893570  20.5682735  36.2905502
  31.1393681  19.6986313  35.2197456  30.1125317  19.5743904  34.5191154
  31.1390285  20.4504356  36.3135338  31.9387131  20.4628448  36.9303436
  30.1887093  21.4584370  36.7167015  29.7168827  21.8379841  35.8103714
  29.1126213  20.6487827  37.4709129  28.6797199  19.9105244  36.7958755
  29.5775051  20.2545700  38.3745613  28.0155220  21.5065880  38.1501198
  27.6472435  20.8767414  38.9599075  28.4296703  22.4224586  38.5717392
  26.5006294  22.0652332  37.3817673  27.1745605  23.5389328  36.5080872
  28.0590668  23.2520046  35.9393845  26.3796425  23.9359646  35.8767662
  27.4484234  24.3514729  37.1810570  30.7558479  22.6086445  37.5680771
  31.1665764  22.3897400  38.7095451  30.8667755  23.8085995  37.0056496
  30.2516136  24.0103664  36.2304306  31.5540028  24.8784599  37.6857414
  31.9349575  24.5657978  38.6579666  32.8716660  25.2066383  37.0145035
  33.4501457  25.8620281  37.6655998  33.5080681  24.3231792  37.0655098
  32.8009911  25.7333870  35.5910339  32.6361046  24.8607960  34.9589767
  31.8261299  26.1764774  35.3875198  34.1470451  26.8350487  35.1108055
  34.3129692  26.0988426  33.4429779  34.2895126  25.0095806  33.4104958
  33.4147301  26.4391327  32.9277420  35.2439003  26.4757175  33.0193825
  30.5871925  26.1012459  37.8578682  29.8325024  26.3369350  36.8643837
  30.6721420  26.8894157  38.9248734  31.4244022  26.6963749  39.5705833
  29.8678513  28.0843925  39.1573486  29.0322628  28.1732807  38.4630928
  29.1199150  28.0841217  40.4637566  29.8022881  27.9543972  41.3037796
  28.2884426  29.2586727  40.8764114  28.8378601  30.1756916  41.0893059
  27.4853668  29.3988457  40.1528664  27.7137699  29.0191078  41.7710953
  28.2454758  27.0168686  40.4598503  28.7858105  26.2534332  40.2435112
  30.7475185  29.3103046  38.9983482  31.8377190  29.3240166  39.5434837
  30.2613087  30.2861233  38.2600975  29.3146286  30.2851982  37.9081116
  31.0514297  31.3197746  37.5694771  31.8097038  31.6940441  38.2572632
  31.7359753  30.6891212  36.3528175  32.4838219  29.9893723  36.7258835
  30.8400173  29.9347210  35.4139519  30.1450634  30.5793114  34.8757668
  31.4721661  29.4683628  34.6583061  30.3527737  29.1651211  36.0126266
  32.5181694  31.6780491  35.4817200  31.9302120  32.4409866  34.9714851
  33.2271729  32.2430763  36.0868340  33.0594749  31.0100460  34.8117485
  30.1962242  32.5023193  37.1633072  28.9570503  32.3599510  37.0209732
  30.7284164  33.7151375  37.1388779  31.6997585  33.9316978  37.3112106
  29.9443207  34.9571533  36.8203049  28.9038296  34.7338181  37.0561028
  30.3296432  36.1000366  37.7308960  29.8418655  37.0293922  37.4368401
  29.9766617  35.9354591  38.7489510  31.8239536  36.4265251  37.5183640
  32.5167427  35.6028175  37.6905556  31.9295425  36.7718887  36.4899292
  32.2996483  37.6052971  38.3878593  31.4313107  38.2264442  39.0666656
  33.5850296  37.8552399  38.3988953  33.8480301  38.7229118  38.8439560
  34.1320229  37.4653931  37.6446266  30.0556717  35.3306694  35.2750130
  31.1484280  35.3609505  34.7173424  28.8873844  35.4676666  34.6195259
  28.0152206  35.5577583  35.1208344  28.7594185  35.7609558  33.1871910
  29.5617962  36.4245987  32.8649063  28.9874649  34.3932457  32.3649673
  29.9803181  34.0212059  32.6178207  27.9528465  33.2999878  32.5002632
  28.0912819  32.4021301  31.8979454  27.7585125  33.0474892  33.5426559
  27.0250759  33.6894264  32.0811195  28.9605675  34.7329178  30.9809399
  29.6784840  35.3361855  30.7753487  27.4092026  36.4036179  32.9122734
  26.4200497  35.9600143  33.4499016  27.4699211  37.3335876  31.9568520
  28.3948441  37.4519920  31.5687809  26.3634853  38.0562782  31.4220562
  25.7315807  38.2660599  32.2850647  26.9403915  39.4766464  30.9709663
  26.1833763  40.2279510  30.7460938  27.4737644  39.8764191  31.8334007
  27.8825169  39.4692383  29.7808666  28.7511616  38.6108437  29.7050800
  27.7871590  40.2863731  28.8488350  25.5852680  37.3975372  30.3050919
  24.4239559  37.7035446  30.1378403  26.0818310  36.1918831  29.8691177
  26.9156590  35.7352409  30.2101593  25.2638931  35.3019638  28.8788757
  25.0920906  35.8448105  27.9494114  26.1781521  34.1771965  28.3611870
  26.5702686  33.6436424  29.2270184  25.4590759  33.1916885  27.4161377
  26.1116848  32.7006874  26.6942501  24.8871841  32.4638786  27.9917469
  24.6986084  33.7016029  26.8247185  27.3675537  34.7972946  27.5386162
  27.6844349  35.6691170  28.1109924  28.1668320  34.1257591  27.2250957
  26.9822159  35.2514038  26.6257095  24.0611382  34.7332382  29.6521206
  24.2511806  34.1565971  30.7246838  22.7964211  34.8336334  29.1177483
  22.4775867  35.6623383  27.9635563  22.8301296  35.2075157  27.0378399
  22.9316006  36.6341324  28.1574364  20.8844471  35.8614922  28.0385742
  20.3734646  35.9853325  27.0837650  20.6564770  36.7388382  28.6438789
  20.4358387  34.6613770  28.7979794  20.1414604  33.8389778  28.1459808
  19.5367031  34.8127441  29.3952618  21.6237659  34.3706131  29.8234272
  21.4809570  34.9039192  30.7632637  21.7055702  32.8879089  30.1159420
  22.3639774  32.1498489  29.4054565  21.0298538  32.4267845  31.1698589
  20.3545189  32.9808273  31.6768665  21.1093369  31.0561581  31.7062397
  22.0101471  30.8661251  32.2897873  20.0498295  30.9557819  32.7943535
  20.4367981  31.6294842  33.5588646  19.0433311  31.1936493  32.4501305
  19.8836002  29.5549088  33.4187737  19.7421112  28.7848186  32.6604614
  20.7759628  29.2141705  33.9438400  18.7398853  29.4276257  34.4542542
  17.6508312  28.7610340  34.2165146  18.8946915  30.0249252  35.5896759
  19.7888451  30.3030243  35.9681587  18.2275448  29.8394585  36.3249435
  20.9431896  29.9148674  30.6190624  21.5446281  28.8853493  30.6254044
  20.0157394  30.1381321  29.6751575  19.3742352  30.9165592  29.7263508
  19.6568317  29.2008648  28.5712013  19.5717640  28.2471943  29.0921421
  18.2130909  29.3692722  28.0226097  17.9278202  28.4562168  27.5000668
  17.6478329  29.5799351  28.9304676  18.0842133  30.6506462  27.1356525
  18.4210320  31.7840538  27.5867233  17.5350990  30.5245037  26.0281906
  20.7911472  29.1544991  27.4696064  20.7956448  28.2267380  26.6451283
  21.6210346  30.2088585  27.3848438  21.3914165  30.9917202  27.9802456
  22.3275814  30.4848385  26.0947380  21.9902382  29.7947578  25.3213768
  22.1373768  32.0011177  25.6757374  22.3750820  32.6689072  26.5037785
  22.7990303  32.2666779  24.8512440  20.7007027  32.1890640  25.1865902
  20.0561047  32.0983009  26.0608654  20.4789886  33.2390289  24.9954681
  20.3739700  31.4085197  23.9063282  20.8010292  31.6884308  22.8165226
  19.6848621  30.3037491  23.9424343  19.3320637  30.0521317  24.8547516
  19.4411621  29.7888126  23.1084366  23.7929134  30.1557369  26.2687454
  24.5254250  30.1914940  25.3144112  24.2795734  29.8155537  27.4875374
  23.6091156  29.9735603  28.2261982  25.6217556  29.3754234  27.8226700
  26.1784229  30.2677727  27.5364227  25.6966095  29.2658730  29.3803577
  25.0167999  28.4817467  29.7136822  27.0835686  28.7793560  29.8150101
  27.8838577  29.4811420  29.5802078  27.1090717  28.7253742  30.9033737
  27.3774681  27.7912235  29.4610100  25.3403683  30.5501823  30.2056160
  26.0766792  31.3157272  29.9608955  24.3831635  30.9220524  29.8401432
  25.2350750  30.1256371  31.6787968  24.6378841  29.2187881  31.7741318
  26.2123890  30.0531216  32.1559753  24.6594620  30.9166794  32.1594505
  26.0127048  28.1188927  27.0744152  25.1723537  27.2180786  26.9473114
  27.3124886  28.0593967  26.7462101  27.9610119  28.7331181  27.1278095
  27.7525368  26.9912224  25.7729759  26.8689251  26.5818005  25.2833786
  28.6251621  27.6130867  24.7557869  29.5129147  28.0953121  25.1649971
  29.0014019  26.8056831  24.1275806  27.9033718  28.6209030  23.8663082
  27.0157585  28.2316265  23.3676033  27.6197701  29.4359360  24.5321808
  28.7897549  29.0617619  22.7341061  28.1667500  29.5216141  21.9669685
  29.5778351  29.7220802  23.0960598  29.3107071  27.9135933  21.9947243
  30.2968311  27.7601871  22.1500530  28.6239223  27.1790218  21.0987873
  27.4377136  27.4565945  20.6938076  27.0270329  26.7044487  20.1592808
  26.9668045  28.3331032  20.8672333  29.1846657  26.1434860  20.5063229
  30.1209850  25.8395462  20.7322159  28.5602779  25.5835667  19.9435329
  28.3158455  25.7364693  26.4480057  29.5451756  25.4834595  26.4020748
  27.5186501  24.9761734  27.1873856  26.5498466  25.1167660  26.9388771
  27.8893051  23.7152119  27.9010696  28.6814117  23.9827995  28.6003990
  26.7748108  22.9923553  28.6451817  26.0900993  22.5390396  27.9284019
  27.2344112  22.1732655  29.1983166  26.0527458  24.0014362  29.4904423
  26.6189442  25.0412884  30.3546181  25.5793533  25.6812763  30.9597893
  25.6372147  26.5301304  31.6249962  24.4755859  24.9977379  30.6568260
  23.6008663  25.1959648  31.1212292  24.7534561  23.9650383  29.7166843
  24.0204773  23.3175964  29.2584686  28.5692062  22.7404747  26.7611656
  27.9788685  22.6514664  25.6463451  29.7395706  22.1371250  27.0666580
  30.2197399  22.3041477  27.9393787  30.4780998  21.4128971  26.0167828
  30.1244888  21.6976299  25.0258293  31.9427700  21.8434563  25.9154663
  32.3444405  21.7611942  26.9254131  32.7881851  21.0540714  24.8540878
  32.4477959  21.0385647  23.8187160  33.7966957  21.4664555  24.8233376
  33.0261497  20.0847740  25.2922001  31.9176807  23.3666763  25.3326092
  31.2347469  23.9193382  25.9778004  32.8582764  23.9166470  25.3024101
  31.5459309  23.2413788  24.3156509  30.2291431  19.8922844  26.0854588
  30.6565971  19.3563633  27.1321259  29.8855896  19.2672577  25.0297966
  29.7339439  19.8733864  24.2362518  29.8774433  17.7819004  24.9200268
  30.1733246  17.3469105  25.8746681  28.4593143  17.2920837  24.5707550
  28.2189693  17.7654743  23.6187916  28.6116142  16.2175770  24.4690056
  27.3903580  17.5160122  25.6599979  27.2237091  16.5500889  26.7421284
  27.7625656  15.6160641  26.6818638  26.1471863  16.6817646  27.6068897
  25.8731308  15.9495039  28.3519344  25.3657055  17.8592720  27.5861797
  24.3071575  17.9233227  28.4824581  24.3118687  17.2604580  29.1768551
  25.6287003  18.8441849  26.6080570  25.0090141  19.7203102  26.4864235
  26.6982346  18.6944294  25.7547626  26.9693947  19.4163113  24.9986172
  30.9521484  17.2616768  23.9643631  30.9640579  17.8486080  22.8437538
  31.8931503  16.3179111  24.3864956  31.6569862  15.9323397  25.2896347
  32.9420738  15.7924471  23.5175648  32.7692604  16.1646881  22.5077763
  34.3165016  16.3160191  24.0652866  34.4755478  15.9672289  25.0856552
  35.0503578  15.7969799  23.4487209  34.6845016  17.7686958  24.0298347
  34.0061111  18.2475414  24.7359447  36.0968552  17.9149303  24.5564079
  36.8064346  17.3966980  23.9113998  36.4346237  18.9512768  24.5566483
  36.2175865  17.5462437  25.5750332  34.5381317  18.3065033  22.5751209
  34.9201965  17.5393028  21.9016743  33.4826584  18.3764839  22.3120937
  35.0922852  19.2439442  22.5279942  32.9901047  14.2258844  23.5559883
  32.3874512  13.5974798  24.4107990  33.6756325  13.6751833  22.5746078
  34.2053108  14.2200003  21.9092407  33.9916267  12.2432585  22.3966618
  34.5180626  12.0655441  21.4589100  34.9978256  11.8018169  23.5317879
  34.6396217  12.2149725  24.4747047  35.2530136  10.7445030  23.6030083
  36.3088188  12.5369244  23.4374485  36.1360703  13.6129293  23.4591560
  36.8477821  12.3867149  24.3728924  37.1439095  12.1529818  22.2362537
  38.1531181  11.4389172  22.4250717  36.7977562  12.5940247  21.0889835
  32.6567421  11.5476704  22.3232613  31.8065090  12.0483227  21.5534840
  32.5385971  10.3905783  22.9466667  33.3483505  10.1039467  23.4779263
  31.2665348   9.6704025  22.8448544  31.1295719   9.6906815  21.7636833
  31.4989109   8.2550278  23.3029938  31.9121590   8.1840792  24.3091202
  30.4975128   7.8278871  23.2495975  32.3628235   7.4137034  22.3109741
  31.9054909   7.3549547  21.3233032  33.3032455   7.9480424  22.1761093
  32.6774483   6.1100740  22.9823360  33.5338669   6.2800646  23.6348324
  31.8423042   5.6795039  23.5348263  33.2565269   5.0736494  21.9554405
  32.4758606   4.8000388  21.2456532  34.0721703   5.5825596  21.4417915
  33.7026329   3.9692445  22.8704224  34.3735466   4.2152500  23.5841866
  32.9483109   3.6993256  23.4854412  33.9876976   3.2126093  22.2651634
  30.1333809  10.4294491  23.5598240  29.0012379  10.2166843  23.1077614
  30.3667297  11.3365555  24.5147915  31.3372841  11.5478916  24.6977158
  29.2991676  12.0493879  25.2820110  28.5992012  11.3056974  25.6628914
  29.9357643  12.7595520  26.4983463  30.4440994  13.6832600  26.2218285
  29.1167889  13.0610466  27.1514015  30.6897202  12.1349907  26.9774857
  28.4396439  13.0413752  24.5175457  27.4380283  13.4719057  25.0062885
  28.7861137  13.3945656  23.2781582  29.6811352  13.0679874  22.9429188
  27.9103336  13.9419842  22.3009434  27.9103832  15.0209293  22.4557972
  28.4585209  13.8767147  20.8919086  27.7276974  14.3509884  20.2368793
  29.7224693  14.6591311  20.7180367  30.4607506  14.2482500  21.4066715
  29.9990196  14.5374861  19.6707439  29.6383514  15.7305899  20.8996983
  28.6473732  12.4033909  20.3709049  29.3664970  11.9208937  21.0328369
  27.7374554  11.8326864  20.1853065  29.1304626  12.4227343  19.3939972
  26.4311790  13.4131565  22.3206234  25.4947815  14.2203293  22.1834412
  26.2484207  12.1134720  22.7057190  27.0386295  11.4921312  22.6077099
  24.9157372  11.4752254  22.8782864  24.2521133  11.7286882  22.0515709
  24.9953804   9.9533720  22.7578621  24.0277405   9.4519501  22.7391758
  25.8289242   9.3666821  21.5951653  26.8958015   9.5876846  21.6272221
  25.6570225   8.2911167  21.5538006  25.5276642   9.7705545  20.6286087
  25.7755146   9.4795818  24.0618248  25.7868729   8.3923769  23.9845963
  26.7930126   9.8561144  23.9568310  25.1656914   9.7281532  24.9304028
  24.1549759  11.8472719  24.2059860  23.0011215  11.3752241  24.3849831
  24.7854691  12.6698799  25.0542126  25.7848511  12.8046932  24.9979992
  24.1634731  13.2120323  26.2064152  23.3109398  12.5556993  26.3811302
  25.0805721  13.3151865  27.3830795  25.8239517  14.0484333  27.0702934
  24.4825211  13.6872263  28.2149601  25.8119011  12.0225439  27.9150352
  26.4109612  11.5682049  27.1258564  26.8223820  12.3879890  28.9816895
  27.3928146  13.2845192  28.7389145  26.4393425  12.3865995  30.0021706
  27.5273399  11.5579996  29.0290375  24.7814350  10.9983644  28.5014915
  25.3224678  10.0984917  28.7940998  24.2333622  11.4467859  29.3301239
  24.0516663  10.6363564  27.7772694  23.6589584  14.5973377  25.8767776
  22.9013119  15.1361294  26.7078953  24.0621510  15.2088919  24.7539501
  24.5507603  14.6899576  24.0383606  23.6848736  16.6087666  24.4500294
  23.9485607  17.1916008  25.3325672  24.4667702  17.0914574  23.2288208
  25.5528450  16.9993305  23.2213917  24.0939102  16.5673275  22.3488407
  24.3180580  18.6582241  22.9619255  23.2676029  18.9452744  23.0093346
  24.7304897  19.1857452  23.8219967  24.9171886  19.2810574  21.6718407
  24.9282684  20.3695335  21.7284107  25.9516125  18.9375000  21.6657524
  24.2212696  18.7484245  20.5092773  23.2397346  18.9798603  20.4533386
  24.6514587  18.4514008  19.3671341  25.9454880  18.3775101  19.1254559
  26.5835133  18.3843231  19.9083862  26.2976437  18.1552410  18.2053032
  23.8537140  18.2784977  18.3480358  22.8655834  18.4844856  18.3836613
  24.2458229  18.1015129  17.4342384  22.1708298  16.7263775  24.3288975
  21.5869179  16.1214428  23.4056549  21.4903622  17.5904484  25.1323719
  22.0183239  18.3360996  26.2933464  22.8678989  18.9408779  25.9762230
  22.2611370  17.6678658  27.1195469  20.7992401  19.1053047  26.7572479
  20.6210804  19.8937492  26.0260086  20.9206371  19.5383606  27.7501392
  19.6916924  18.1298485  26.6077785  18.7637825  18.6985683  26.6681099
  19.8534050  17.3596668  27.3619461  20.0346756  17.6535969  25.1843414
  19.5946159  16.6582394  25.1233559  19.2957153  18.5128002  24.0872707
  18.0564232  18.3480167  23.9257603  19.9195251  19.5046520  23.4710236
  20.9238453  19.5589561  23.5631752  19.2862740  20.3806248  22.5501442
  19.8781910  21.2926102  22.4725151  19.3386478  19.7071095  21.0995712
  18.8552418  18.7310772  21.1417408  18.7531624  20.2919159  20.3901196
  20.7352619  19.4652615  20.6155510  21.7180309  19.9603424  21.1946831
  20.9372196  18.7365837  19.6263390  17.8637810  20.9845638  22.9314785
  16.9555225  21.0358009  22.0900307  17.7824211  21.4857197  24.1763954
  18.6070843  21.4516144  24.7585201  16.5175323  21.9879169  24.7206345
  15.7310457  21.2628269  24.5113716  16.4842129  22.3265553  26.2351799
  17.2356281  23.1124535  26.3115902  15.5523634  22.7884159  26.5614376
  16.7731056  21.0999088  27.0666847  17.7101746  20.6469936  26.7428455
  16.9472332  21.7121716  28.5399075  17.2812347  22.7464638  28.4575539
  15.9258976  21.7987595  28.9106922  17.5635166  21.1018333  29.2000465
  15.7121763  20.0133839  26.9606609  16.0157185  19.1906490  27.6080208
  15.6194525  19.6894608  25.9240437  14.7517328  20.3561974  27.3455448
  16.1049385  23.2145481  23.9758701  16.9266376  24.0862503  23.6986675
  14.7764568  23.3042297  23.7892895  14.1062679  22.6598129  24.1838455
  14.1170588  24.3759556  23.0231647  14.6649799  25.3181362  23.0098019
  13.9525862  23.8317566  21.6013775  13.7123899  24.6451912  20.9167385
  14.9009857  23.5781078  21.1277714  13.0173979  22.7028103  21.5942383
  13.0991621  22.1836548  20.7908745  12.6682720  24.5711918  23.5757523
  12.1839342  23.7465096  24.3623009  11.9146109  25.5554447  23.0539360
  12.4555302  26.1323280  22.4256744  10.4963379  25.9154091  23.3786983
  10.4344349  25.9373455  24.4667187  10.1695747  27.3397923  22.8475990
   9.1198006  27.6330185  22.8572693  10.6238165  28.0972481  23.4863701
  10.8013105  27.7006016  21.5027370  11.8900528  27.7063484  21.5547657
  10.3520346  26.7535400  20.3454361  10.7617006  25.7511425  20.4698410
  10.7544212  27.1608677  19.4179287   9.2631979  26.7134953  20.3149300
  10.4480534  29.1458302  21.1054802   9.3666172  29.2713070  21.1588802
  10.9589291  29.8438416  21.7687206  10.7267141  29.3341389  20.0686588
   9.4623938  24.8356705  22.9344749   8.2667694  24.9094448  23.2822342
   9.9077482  23.8998089  22.1114044  10.7972870  23.9889698  21.6414356
   9.0305376  22.7742596  21.6688061   8.0020905  23.0370483  21.9164867
   8.9711609  22.5011730  20.1611290   8.5421515  21.5098248  20.0152397
   8.3876743  23.6434975  19.3735561   8.9288721  24.5891781  19.4032059
   8.3707209  23.2230835  18.3680382   7.4029055  23.8999805  19.7641430
  10.2965746  22.3112469  19.6742668  10.2782049  22.3460388  18.7150745
   9.2913647  21.4696980  22.4342098   8.3064175  20.7834225  22.7591915
  10.4638329  21.2458897  23.0268726  11.2088995  21.8608494  22.7322483
  10.7843370  20.3925896  24.1742592  10.3618774  19.4030590  23.9997349
  12.3054304  20.0669937  24.1054592  12.8801346  20.9808807  23.9550419
  12.6287279  19.6404514  25.0550060  12.6868067  19.0759182  22.9801846
  12.3628626  18.0802498  23.2831821  12.2489443  19.2844238  22.0040169
  14.1972666  19.1305389  22.8634319  14.5173244  20.0345211  22.3452778
  14.7378893  18.9978905  23.8005714  14.7255697  17.9731712  22.0154343
  14.4020243  17.0614548  22.5176220  14.3086462  18.0858822  21.0146484
  16.1813774  18.0413494  21.7907314  16.4375019  18.9193134  21.3621521
  16.7364845  18.0656528  22.6341610  16.5448112  17.2404785  21.2941246
  10.3789444  20.9948940  25.5376186  10.1508894  20.1695881  26.4728680
  10.2115479  22.2853165  25.6698055  10.3829069  22.9039021  24.8900070
   9.7350988  22.8963852  26.9863319  10.4278669  22.3786411  27.6497421
   9.9486876  24.4243450  26.9107857  10.9153242  24.6676807  26.4697609
   9.0864258  24.9134235  26.4575653  10.1112766  25.0748959  28.3052826
  10.3314667  24.4449100  29.3051434   9.9963932  26.3547764  28.3082619
   9.7376385  26.7383995  27.4104977  10.4087801  26.9014091  29.0507107
   8.2957058  22.4997997  27.3603973   7.4033060  22.4257774  26.4929829
   8.1435452  22.2008305  28.7287712   8.9895964  21.9468632  29.2184639
   6.8388829  21.8810005  29.2498245   6.3568931  21.2114506  28.5374413
   6.9298148  21.2980042  30.6627865   7.3379636  22.0672665  31.3183498
   5.5733056  20.7745857  31.3278008   5.0750246  20.0256310  30.7122707
   5.7459846  20.3895206  32.3327904   4.8542347  21.5754700  31.4999084
   7.7921772  20.1463852  30.6686783   8.6480350  20.5481873  30.8349991
   5.9901261  23.1222744  29.2931805   6.5008864  24.2406540  29.5260925
   4.6657696  23.0284977  29.0809021   4.2435064  22.1179829  28.9679413
   3.7852433  24.1560593  29.2634277   4.0940471  24.9640846  28.6002254
   2.3736978  23.7350922  28.8131657   2.5162036  23.1821098  27.8847256
   2.0438540  22.9141045  29.4497833   1.2943211  24.8627892  28.5929527
   0.4343777  24.4017963  28.1070690   0.9866081  25.1949902  29.5844440
   1.8351691  26.1011429  27.8209629   2.3333642  25.9299183  26.6539631
   1.7006555  27.1981602  28.3797531   3.7029259  24.6088963  30.6615391
   3.8125610  23.8269672  31.5667477   3.4452956  25.9507160  30.8018627
   3.1001241  26.4660835  30.0047684   3.5592818  26.6309948  32.1038895
   4.4104409  26.2710857  32.6819000   3.6471088  28.1708698  31.8234024
   4.6547241  28.3907566  31.4706135   2.9082844  28.4758739  31.0823078
   3.4138250  29.0212193  33.0902634   2.4446714  28.7709656  33.5217972
   4.4271436  28.7551918  34.1575546   4.5340624  27.6872768  34.3478851
   5.4228511  29.0519905  33.8280334   3.9993188  29.1543522  35.0771980
   3.4124331  30.5190125  32.7247200   4.3816309  30.9919167  32.5662041
   2.7499118  30.6874504  31.8757229   3.0825047  31.0415115  33.6226273
   2.2935455  26.2805786  32.9991646   1.1254046  26.3540497  32.5563202
   2.4631376  25.9570408  34.1909752  28.9448013  42.1944580  44.7043190
  28.9448872  43.1843872  44.9046669  29.1077518  42.0723724  43.7150536
  28.0884209  41.7230644  44.9582939  29.9992733  41.4597054  45.4499245
  31.0238762  41.8009605  45.3021545  29.7672577  41.6198692  46.9685020
  30.0449047  42.6504478  47.1896706  28.7797089  41.3021088  47.3029823
  30.8199329  40.9155045  47.7119865  30.6649418  39.8380051  47.6565247
  31.8190804  40.9806519  47.2812042  30.9584408  41.3995514  49.4888802
  31.6537380  43.0477753  49.2969093  30.9208679  43.8067284  49.0230675
  32.0662689  43.4058189  50.2401581  32.5173798  43.0801849  48.6327057
  30.0018120  40.0103874  45.0899315  28.9320240  39.3341484  45.1746712
  31.2034435  39.5317764  44.7550049  31.9846153  40.1695824  44.6995201
  31.5082607  38.1217461  44.4025230  30.7842216  37.7851181  43.6605263
  32.7990761  38.2219620  43.5957794  32.6744003  38.9150085  42.7637672
  33.6123314  38.5421906  44.2470665  33.2335472  36.8746948  43.0751038
  34.1773033  37.1073265  42.5818481  33.6110535  36.2481728  43.8832283
  32.1286583  35.9946213  41.9414902  33.1565208  34.6534500  41.3897057
  33.9608574  34.9594078  40.7207298  33.4898567  33.9091110  42.1128578
  32.6433754  33.9880371  40.6954384  31.5158424  37.1030655  45.5469017
  31.3120537  37.4555016  46.7018929  31.5120277  35.8056488  45.2008705
  31.5252304  35.6021004  44.2116814  31.3237534  34.7098923  46.1344910
  31.5273762  35.0411835  47.1527672  29.8887348  34.2015457  46.1832962
  29.7785282  33.6387520  47.1102409  28.8323498  35.3287773  46.1889572
  27.8312283  35.0235519  46.4934196  29.1855965  36.1249733  46.8442307
  28.7405376  35.5805168  45.1324005  29.4477253  33.2942009  45.0303764
  29.4719639  33.8578224  44.0977211  30.1397781  32.4599953  44.9151802
  28.0170460  32.6508141  45.0652504  27.2026024  33.3606300  45.2099838
  27.7677517  32.1073380  44.1538849  28.1327515  31.9665051  45.9057465
  32.4223175  33.6083603  45.9747314  32.7731209  33.4479408  44.7886200
  32.8180847  32.9411392  47.0686111  32.3551865  33.2396240  47.9152145
  34.0696411  32.1123161  47.0259781  34.3291931  31.8837662  45.9922905
  35.2186661  32.9237213  47.6604271  34.9415741  33.2830772  48.6514816
  36.1301193  32.3510094  47.8317528  35.7143478  34.1256256  46.8893318
  34.8665810  34.8055916  46.8054237  36.5581360  34.5185699  47.4565277
  36.2021751  33.8329430  45.4360313  37.0819855  33.1896057  45.4484520
  35.4121590  33.2961540  44.9108276  36.5205383  35.0542183  44.6786423
  36.3427773  35.9822655  45.0353394  36.5718575  34.9713135  43.3442917
  36.8146172  33.7925873  42.6994095  36.5564613  32.9184227  43.1344910
  37.0340118  33.8459702  41.7149734  36.5741119  36.0623398  42.6466446
  36.7902336  35.9525986  41.6661606  36.3833237  36.9656715  43.0561409
  33.9392929  30.7571850  47.7527008  33.1712914  30.7167816  48.7376595
  34.6533699  29.7338448  47.1527138  34.9163780  29.8678722  46.1868134
  34.7590370  28.4495316  47.7394028  33.8997192  28.2935104  48.3915787
  34.7554855  27.6823082  46.9651604  35.9869080  28.4018345  48.5895424
  37.0678902  28.5814495  48.0719872  35.8873634  28.1038780  49.8555756
  34.9839172  28.2213459  50.2915688  37.0175018  27.8343410  50.7708473
  37.9650726  28.2139473  50.3886032  36.6397934  28.6571865  52.0847397
  35.8060989  28.1520576  52.5724831  37.8299980  28.6797237  53.0848312
  38.7824554  28.9839249  52.6508026  37.6364746  29.3529892  53.9199142
  38.1045532  27.6936855  53.4595985  36.2483177  30.1486130  51.6624832
  36.4876747  30.3343925  50.6154442  35.1620712  30.0640507  51.6305618
  36.5849304  31.3540459  52.6112137  37.6675262  31.4775410  52.6402969
  36.1184235  32.2186661  52.1390839  36.1712837  31.2425499  53.6134949
  37.0211449  26.3328762  51.1470184  35.9814796  25.7185783  51.5672836
  38.1740608  25.7139778  50.8492050  39.0336876  26.2308121  50.7307777
  38.3184052  24.2858372  50.9597893  37.3247299  23.8571949  50.8295059
  39.1681557  23.7204819  49.8174858  39.9253159  24.4588509  49.5536270
  39.7305679  22.8344021  50.1118660  38.5675201  23.3469772  48.5025406
  38.1338120  24.2597313  48.0940323  39.3948021  22.9445496  47.9179459
  37.4367867  22.2507305  48.5701523  36.5424690  22.7322235  48.9656982
  37.2762756  21.9675484  47.5298920  37.9023857  21.1673927  49.4260139
  37.4973946  21.1539307  50.3511620  38.8054123  20.2402096  49.1641960
  39.4099960  20.0794964  48.0502777  40.0375710  19.2922726  47.9694633
  39.1658936  20.7388153  47.3251495  39.0803680  19.4040051  50.1289024
  39.7745743  18.6842918  49.9868050  38.7017021  19.4617023  51.0634499
  38.9467125  23.8693047  52.2815971  39.7136421  24.6843166  52.8038940
  38.7563095  22.6106129  52.5613823  37.9929314  22.0864162  52.1581764
  39.5181198  21.9621658  53.5557594  40.5699539  22.0969658  53.3036194
  39.2238770  22.4025402  54.5084381  39.2835541  20.4823685  53.6875038
  38.4053993  19.9338989  52.9738464  40.0705299  19.7902012  54.4854660
  40.6455421  20.3212242  55.1238022  40.1920776  18.3764954  54.6296310
  39.2387047  17.8481216  54.6306686  41.0976562  17.8275509  53.4350739
  41.2523308  16.7522545  53.5241013  40.6724396  18.1650085  52.4898682
  42.1193275  18.1834335  53.5678673  40.9434128  17.9658165  55.9895935
  41.9204788  18.6096458  56.4088058  40.4701500  16.7692337  56.4442177
  39.7199364  16.2842045  55.9730225  41.0442581  16.0854187  57.5705070
  42.1002083  16.3386784  57.6650314  40.5788765  16.5677528  58.9762802
  40.5768127  17.6571426  58.9398308  39.1535606  16.0625000  59.2939949
  39.0393066  14.9951906  59.4834671  38.8159027  16.4876537  60.2391586
  38.3807716  16.3229332  58.5707512  41.4725609  16.2100067  59.9956856
  41.1194534  16.6869621  60.7502899  40.8457108  14.5830593  57.4211578
  40.3091850  14.0561352  56.4637489  41.3594246  13.8213263  58.3643799
  41.9719429  14.2125015  59.0657387  41.2847862  12.3465662  58.5684166
  40.5433464  11.9300308  57.8866005  42.6474533  11.7722025  58.0260582
  42.5507698  10.7078896  58.2405167  42.8245888  11.8746777  56.5365639
  43.2476006  10.9708033  56.0981903  41.9481125  11.9528360  55.8933029
  43.4421730  12.7520370  56.3443909  43.6954613  12.3115463  58.7610435
  43.6368942  11.8679399  59.6103897  41.0258331  11.9456854  60.0063744
  41.1679382  12.7807350  60.9449883  40.8516922  10.6032991  60.2294426
  40.8734550   9.9067116  59.4984207  40.3689842   9.9861650  61.4476051
  40.6966057  10.6315575  62.2626076  38.8367958   9.7740717  61.4055748
  38.6209183   9.0750179  62.2135544  38.0591545  11.1101942  61.6741562
  38.6310730  11.6960611  62.3937187  37.9479866  11.6799078  60.7515678
  37.1539536  10.9067430  62.2462769  38.2857094   9.0389614  60.2189598
  37.2007065   8.9998693  60.3156624  38.5307999   9.6129684  59.3253441
  38.6371307   8.0074148  60.1962509  41.1018944   8.6506357  61.5571556
  41.3905945   8.0157442  60.5400925  41.3076973   8.1353874  62.8131294
  41.0197983   8.6771240  63.6154633  41.7730560   6.7544217  62.9060631
  42.2789497   6.4223523  61.9994736  42.7772598   6.7050452  64.0837479
  42.2380867   6.9090362  65.0088272  43.1191025   5.6815963  64.2380066
  43.8671646   7.6629901  63.7852287  43.4756317   8.6775646  63.7114487
  44.4713974   7.7030745  64.6915359  44.8262749   7.2750387  62.6352043
  45.1354446   6.0770655  62.4812241  45.0905876   8.1229630  61.7941132
  40.7391510   5.6807351  62.9962502  41.1685524   4.5439310  62.9532471
  39.4596481   6.0185227  63.1075134  39.2588348   7.0079589  63.0794144
  38.3367348   5.0735497  63.4693336  38.5706444   4.0674248  63.1213417
  38.1693497   5.0323243  64.9739914  38.1140556   6.0291543  65.4114532
  37.3153458   4.4341493  65.2917557  39.3934631   4.3165312  65.6618271
  39.6060677   3.3098533  65.3019638  40.2389374   4.9454565  65.3830338
  39.2837906   4.4171815  67.2139053  38.3290176   3.9813819  67.5081711
  40.0132484   3.7412653  67.6601486  39.4402428   5.8017564  67.7428513
  38.5874596   6.3129172  67.9205399  40.6561813   6.2867875  68.0920029
  41.8085327   5.6117363  67.9623108  41.6843948   4.6525145  67.6714630
  42.6760063   6.0049348  68.2984390  40.7543182   7.4316287  68.6301727
  39.9376450   8.0141478  68.7477264  41.6495590   7.8021708  68.9153900
  36.9706383   5.5374885  62.9816093  36.6064568   6.7152934  63.2382927
  36.0558205   4.6832829  62.4717636  36.3940277   3.7511473  62.2798042
  34.6470261   5.0431123  62.1768494  34.6441574   6.0210857  61.6955414
  34.0594177   3.9649720  61.2168922  34.6708260   3.7123623  60.3505936
  33.8784485   3.0931301  61.8455734  32.6531982   4.4446936  60.7814445
  32.3288536   5.6372914  60.8855362  31.8629189   3.5366933  60.4145966
  33.7868729   5.0855098  63.4972763  33.2752457   4.0762115  63.9803162
  33.6713104   6.2845588  64.0771561  34.2943611   7.0215559  63.7792587
  32.9420357   6.6326332  65.2883148  31.9670582   6.1458855  65.2639999
  33.6373978   5.9492803  66.4707947  33.5656662   4.8729877  66.3141098
  35.0490456   6.1473479  66.9064560  35.2919197   7.2085505  66.9607697
  35.2489014   5.5583272  67.8015594  35.6977501   5.6775479  66.1671524
  32.8540268   6.0663166  67.6444397  32.0743942   5.5737519  67.3776932
  32.8252983   8.1741419  65.4812698  33.7732315   8.9414425  65.2015686
  31.6092644   8.6308384  65.8967896  30.9705677   7.9270835  66.2386932
  31.2363205  10.0384979  66.0989838  31.2416630  10.6387396  65.1891556
  29.7679939   9.9761353  66.6533890  29.1561680   9.4063034  65.9540558
  29.7606316   9.3023920  67.5101929  29.1689453  11.3317928  66.9687347
  29.7150650  11.6296101  67.8638077  29.2233772  12.0182838  66.1238251
  27.6287651  11.0620842  67.2770462  27.0398788  11.6937122  68.2027359
  27.0866756  10.1082516  66.6831055  32.2061882  10.8181381  66.9807892
  32.4316483  11.9683628  66.7898560  32.8152618  10.1043081  67.9131851
  32.5308266   9.1421938  67.7968445  33.7842674  10.6200819  68.8055115
  33.4839134  11.5724726  69.2423630  33.9158974   9.5606260  69.9118881
  34.1614571   8.6462860  69.3717194  34.7838745   9.8531418  70.5027771
  32.7721519   9.3538914  70.8624039  31.9125156   9.1389198  70.2276459
  33.0515633   8.5407772  71.5323868  32.5206680  10.6593952  71.6075897
  31.4731674  11.2959394  71.3614883  33.2275124  11.0624762  72.5474319
  35.1135483  11.0135794  68.1678772  35.9313774  11.6820107  68.8077011
  35.4196510  10.6613121  66.8734360  34.7635307  10.0472984  66.4123611
  36.3987541  11.2149487  66.0154037  37.0763054  11.8635130  66.5707321
  37.2627716  10.1507301  65.3049316  36.6164131   9.5966139  64.6242905
  38.0444412  10.6458025  64.7287369  37.9286270   9.0463934  66.1532593
  37.1243324   8.3782654  66.4611816  38.6416283   8.4590368  65.5746918
  38.6137123   9.5279226  67.3649979  38.3811035   9.0296812  68.5028610
  39.4392014  10.4195061  67.2225571  35.6036415  12.0718489  65.0447235
  35.7413521  13.2749319  65.0286636  34.7237206  11.4412107  64.1645660
  34.5390091  10.4506903  64.2342072  34.2904091  12.0501299  62.8866463
  35.1059875  12.1388111  62.1689682  33.3372345  11.1370955  62.0341530
  32.4664230  10.9726791  62.6687889  32.8955879  11.6532412  60.6786766
  31.9693336  12.1987009  60.8592949  33.6680069  12.3184547  60.2927246
  32.5576477  10.8548164  60.0180588  34.0161362   9.7200918  61.6616592
  34.6448746   9.7620697  60.7722626  34.6125603   9.2933388  62.4680481
  32.9810181   8.5857172  61.4279175  32.6148911   8.2981806  62.4135017
  32.2054901   8.9176979  60.7376671  33.4298515   7.6864038  61.0061531
  33.7820663  13.4482880  63.0559769  34.1434784  14.3649826  62.3864822
  32.8932190  13.6292562  64.0596237  32.7777977  12.8498821  64.6915665
  32.1643944  14.8569603  64.4305573  31.7425461  15.2526655  63.5066719
  31.1093616  14.6045456  65.5596085  30.5369377  13.7115545  65.3086090
  31.6465912  14.3282652  66.4668808  30.2042217  15.7422915  65.8551407
  30.3261318  16.4501438  65.0352707  28.7429485  15.2742119  65.9334564
  28.0901203  16.1461163  65.9747391  28.5471230  14.7386932  65.0044937
  28.5441647  14.6139584  66.7776489  30.4049683  16.3283291  67.2457962
  31.1929836  17.0803146  67.2863922  29.4935455  16.8933067  67.4412842
  30.6411629  15.5905790  68.0126266  33.1914558  15.9471645  64.9868774
  33.1884918  17.1391792  64.6062164  34.0852890  15.6117573  65.9022751
  34.2387886  14.6172733  65.9891052  35.0254898  16.3931484  66.5774841
  34.5104179  17.3284168  66.7967453  35.5016632  15.4869232  67.7991409
  36.1188202  14.6457329  67.4835205  36.2422600  15.9375143  68.4598846
  34.3070946  15.1024170  68.7599640  33.4546928  14.7557697  68.1757126
  34.6578026  14.2158098  69.2882004  33.8288536  16.2654152  69.6202240
  34.4034462  17.3316021  69.6395493  32.7533188  16.0990410  70.3178482
  32.2839203  15.2049637  70.2981262  32.5682259  16.6558514  71.1399231
  36.3394470  16.7883377  65.7949371  36.6460152  17.9979515  65.7033005
  36.9862251  15.8876848  65.1188354  36.7242851  14.9135523  65.1693649
  37.9573174  16.2740612  64.1438446  38.7306252  16.8199902  64.6842651
  38.6803894  15.0412579  63.5255318  37.9218864  14.4734516  62.9866714
  39.4832573  15.3860216  62.8738899  39.1983490  14.2056026  64.6993408
  38.5667992  14.0864096  65.5797043  39.4644737  13.2130318  64.3359070
  40.5325966  14.6415939  65.2063217  41.2350578  14.6270742  64.3729935
  40.5171471  15.7072172  65.4350357  41.1079254  13.8546581  66.3516464
  40.5490189  14.1044950  67.2534866  41.1745644  12.8183346  66.0204468
  42.5514870  14.2428579  66.4910583  42.7268410  15.1723957  66.8450546
  42.9374886  13.6117430  67.1786652  43.0266762  14.1582994  65.6038437
  37.5334892  17.2128429  62.9891052  38.1897659  18.2032413  62.8745117
  36.3748741  16.9327011  62.4016151  35.8685112  16.1931286  62.8671570
  35.7485771  17.7997456  61.3410568  36.4682732  18.0261631  60.5543709
  34.5731773  17.0616741  60.7131538  33.7630081  16.9342728  61.4311371
  33.9422760  17.7295761  59.5104561  32.9935036  17.2451706  59.2796021
  33.7790337  18.7986145  59.6468735  34.5955086  17.5869064  58.6496239
  35.0694046  15.8263206  60.3205223  34.8409843  15.1864462  60.9987450
  35.4476738  19.2260723  61.9712715  35.7329865  20.2253284  61.3111649
  34.9516716  19.3220482  63.2235641  34.6809425  18.4685440  63.6908302
  34.6310921  20.5219555  64.0431519  34.0065041  21.2025433  63.4645386
  33.8791161  19.9503555  65.3330994  33.0057526  19.3479958  65.0830994
  34.4766006  19.3002586  65.9722366  33.2110519  21.0366344  66.1931992
  32.9749985  21.8691235  65.5303726  32.2582397  20.8477955  66.6877594
  34.2523117  21.4370060  67.3357010  34.6123924  20.6203785  67.9614487
  35.0914917  21.8837433  66.8024979  33.6037140  22.5788937  68.1241913
  33.3731842  23.4318085  67.4858398  32.7136993  22.1636505  68.5970001
  34.5098495  22.8306904  69.3176575  34.6005211  22.0524731  69.9550400
  35.4420319  23.0802498  69.0195618  34.1189117  23.5146313  69.9497070
  35.8744087  21.3791733  64.4153748  35.8595924  22.5743999  64.3270187
  37.0200348  20.6777649  64.6149063  36.8434525  19.6910934  64.7389908
  38.3386536  21.3035049  64.7964325  38.1938629  22.1280556  65.4944687
  39.3349991  20.2458954  65.3401337  39.5078430  19.3740463  64.7091751
  40.3000793  20.7320995  65.4827271  39.1184540  19.7760010  66.6478806
  39.3411255  20.5480671  67.3843765  38.0665245  19.5503712  66.8229141
  39.9785461  18.5010509  66.9145889  41.0626984  18.2468243  66.4853668
  39.5108833  17.7402763  67.8775558  40.0863113  16.9485722  68.1269379
  38.6284027  17.8354740  68.3594894  38.8976974  21.9347973  63.5193825
  39.4119072  23.0706749  63.5254517  38.7064171  21.2404137  62.3953056
  38.3514633  20.3056107  62.5376091  38.9921188  21.6738415  61.0444412
  40.0183945  22.0401344  61.0179482  38.6661186  20.5172844  59.9502983
  39.1370735  19.5621529  60.1827431  37.6103592  20.2615032  60.0399857
  38.9593315  20.8156204  58.4909019  38.4813652  21.7380733  58.1611557
  40.4598885  21.0099545  58.2229233  40.7703056  21.9457226  58.6877708
  40.9732208  20.1427174  58.6382446  40.8247757  20.9673710  57.1966934
  38.5334320  19.6583500  57.6147804  39.0282669  18.7582760  57.9796066
  37.4484711  19.5948334  57.5315704  38.7757378  19.7860718  56.5597572
  38.1522522  22.9051304  60.6166077  38.6301880  23.8509140  60.0623741
  36.8307457  22.8080521  60.9053421  36.4608307  21.8776188  61.0378418
  35.8664932  23.8929806  60.6799049  35.8394890  24.2422066  59.6477165
  34.3869705  23.3783913  61.0786858  34.4739914  22.7174053  61.9410248
  33.7721672  24.2561913  61.2776375  33.8043594  22.4873238  59.9672623
  34.5602989  21.7726765  59.6417809  32.5280838  21.9080620  60.6143074
  32.8645935  21.1494274  61.3209419  31.9890575  22.7001343  61.1340904
  31.8481159  21.3150501  60.0026817  33.3768806  23.2873726  58.6764717
  34.3476639  23.5308857  58.2447548  32.8403854  22.6482506  57.9751892
  32.8362885  24.2074852  58.8984222  36.3003502  25.1766510  61.4843559
  36.3821068  26.2468548  60.9475899  36.6061745  25.0557117  62.7681160
  36.5458450  24.1706142  63.2508812  36.9527779  26.2846203  63.5959091
  36.1041641  26.9686756  63.6005554  37.1510544  25.8490257  65.0301132
  37.8107338  24.9815559  65.0505981  37.6755066  26.6093349  65.6088867
  35.8640404  25.5588150  65.7840500  35.3144646  26.4984074  65.8408966
  35.2384453  24.8961391  65.1860580  36.1039886  25.0946083  67.1981354
  35.2284737  25.4349709  67.9973145  37.1140633  24.3419323  67.4338226
  38.2564850  27.0719452  63.0688972  38.2252655  28.3062935  62.9042282
  39.3570404  26.4609280  62.7237549  39.2902985  25.4546299  62.7786255
  40.4907990  26.9966431  61.9613304  40.9095001  27.7930527  62.5765686
  41.5010872  25.7944183  61.8414268  41.5782394  25.3448315  62.8313866
  41.1521034  25.0166435  61.1621780  42.8525505  26.1473942  61.3370514
  43.4487267  25.2481213  61.1821938  42.8539467  26.4404373  60.2871780
  43.6535187  27.0992470  62.1542625  43.2343750  28.0767155  61.9155655
  43.3212128  27.0385704  63.1905975  45.1220360  27.0308094  61.7761536
  45.5989304  26.1087933  62.1086502  45.2156487  27.0785999  60.6912308
  45.8711624  28.1340008  62.4512062  45.6962929  28.1701946  63.4452934
  46.8314362  27.9299698  62.2138290  45.6411285  29.0953999  62.2440910
  40.1198463  27.5900173  60.5776825  40.6239662  28.6740971  60.3033867
  39.2364197  27.0403709  59.7558517  38.7024422  26.2375908  60.0567131
  38.7698669  27.6415443  58.4613571  39.6285172  27.9389458  57.8593826
  37.8599930  26.6910133  57.5357437  37.0521889  26.3331070  58.1740646
  37.2003822  27.3747749  56.3016281  36.6953316  26.6886787  55.6217079
  36.6209297  28.1910763  56.7328873  38.0243835  27.8843517  55.8021774
  38.8237801  25.5782871  57.0883560  39.6546707  25.9896736  56.5152168
  39.2996559  25.1207695  57.9557190  37.9829788  24.5025406  56.3254929
  38.3609657  23.4985027  56.5181923  36.9272766  24.5501461  56.5925713
  38.0508995  24.6626816  55.2494621  37.9936600  28.8939285  58.7971687
  38.3126106  29.9662018  58.1939697  36.9870644  28.8437099  59.6796608
  36.6944618  27.9841785  60.1220284  36.2463837  30.0449409  60.0687943
  35.8093948  30.4447308  59.1537514  35.0893097  29.5651035  60.9972229
  35.4518051  28.8340244  61.7198715  34.5177460  30.7051430  61.8262062
  33.5966606  30.4485912  62.3495445  35.2162628  30.9379940  62.6299133
  34.1964302  31.4534740  61.1017342  33.9499054  28.7250938  60.2741623
  33.2915421  29.3919201  59.7173843  34.3776360  28.0321217  59.5496368
  33.0019913  27.9501343  61.1881981  32.4685974  28.7268295  61.7362328
  32.3011703  27.3856945  60.5730896  33.5214500  27.3155422  61.9062233
  37.1294632  31.1364651  60.7757759  36.9145966  32.3143349  60.5252151
  38.1506195  30.7326870  61.4757080  38.2107010  29.7780533  61.8000031
  39.0962830  31.7032700  62.0801315  38.5515099  32.4998474  62.5868759
  39.8986320  30.8765926  63.1192665  39.1904793  30.4855232  63.8498077
  40.4016037  30.0827656  62.5670357  41.0852356  31.6624508  63.7880821
  41.7050438  30.8765545  64.2197189  41.6547699  32.1242523  62.9815636
  40.6193962  32.7485580  64.7740860  40.3002014  32.4477501  65.9699173
  40.5181236  33.8843155  64.2466049  39.9551086  32.3343163  60.9766731
  39.9567871  33.5153313  60.7156601  40.5798302  31.4633312  60.1852798
  40.6208076  30.4737415  60.3830986  41.5202179  31.9101791  59.1774330
  42.1944809  32.5644989  59.7300072  42.3605347  30.7660923  58.5374641
  41.6731415  29.9682159  58.2564240  42.8543472  31.0844498  57.6193657
  43.2930183  30.1410217  59.6742096  42.6984367  29.9502907  60.5676270
  43.4387169  29.0876789  59.4347496  44.6197968  30.8369179  60.0115318
  45.4901886  30.3354492  60.7724113  44.9002113  31.9425755  59.4977036
  40.8977737  32.7761612  58.0441551  41.6493683  33.4400368  57.3859367
  39.5935402  32.6359444  57.7621384  39.1362648  31.8652935  58.2280731
  38.8776703  33.4037514  56.7835617  39.6330910  33.9948387  56.2658119
  38.2330246  32.5401688  55.7030144  37.4700127  31.8965912  56.1408768
  37.7578621  33.0621605  54.8724442  39.3727531  31.7087460  55.0974693
  40.1910629  32.1915131  54.2949867  39.5701752  30.4835072  55.5687408
  40.3604469  29.9179821  55.2935028  39.0038452  30.1969872  56.3544083
  37.9975204  34.4363480  57.4992485  37.3892326  35.2682304  56.8365288
  38.0402908  34.5843773  58.8050232  38.7202606  34.0048447  59.2760696
  37.3333931  35.5495567  59.6558495  37.4427757  35.1508865  60.6644135
  38.0689087  36.8905640  59.6918335  37.8577118  37.4206123  58.7630997
  37.6987610  37.4736595  60.5350952  39.6047592  36.8447533  59.9248238
  40.2551384  36.5284309  61.0643845  39.8377876  36.4351196  61.9793777
  41.5600929  36.6027107  60.8626022  42.3401031  36.4173965  61.5862312
  41.7936287  36.8960381  59.5834503  42.7065239  36.9959564  59.1630478
  40.6055222  37.1073227  58.9632568  40.5066452  37.3035049  57.9058380
  35.8083878  35.5849266  59.4571724  35.2001915  36.6183968  59.4233704
  35.2440643  34.4366837  59.2603645  35.8712349  33.6729546  59.4688644
  33.8508835  34.2997437  58.8405380  33.6938362  35.0737419  58.0892982
  33.6167603  32.9439354  58.1942978  33.6909142  32.2280235  59.0128784
  32.2831879  32.8261604  57.4892731  32.2266197  31.9391479  56.8583183
  31.4422817  32.6179008  58.1507912  32.1167870  33.7823448  56.9931679
  34.6450119  32.5509377  57.2710800  34.5911789  33.1156158  56.4965897
  32.7920074  34.5595207  59.9005508  32.9273987  34.0399475  60.9985085
  31.6402550  35.2035522  59.5563507  31.6185455  35.6626625  58.6569901
  30.3247013  35.0938606  60.3065605  30.4928875  34.4139900  61.1417809
  30.1001549  36.4843178  60.9911079  29.2260303  36.2524872  61.5995979
  30.9275932  36.6804352  61.6730118  30.0594177  37.6626205  60.1088181
  31.0017300  37.6022606  59.5642967  29.2924366  37.6112976  59.3360291
  29.9577637  39.0417900  60.7114563  28.9645081  39.1918907  61.1345596
  30.7251396  39.0397835  61.4855576  30.2761993  40.2115517  59.7330818
  30.1765213  41.1504707  60.2776909  31.3185444  40.1574211  59.4189377
  29.4151115  40.2545853  58.5686913  28.4805870  40.3336868  58.9435310
  29.5662708  41.1552315  58.1373100  29.5134850  39.5275192  57.8745728
  29.1646900  34.6758842  59.4608498  29.0448666  35.0709038  58.2583961
  28.1954575  33.8630333  59.9739876  28.0455933  33.4037094  61.3394928
  28.0340385  34.1454239  62.1381340  28.8572807  32.7164841  61.5782051
  26.7968197  32.5364647  61.3629379  25.9275341  33.0586319  61.7626610
  26.9342060  31.6762161  62.0180740  26.5495396  32.1208878  59.9581718
  25.4968033  31.9229908  59.7564735  26.9574833  31.1434708  59.7006149
  27.1688805  33.2539787  59.1311455  27.8086815  32.8792191  58.3322029
  26.2148323  34.1102257  58.3124352  25.7503185  33.5945702  57.3241043
  25.9245720  35.3132553  58.6876373  26.2944603  35.6639366  59.5595932
  25.1421719  36.2460899  57.8726654  24.1359005  35.8727570  57.6825562
  25.0035286  37.5321312  58.6698914  24.2501583  38.1340675  58.1617508
  24.5323505  37.3199501  59.6296158  26.3041840  38.3864594  58.8482513
  26.9687004  38.0047379  59.6233673  26.8515816  38.6697693  57.9492531
  25.9613667  39.7549744  59.5289154  24.7898769  40.0408058  59.7086983
  26.8621311  40.5491180  59.8055878  25.7840481  36.5046234  56.4759521
  24.9807701  36.8368454  55.6189270  27.1386375  36.2827225  56.2151031
  27.8036060  36.0824471  56.9484558  27.7375774  36.4612770  54.8621368
  27.1552582  37.1857071  54.2927437  29.1508331  36.9689903  55.0004845
  29.6302090  36.2202759  55.6311417  29.6372929  36.8728638  54.0298042
  29.3700981  38.3820190  55.6723022  30.1412029  38.3505478  56.6495018
  28.6318665  39.3249397  55.2286606  27.8062992  35.1199188  54.1226883
  28.0017815  35.0369072  52.9355469  27.5008659  33.9928017  54.7768974
  27.1121216  34.0347404  55.7081451  27.6634846  32.6214828  54.2177849
  28.5997620  32.4791336  53.6781349  27.7595272  31.5871525  55.3148956
  26.9273281  31.8461132  55.9694862  27.6421165  30.1287270  54.9292488
  26.5925846  29.9632015  54.6859779  28.3947315  29.8050251  54.2103004
  27.7737942  29.5012493  55.8107452  29.1031342  31.6247082  56.0121040
  29.0057087  31.5565052  57.0955963  29.8043709  30.8726540  55.6504555
  29.5555325  32.5967102  55.8154984  26.4578056  32.3303032  53.3098335
  25.2773209  32.5229721  53.6673889  26.7571545  31.7796001  52.1465378
  27.7109127  31.5924892  51.8718872  25.6961861  31.2669888  51.2060661
  24.8833923  31.9919281  51.1621323  26.3770580  31.2460518  49.8319740
  27.2785206  30.6336956  49.8099899  25.3174362  30.7284355  48.8594284
  25.1902943  29.6670475  49.0724716  24.3614426  31.2362614  48.9870529
  25.7710209  30.8729439  47.8788795  26.8295631  32.6509247  49.4820786
  26.0202923  33.3797073  49.4366913  27.6326542  33.0289536  50.1147308
  27.3449917  32.6869926  48.5223198  25.1831875  29.9010906  51.6653481
  24.0070744  29.6866589  51.7526779  26.1175022  28.9724884  51.8604355
  27.0671005  29.3119030  51.8041840  25.8551445  27.5614700  52.0916710
  25.1625881  27.5641842  52.9333725  25.2573280  26.9660892  50.8276215
  24.8549175  25.9709225  51.0168571  24.4406185  27.5721378  50.4354630
  26.2523384  26.8118744  49.7140274  26.7767162  27.7546597  49.5581970
  26.9168911  26.0079060  50.0304260  25.5429115  26.4167347  48.4431419
  24.4925690  26.9503880  48.0730553  25.9837112  25.3942776  47.7848587
  26.8539429  24.9891262  48.0989418  25.4448986  24.9886570  47.0330276
  27.2219353  26.8435726  52.3844681  28.2677670  27.5124378  52.3672676
  27.1742687  25.5376816  52.6961517  26.2740154  25.0834808  52.7539902
  28.3524818  24.7120419  52.6868248  29.0747433  25.2478085  52.0708733
  28.8115139  24.6952267  54.1504669  28.8082886  25.6994076  54.5743980
  28.1486950  24.0553722  54.7330093  30.1584167  24.0204258  54.4118843
  29.9180927  22.9772758  54.2065010  30.9615078  24.2782364  53.7214584
  30.8349113  23.8475647  56.0696106  30.8569412  25.4497261  56.9616585
  31.2802029  25.2465515  57.9453621  31.5758457  26.1233845  56.4953308
  29.8361931  25.8291206  57.0089493  28.1271744  23.2712193  52.1335754
  27.0886364  22.6988850  52.4557571  29.1345329  22.5934753  51.6375275
  29.9870758  23.1335011  51.5969658  29.2602940  21.1984673  51.1822777
  28.3648281  20.6011734  51.3539772  29.4278126  21.1347485  49.6541862
  28.5030136  21.4872246  49.1974487  30.2287254  21.8021412  49.3360214
  29.8854675  19.7252941  49.1503105  30.7395687  19.4087124  49.7489738
  28.7955170  18.6216621  49.2943153  28.4771500  18.4244156  50.3179550
  27.9134121  18.8789101  48.7079582  29.1920509  17.6547680  48.9845161
  30.1916256  19.8636246  47.6333275  30.5229969  18.9414310  47.1559830
  29.3118286  20.1562290  47.0602264  31.1008034  20.4548893  47.5242348
  30.3554821  20.4320221  51.9701462  31.4337082  20.9994888  52.1799965
  30.2136936  19.1395950  52.2167358  29.3564358  18.7277889  51.8767014
  31.1207047  18.2138519  52.7798462  32.0935936  18.6993389  52.7031212
  30.8565025  17.9835300  54.2769928  29.8144665  17.6694241  54.3369637
  31.5446186  17.1822720  54.5463982  31.0964184  19.1242447  55.3418884
  31.9003067  19.7234974  54.9143753  29.9530106  20.1319065  55.4537811
  29.0260315  19.6300144  55.7311058  30.1233559  20.9492226  56.1545525
  29.7892933  20.6341057  54.5003166  31.5365963  18.4667339  56.6774559
  30.6778564  17.9473267  57.1027641  32.3489723  17.7590294  56.5122299
  31.7400990  19.2407341  57.4174652  31.2171745  16.8797951  52.0518074
  30.3197956  16.5716629  51.2125473  32.2965355  16.1273632  52.1780014
  33.0199738  16.3481846  52.8473129  32.4731789  14.8010979  51.5422630
  31.4606380  14.4627132  51.3223610  33.1871719  14.9435453  50.1851540
  32.5716248  15.5752726  49.5447464  34.1482658  15.4489870  50.2796135
  33.3818207  13.7287140  49.5977592  34.0589828  13.8281240  48.9245758
  33.2680626  13.7859812  52.3671646  34.0107574  14.1673260  53.2549171
  33.2097321  12.4975309  52.1443443  32.6341591  12.2434425  51.3542404
  33.7459831  11.3811140  52.9132500  34.5868340  11.8045664  53.4625702
  32.8591347  11.0902719  54.1025085  33.2462006  10.2497177  54.6784821
  32.7925224  11.9708242  54.7414856  31.8510838  10.8501329  53.7644768
  34.1409454  10.1181917  52.1177597  33.3841591   9.7444143  51.1623878
  35.2689362   9.4317398  52.3735695  35.8271255   9.7044172  53.1699219
  35.6510773   8.1616497  51.8190651  35.4835548   8.4163342  50.7725601
  37.1631050   7.8966341  52.0991554  37.5331535   7.0384188  51.5382347
  38.0581284   9.0807076  51.6830063  39.0625801   8.7483721  51.9451714
  37.9396439   9.1127005  50.5999336  37.8766632  10.0419130  52.1638985
  37.3678551   7.7019839  53.4580574  37.5074310   6.7640901  53.6079865
  34.6367531   7.0608158  52.2201881  33.9720535   7.2048726  53.2444077
  34.6331329   5.9482698  51.4147987  35.2665443   5.8766179  50.0700760
  36.3188362   5.6361890  50.2216530  35.1960564   6.8324385  49.5509071
  34.5425797   4.6960616  49.3403816  35.2492104   4.1545825  48.7114334
  33.7016258   5.0575495  48.7485809  34.1559067   3.7838771  50.4732857
  35.0078583   3.2029157  50.8265076  33.3675003   3.0940866  50.1721039
  33.7555008   4.7578583  51.6701317  32.7176514   5.0546322  51.5188179
  33.8237076   4.0803676  53.0346870  33.0577164   3.1450861  53.3057327
  34.8238754   4.3754125  53.8868065  35.3779793   5.1864033  53.6515121
  35.2426033   3.6477344  55.0649986  35.1450462   2.5784736  54.8772049
  36.6882095   4.0262570  55.3093147  36.7432861   4.9285908  55.9182968
  37.1441879   3.2722800  55.9509544  37.5587845   4.1396108  54.0229034
  37.9231796   5.3402305  53.7397537  37.7661934   3.1795080  53.2311172
  34.4516945   4.0333362  56.3179054  34.5747795   3.3064251  57.3464966
  33.5710945   4.9924135  56.2543297  33.4254494   5.4876847  55.3862267
  32.9073257   5.6466560  57.3673592  33.1342506   5.0920720  58.2778778
  33.2997589   7.1496291  57.4405403  32.8912048   7.7192698  56.6058578
  32.9860687   7.5296154  58.4128113  34.7990379   7.3971977  57.5593147
  35.2651405   6.8588395  56.7340775  35.2542839   8.7816172  57.3333282
  34.7145424   9.3011856  58.1250572  36.3347168   8.8010836  57.4760971
  34.8412018   9.1220846  56.3838310  35.4006996   6.8112350  58.8495483
  36.4783211   6.7418599  58.7011719  35.2494049   7.5270977  59.6574783
  35.0585861   5.8011560  59.0749207  31.3631992   5.4581099  57.1780434
  30.7985096   5.9941034  56.1967812  30.6803074   4.9494038  58.1641159
  31.2004986   4.4231606  58.8515511  29.2192192   4.8969083  58.2710190
  28.8477650   5.6767755  57.6062355  28.7279720   3.5023093  57.8395309
  28.9166756   2.8435826  58.6872139  27.6465187   3.5754640  57.7246017
  29.3285904   2.8706079  56.5836983  29.3407593   3.3295867  55.2429008
  28.9148121   4.1668448  54.8718643  29.9466114   2.4153841  54.4712296
  30.1464863   2.4317601  53.4100113  30.5329571   1.4482598  55.3234177
  30.9993687   0.6332026  54.9516106  30.0365906   1.7030792  56.5707664
  30.0927162   1.0387629  57.4204330  28.6133327   5.1853499  59.7090721
  27.3989449   5.1625977  59.7996216  29.3522301   5.6476417  60.6593971
  30.3548698   5.5999031  60.5474396  28.7675858   6.1310554  61.9142685
  28.1589489   5.3102636  62.2936897  29.9396400   6.3779492  62.9306221
  29.6536884   7.0196161  63.7640457  30.3912258   5.4538870  63.2915649
  30.7291317   6.9337001  62.4247208  27.8230743   7.3418279  61.9805183
  26.7438297   7.2759647  62.5895081  28.2243595   8.3825665  61.2496414
  29.0391674   8.3769560  60.6528511  27.5822029   9.6843958  61.1841507
  26.5406532   9.4563541  61.4105835  28.1416302  10.5551348  62.2992401
  28.3957729   9.9420710  63.1639175  29.5169697  11.2576065  61.9586449
  29.4215984  12.0937204  61.2658920  30.0568409  11.6212540  62.8329430
  30.1160679  10.4794827  61.4856682  27.1171284  11.5903196  62.7721710
  27.5657520  12.0192747  63.6681824  26.9636402  12.4248705  62.0880165
  26.1388931  11.1594677  62.9855309  27.6014214  10.3927507  59.8502960
  28.5545425  10.0699892  59.0736237  26.7381744  11.3809185  59.5931931
  25.8890095  11.5068302  60.1253242  27.0441647  12.3993349  58.5193405
  27.5816936  11.7651806  57.8143501  25.7601070  12.8511124  57.8652077
  25.0346107  13.2005243  58.5998268  26.0737133  13.7115021  57.2740364
  24.9973793  11.8257742  56.9984207  24.0542393  10.9939585  57.6392174
  23.8830090  11.1247540  58.6975060  23.2665672  10.1457920  56.8797646
  22.5399742   9.5215921  57.3785973  23.4194908  10.0313759  55.5120468
  22.8399467   9.4203978  54.8358536  24.5320778  10.7215500  54.8783379
  24.8182507  10.5113077  53.8583794  25.3346500  11.6242123  55.6438751
  26.1161327  12.2312565  55.2112236  27.9621677  13.5615311  59.0609055
  27.6050339  14.2114248  60.0114288  29.0319366  13.9570656  58.3734589
  29.7268162  13.2386923  57.2983093  29.4467354  13.6823521  56.3428917
  29.5961933  12.1732073  57.4874611  31.1863708  13.5882387  57.5166130
  31.7272568  13.5088892  56.5736122  31.6236248  12.8303204  58.1665878
  31.1978226  14.9864511  58.0057716  31.1133080  15.6356726  57.1342964
  32.0325737  15.2347889  58.6612244  29.9041576  14.9881392  58.8636627
  30.1301403  14.7162552  59.8947334  29.3724613  16.3596382  58.8509598
  30.0213566  17.2420769  59.4385948  28.2081928  16.6235371  58.2877197
  27.6530552  15.8737202  57.9008064  27.4401264  17.9133129  58.4256020
  28.1713142  18.6851788  58.1854172  26.3375511  17.9043293  57.2684250
  25.7809677  16.9825974  57.4379158  25.6652584  18.7447090  57.4413033
  26.8379784  17.9731007  56.3025360  26.8974018  18.2111282  59.8359909
  26.8280087  19.3502674  60.2270355  26.7709637  17.2022991  60.6757011
  26.7712536  16.2563725  60.3216934  26.3836079  17.2225685  62.1545334
  25.4173279  17.7269096  62.1478424  26.1895447  15.7907209  62.6741219
  25.7117901  15.2017870  61.8911743  27.1616611  15.3514624  62.8980637
  25.1723938  15.7607851  63.8752441  25.6784534  16.1672344  64.7509155
  24.3579350  16.4605427  63.6879082  24.7289619  14.2543049  64.0481644
  24.5810947  13.7385664  63.0993500  25.5211353  13.7159977  64.5685425
  23.4501133  14.1789045  64.8738785  23.7251434  14.3078756  65.9207001
  22.7947178  15.0324430  64.7005920  22.8797646  12.8309679  64.6956711
  22.5824280  12.7567701  63.7332878  23.5919952  12.1366854  64.8711929
  22.0293312  12.6933031  65.2228394  27.3254013  18.0120983  63.0340729
  26.9764805  18.6822224  64.0069733  28.5743313  18.1267281  62.5728951
  28.8321667  17.6334877  61.7300797  29.5811520  18.9817085  63.1977196
  29.6467972  18.6950130  64.2472916  30.9740372  18.7459736  62.5550308
  31.4214993  17.7706394  62.7463684  30.8768253  18.7649403  61.4695396
  31.6754246  19.4729233  62.9645386  29.2501221  20.4927788  63.1255112
  29.5821762  21.1907806  64.0872345  28.6082897  20.9749508  62.0169792
  28.3520069  20.3469200  61.2686501  28.1935806  22.4062233  61.9821091
  29.1260548  22.9538288  62.1189384  27.6873150  22.7720432  60.5504379
  26.9341736  22.0207691  60.3128128  27.2018147  24.2387733  60.5487823
  26.1721783  24.2593098  60.9058838  27.8745098  24.7961578  61.2006340
  27.2587242  24.6830063  59.5550423  28.7838783  22.6489162  59.4427834
  29.0430641  21.5924263  59.3738174  28.5213356  22.9458218  58.4273911
  29.6989384  23.1973038  59.6664925  27.2523327  22.8509407  63.1633339
  27.2042236  23.9949284  63.5808525  26.5858879  21.9137325  63.7745247
  26.7616463  20.9635258  63.4807281  25.4930000  22.1761303  64.7575760
  24.8907623  23.0121212  64.4018555  24.4615822  21.0236645  64.7604294
  24.1395950  20.7856541  63.7466354  24.8863029  20.0831013  65.1112213
  23.2986012  21.1955032  65.7380447  22.6885738  20.2933025  65.7828064
  23.6725082  21.2336769  66.7611923  22.5062332  22.4792080  65.4764023
  21.6419411  22.4194832  66.1378632  22.8899784  23.4396133  65.8205795
  22.0767860  22.4392204  64.1111908  22.6903400  22.7400761  63.3674622
  20.8349552  22.2740898  63.6332474  19.7780552  21.8682308  64.3337860
  19.9428482  21.7091694  65.3174744  19.0290279  21.4625282  63.7911453
  20.6991005  22.4112415  62.3621140  19.8089237  22.2336845  61.9192085
  21.4307404  22.7987003  61.7835999  26.0405407  22.5492210  66.1955032
  25.3520889  23.1309605  66.9849854  27.3090534  22.1389866  66.3610611
  27.7351646  21.6231537  65.6044617  28.1655235  22.4767494  67.5136414
  27.6240978  22.1955070  68.4168930  29.4745922  21.5897636  67.5131378
  30.0159626  21.6644592  66.5700378  30.1566315  21.8522854  68.3218460
  29.1472588  20.0453129  67.5824127  28.8445396  19.7822266  66.5688782
  30.0960445  19.6232624  67.9137421  28.0412121  19.5756645  68.5854568
  27.1673946  18.7888241  68.1755524  28.0726032  19.9430695  69.8070068
  28.4666328  23.9377270  67.6414948  28.5682602  24.5440273  68.7247925
  28.5508652  24.6049347  66.4677505  28.1200409  24.0924931  65.7115097
  29.0870895  25.9542942  66.2385254  29.9352589  26.2200012  66.8694763
  29.5521660  26.0791378  64.7638092  28.7037449  25.8623047  64.1147614
  29.9626446  27.0832081  64.6568146  30.6750088  25.1116047  64.2884216
  30.3523045  24.0819454  64.4425735  30.9843597  25.3350105  62.8133698
  30.8760815  26.4026375  62.6222153  31.9762554  24.9816818  62.5315857
  30.1968994  24.9052105  62.1942711  32.0182266  25.1490879  65.0684280
  31.7840557  24.9523430  66.1146469  32.7002525  24.4141083  64.6409454
  32.5211754  26.1159725  65.0517731  28.0109081  27.0061741  66.4478149
  27.0194016  26.8480244  65.7300110  28.0431061  27.9074516  67.4354019
  28.7941933  27.8247814  68.1055756  26.9947433  28.8716564  67.6679459
  26.0600243  28.3349571  67.8302917  27.2398796  29.7256603  68.9221802
  27.3123512  29.1611557  69.8517990  28.1162510  30.3573341  68.7770538
  26.0799503  30.5170174  69.1038361  26.1934204  31.0434113  69.8985901
  26.6877804  29.7424698  66.4312897  27.5757866  30.3259315  65.7718811
  25.4450626  30.1451817  66.2167130  24.7642841  29.8072891  66.8818970
  25.0092373  30.9979877  65.1112442  24.0187511  31.3363895  65.4154205
  25.6372757  31.8320255  64.7981186  24.6986294  30.1765537  63.9106140
  23.8235626  30.5794010  63.1814613  25.4786682  29.0774040  63.5808907
  26.0782166  28.7064705  64.3041077  25.4327183  28.4200592  62.2789307
  25.5451183  29.2073708  61.5335426  26.6294250  27.4877796  62.1935196
  26.6397820  26.8460102  63.0745010  26.6173286  26.8671417  61.2975502
  27.9332027  28.2754459  61.9950066  28.5981579  29.0561771  62.8802299
  28.3267269  29.1828251  63.9178658  29.7180099  29.6413956  62.3171272
  30.2659168  30.3936043  62.7096596  29.6756439  29.5311985  60.9865723
  30.4252090  30.1036777  59.9540558  31.1792927  30.8712234  60.0469589
  30.2594242  29.6168690  58.6207428  30.8259315  30.0024529  57.7859993
  29.2068958  28.7230530  58.3460426  29.0272179  28.5178909  57.3010406
  28.3972950  28.2409611  59.3687286  27.5476761  27.6269646  59.1088142
  28.6232014  28.5724602  60.7454300  24.1050434  27.6242466  62.0753098
  23.9181900  27.0030785  61.0742073  23.1395702  27.6850224  63.0185509
  23.2664127  28.2166157  63.8679161  21.9803295  26.7068729  62.9308662
  22.3932762  25.6987801  62.8944969  21.0200443  26.9361763  64.1416550
  20.8758717  28.0048656  64.3004608  20.0448914  26.5258198  63.8793831
  21.6471062  26.2394867  65.3650970  20.8019009  25.8837032  65.9542923
  22.2051277  25.3379211  65.1123123  22.5530415  27.1305981  66.2017670
  23.0754623  28.1944828  65.8189240  22.7974129  26.8200188  67.4252701
  22.2169361  26.1483021  67.9068756  23.4632015  27.3134708  68.0026169
  21.1843719  26.7756634  61.5991287  20.5611477  25.7894478  61.1892204
  21.1332207  27.9022484  60.9725266  21.6466656  28.6768341  61.3681145
  20.3867168  28.2133560  59.7848701  19.5923443  27.4809704  59.6410561
  19.5288963  29.4289284  59.9800568  20.1303596  30.2870865  59.6802139
  18.7274323  29.5030613  59.2450256  18.8101730  29.4789581  61.2954521
  17.8049240  28.4860001  61.4641609  17.5489235  27.8010406  60.6693649
  17.2649956  28.3347149  62.7998619  16.4469910  27.6627769  63.0138206
  17.7529449  29.2130051  63.8159943  17.2505665  28.9562531  65.0807800
  17.7436314  29.3164234  65.8215714  18.6377354  30.3195419  63.5596962
  18.9466190  30.9946156  64.3440857  19.1266212  30.4321842  62.2677345
  19.7188606  31.2900791  61.9854660  21.2375412  28.2254734  58.5253525
  20.7533989  28.3305397  57.4353294  22.5709591  28.0304394  58.6078568
  23.0052929  27.9823799  59.5184326  23.3577766  27.6902065  57.4569359
  23.1664619  28.4640598  56.7135315  24.8948078  27.8709030  57.7437973
  25.1214828  27.3785439  58.6894722  25.7829704  27.3142738  56.6132965
  26.8573780  27.3835678  56.7834358  25.5104713  26.2617111  56.5360832
  25.6305866  27.7210579  55.6135941  25.2877121  29.3837185  57.9477043
  24.9295139  29.7653313  58.9038239  26.3733425  29.3065662  58.0073242
  25.1743774  30.0373840  57.0828476  22.9381294  26.4211159  56.7383423
  22.8792648  25.3416920  57.3967323  22.6979027  26.3957272  55.4647102
  22.5055065  27.5252438  54.5157967  23.3800507  28.1654491  54.4000053
  21.7306747  28.2105770  54.8593864  22.0634575  26.9279976  53.1534004
  22.9880257  26.8121166  52.5878525  21.4342403  27.5099506  52.4799614
  21.3636284  25.6037521  53.5946083  21.3558865  24.9300156  52.7377968
  20.3024654  25.7306366  53.8089256  22.2340889  25.1230145  54.8285637
  21.5472164  24.6062794  55.4988594  23.4287586  24.2115574  54.5077362
  24.4512424  24.7202797  53.9799957  23.3905182  22.9104652  54.8515015
  22.4986153  22.5572338  55.1674728  24.5359325  21.9838142  54.7150726
  25.3857651  22.5339451  54.3110428  25.1248989  21.7033405  56.1480637
  24.4187126  21.0685196  56.6832275  26.4665947  20.8989296  56.0006828
  27.1108665  20.9374695  56.8790474  26.2518921  19.8844242  55.6648521
  27.0718632  21.4353542  55.2699280  25.4472065  22.9794979  56.9656830
  24.4848957  23.4482784  57.1713600  25.8633213  22.6826172  57.9283943
  26.1448536  23.6674938  56.4881325  24.2292500  20.7120228  54.0071220
  23.1644058  20.2462654  54.2194748  25.1597271  20.2879353  53.0864601
  25.9991646  20.8198090  52.9060326  25.0516129  18.9387493  52.4206657
  24.3144398  18.4243088  53.0371284  24.6919384  18.9992771  50.9804192
  24.7688618  18.0151844  50.5180931  23.2485199  19.4866409  50.6792870
  23.1947460  20.5741005  50.7306671  22.9914684  19.1468582  49.6760025
  22.6012268  18.9415932  51.3663330  25.6021729  19.7942009  50.2951660
  26.4214630  19.5646553  50.7397652  26.2931099  18.1272182  52.6096344
  27.3713818  18.6462860  52.8090134  26.1739197  16.7999725  52.5158234
  25.2479858  16.3978939  52.4828148  27.2781124  15.8820601  52.3520813
  28.2040119  16.4568481  52.3729362  27.3946495  14.8118334  53.4511490
  26.4504051  14.2676067  53.4690933  28.2106705  14.1388960  53.1877747
  27.7877636  15.5156336  55.1061058  26.6971378  16.2759171  55.2380180
  27.2040272  15.0929203  51.0189171  26.1062069  14.8631220  50.4801254
  28.3327217  14.5184259  50.5131645  29.2647629  14.6792440  50.8674736
  28.3457336  13.5633373  49.4341316  27.4899273  12.8939476  49.3468857
  28.5708275  14.2975855  48.1070061  28.4966106  13.5391655  47.3276520
  27.7644844  15.0283995  48.1688347  30.0457344  14.8207111  47.8939438
  30.4257298  15.3723898  48.7537994  30.6239300  13.9140377  47.7158012
  30.4024258  15.8661156  46.4491920  32.2597923  15.9597797  46.5503502
  32.4520264  16.6915531  47.3349838  32.6255951  14.9376621  46.6481590
  32.7430573  16.4110508  45.6837997  29.3571434  12.4232941  49.7971649
  30.1064186  12.5046978  50.7182236  29.4031582  11.4465275  48.9222908
  28.6456184  11.4447727  48.2542877  30.5028839  10.5294437  48.9075203
  30.8674831  10.3394499  49.9170113  29.9771004   9.1480875  48.4349327
  29.0352097   8.8987589  48.9235764  29.7645931   9.2071934  47.3674812
  30.9449272   7.9610534  48.5175285  30.6482296   7.2390060  47.7567940
  31.9816494   8.2944250  48.4708710  30.7697411   7.3086796  49.9173050
  29.9148998   6.3871560  50.0443726  31.5046101   7.5818462  50.9418182
  32.2925186   8.2089376  50.8639679  31.3370419   7.0803952  51.8023834
  31.5550385  10.9952660  48.0348206  31.3017063  11.4363337  46.9288330
  32.8438225  10.7802114  48.4693642  33.0266418  10.4861364  49.4181519
  34.0716324  11.1138277  47.6966858  33.9725075  12.1096516  47.2647018
  35.3068352  11.1462469  48.6122551  35.0327797  11.8148441  49.4283257
  35.5192795  10.1334295  48.9545517  36.6143074  11.7391634  47.9496155
  37.4530449  11.4452324  48.5806656  36.8384590  11.2300205  47.0122643
  36.5448036  13.2908564  47.7313690  37.5467148  13.7898579  47.2274513
  35.4191856  13.8524370  47.9144783  34.2820969  10.0358896  46.5826454
  34.0151711   8.8386011  46.7717171  34.7916298  10.4879894  45.4646416
  34.9716454  11.4689426  45.3051910  35.2568779   9.6049109  44.3482971
  34.4056168   9.0995998  43.8920937  35.8308907  10.5686960  43.3243294
  35.0202560  11.2334070  43.0257874  36.5544586  11.2382317  43.7893944
  36.4082527   9.9216595  42.0829391  37.4246521   9.5637827  42.2471313
  35.8646812   8.9965267  41.8912086  36.4520798  10.8462038  40.4591827
  37.5877419   9.8977814  39.4650650  38.6069412   9.8645592  39.8500671
  37.1804962   8.8876200  39.4223404  37.6195145  10.3127193  38.4576340
  36.2740631   8.5480394  44.8340721  37.2341042   8.9527903  45.4970665
  36.0350227   7.3000531  44.5319061  35.2711296   7.0270104  43.9302254
  36.8908195   6.2147183  44.9709587  37.5137901   6.5613961  45.7954750
  36.0356522   5.0388799  45.5918083  35.7989044   5.5408511  46.5299301
  35.2359428   4.8234415  44.8831825  36.8029785   3.7681942  45.9188805
  38.0023651   3.7866523  46.1218719  36.2300529   2.6724937  45.8516464
  37.9943581   5.8900514  43.8918839  37.6943970   5.5094943  42.7324295
  39.2859726   6.1240401  44.2039604  39.4836922   6.3361921  45.1714287
  40.4285011   6.2199945  43.3245163  40.3114548   5.6191807  42.4226151
  40.6728592   7.7107253  42.9256325  40.3635254   8.4076099  43.7045822
  42.1125984   8.0333223  42.5576591  42.1888123   9.0890446  42.2973938
  42.8218231   7.9264607  43.3784409  42.5154610   7.4654427  41.7190208
  39.8393860   8.0515385  41.7465248  40.1574364   7.3992300  40.9332352
  38.7676353   7.9564466  41.9209251  40.0153732   9.0958509  41.4885635
  41.6661301   5.4690752  43.8272171  41.8439751   5.4717908  45.0187073
  42.5733223   4.9154725  42.9797401  42.3627052   5.1305103  42.0156326
  43.8253021   4.2363567  43.3696022  43.6420746   3.2828872  43.8650055
  44.6745415   3.9331455  42.1158752  44.9977875   4.8128300  41.5593071
  45.7807426   2.9151967  42.4444427  46.4184914   2.5476804  41.6404991
  46.4399605   3.4560788  43.1233978  45.2461395   2.1266284  42.9740257
  43.8399811   3.2005024  41.2467613  44.3893394   2.9105616  40.5148201
  44.7443123   4.9900293  44.3160133  45.2215347   4.5501246  45.3580017
  44.9093971   6.3182220  44.0605888  44.7356110   6.5629406  43.0962181
  45.7060738   7.1836281  44.8754501  46.5679550   6.6773033  45.3100700
  46.0751381   7.9574437  44.2023163  44.8561096   7.8215666  46.0043221
  45.2088165   8.8698940  46.3641930  43.7248306   7.2991138  46.4350204
  43.5166550   6.3597393  46.1278763  42.8154335   7.8803024  47.4596481
  42.6810303   8.9341269  47.2157440  41.8717499   7.3428388  47.3663406
  43.3093224   7.7878485  48.8778458  43.5327301   6.7099533  49.4207001
  43.3920784   8.9539614  49.4862251  43.2207870   9.7545853  48.8948212
  43.7169189   9.0933323  50.9426270  44.6735954   8.6984253  51.2845535
  43.6517029  10.5502920  51.3273926  44.3557701  11.0972033  50.7002716
  42.7161179  10.9955626  50.9889946  43.9076881  10.9028139  52.8092422
  43.2873306  10.3032122  53.4753838  45.3599968  10.6369839  53.2503052
  45.7088242  11.2879438  54.0519753  45.5096321   9.5933361  53.5269089
  45.9421844  10.8129959  52.3457718  43.6001778  12.4411993  52.9001656
  44.4820442  12.9688110  52.5368042  42.6910400  12.8255892  52.4377670
  43.3525696  12.7748795  53.9078598  42.6096535   8.3587914  51.7576904
  41.4429092   8.5922670  51.5879288  42.9411125   7.4498205  52.6815147
  43.9193687   7.1997876  52.6570206  41.9566689   6.6935153  53.4411163
  41.1456337   6.3922668  52.7781143  42.7430229   5.4738727  53.8755722
  43.5763969   5.7298126  54.5298538  42.0981331   4.9515429  54.5822487
  43.1946220   4.5543628  52.7375755  42.3345871   4.0130954  52.3432808
  43.7123718   5.1481957  51.9843140  44.1108322   3.4499931  53.2832069
  45.0136833   3.9868987  53.5742264  43.6873245   3.0128536  54.1874466
  44.4646645   2.3794053  52.2705154  43.5864410   1.8335404  51.9257660
  44.8221588   2.8692179  51.3647652  45.4739876   1.3587404  52.7270088
  46.3965797   1.6181245  52.4081955  45.2869568   1.3691081  53.7194901
  45.2009544   0.4775254  52.3158951  41.3366470   7.4597011  54.5642471
  41.9728432   8.3868008  55.0589447  40.0334282   7.1364932  54.9036217
  39.5961571   6.4699459  54.2834511  39.2962646   7.5870123  56.0687294
  38.2484894   7.3208642  55.9293442  39.7993965   6.9666471  57.4919014
  40.6858177   7.4703202  57.8774834  38.9721489   7.2216902  58.1542664
  40.0232468   5.4497504  57.4092102  39.0749359   4.9767895  57.1540413
  40.7686729   5.2351975  56.6434288  40.4386826   5.0093884  58.7941360
  41.2608490   5.6327081  59.1457291  39.5278244   5.1241546  59.3817329
  40.9614296   3.5556641  58.8350716  40.2140160   2.8282235  58.5183563
  41.7665672   3.5559719  58.1003265  41.3718910   3.1608820  60.1629448
  41.9132195   3.9372537  60.5155220  40.5363541   3.0488906  60.7192230
  41.8153534   2.2719517  60.3452721  39.4058800   9.1301870  56.0855484
  39.9736214   9.7477560  57.0184364  38.8524437   9.7496958  55.0333099
  38.3100204   9.1947021  54.3868904  39.0137634  11.2952080  54.9053917
  39.4738922  11.6302299  55.8349838  40.0414543  11.6198711  53.7401848
  40.9807358  11.1490507  54.0303230  39.6808968  11.3026495  52.7616768
  40.2295189  13.4569912  53.5433731  40.7970428  13.6825523  54.7316246
  37.6343079  11.9483156  54.7636223  36.6838684  11.3739367  54.1770401
  37.5324936  13.1208677  55.4216118  38.3779411  13.5409937  55.7805099
  36.3931274  14.0606661  55.3324814  35.6897964  13.6158600  54.6285095
  35.6158409  14.2821798  56.6097374  36.2363930  14.7331181  57.3841209
  34.3834457  15.2154226  56.4291077  33.8253670  15.2517786  57.3646927
  34.7536888  16.2153435  56.2028847  33.7547417  14.9059076  55.5942192
  35.1933746  12.8640699  57.1364555  34.2250481  12.8950987  57.6359367
  35.1014671  12.1603203  56.3091774  36.0875587  12.4407377  58.3374023
  35.6182709  11.6851921  58.9674988  36.9934044  11.9983788  57.9228401
  36.3829956  13.2462950  59.0096321  36.9730301  15.3618135  54.6977272
  38.0960846  15.8082428  54.9692307  36.1422081  15.9695101  53.7960930
  35.2198067  15.5589714  53.7690697  36.4524307  17.1085873  52.9817429
  37.3663292  17.5288410  53.4015961  36.6862793  16.6451435  51.5830841
  35.8037529  16.3929005  50.9951897  37.1114311  17.5197773  51.0907784
  37.8211479  15.6532393  51.4908257  38.7031326  15.9509840  52.0578804
  37.4938087  14.6513758  51.7687111  38.2040291  15.5902376  50.0491982
  37.4656334  14.9525604  49.5631523  38.1453171  16.6006203  49.6444969
  39.5479126  15.1039419  49.7818832  40.1623802  15.7921772  49.3709526
  39.8727150  13.8576250  49.8816528  39.1791687  12.9337282  50.4327126
  38.4119568  13.3097019  50.9713593  39.4672432  11.9675045  50.4920883
  40.9070206  13.4077673  49.2858772  41.3507309  14.0672493  48.6627350
  41.0909805  12.4184704  49.1989899  35.3555756  18.1947689  53.1706276
  34.1845856  17.8421021  53.4867134  35.6643982  19.4701557  53.0451698
  36.6037254  19.7635365  52.8178101  34.6676559  20.5567055  53.1092339
  33.7048607  20.1490498  52.8011131  34.6675720  21.1032562  54.5492744
  34.4511681  20.2984905  55.2518539  36.0611572  21.5766525  54.8989296
  36.5761566  22.1608944  54.1363449  36.1165810  22.2754917  55.7335892
  36.7521248  20.7668095  55.1330566  33.5509529  22.2152271  54.7148972
  32.6447067  21.8711700  54.2164497  33.4209900  22.3669624  55.7864304
  33.8087234  23.1713238  54.2593384  34.9475861  21.5608616  52.0218773
  36.0785255  21.8636551  51.6346550  33.8960037  22.2098331  51.5408821
  33.0004196  21.8084946  51.7795296  33.8344688  23.3154373  50.5308113
  34.7679749  23.8781586  50.5355263  33.5172768  22.8116169  49.1497002
  34.3369446  22.2027130  48.7682800  32.7000999  22.0942440  49.2252731
  33.2969933  23.8878040  48.1699219  32.6843948  23.3852043  47.4214439
  32.6579094  24.7331715  48.4249268  34.6686287  24.4402466  47.2192955
  34.9405556  22.9687748  46.1465340  35.1407356  22.0416660  46.6836510
  34.0898666  22.7620621  45.4971504  35.6996689  23.2473946  45.4156380
  32.7102280  24.2990780  51.0401840  31.5386486  24.1442032  50.7447815
  33.1637306  25.3489037  51.7820053  34.1508904  25.4886513  51.9435043
  32.2937927  26.4256458  52.3421745  31.3123245  25.9849873  52.5172272
  32.8341675  26.8300343  53.7184258  32.7634430  25.9271145  54.3249092
  33.8953743  27.0700073  53.6524429  32.1011391  28.0336132  54.3546867
  31.8374081  28.7647343  53.5904846  31.1204147  27.6715336  54.6631966
  32.9314766  28.7241402  55.8591042  34.3890076  29.3634663  55.1020241
  34.2437172  29.6262970  54.0542145  34.6238556  30.2720394  55.6564980
  35.1835785  28.6186428  55.1467209  32.1829987  27.5687962  51.3043060
  33.1828461  28.0828781  50.8671684  30.9052525  27.9260197  51.0071640
  30.1906147  27.6708336  51.6736984  30.7005329  29.1119938  50.1586647
  31.6136894  29.4450970  49.6654205  29.8495102  28.7255993  48.9613914
  28.8857117  28.2713242  49.1912537  29.6894951  29.8454170  47.9588127
  28.7881336  30.4117355  48.1931877  30.6044235  30.4357853  47.9090729
  29.6441002  29.2979889  47.0173454  30.6147194  27.8303967  48.1579170
  30.7146339  27.0779133  48.7456093  30.1958733  30.3418941  50.8689842
  29.3127079  30.2355938  51.7393341  30.7452412  31.5226898  50.5740776
  31.4711418  31.4278603  49.8782501  30.5275288  32.7543869  51.2627220
  29.5386925  32.7160873  51.7197037  31.6214600  33.0632439  52.3020477
  31.2832260  33.9059181  52.9050407  31.7973080  31.8686142  53.3016396
  32.4860840  32.1428452  54.1006927  30.8425655  31.6852436  53.7945366
  31.9623718  30.9321308  52.7688713  33.0697250  33.5055161  51.7974167
  33.6826134  32.6258240  51.6009102  33.0673065  34.1785660  50.9400368
  33.7206078  34.0063095  52.5141106  30.4893456  33.9714890  50.3087807
  31.1479702  33.8749237  49.2472038  29.7948189  35.0369568  50.6714172
  29.2235451  34.9610443  51.5008659  29.9805412  36.3677597  50.0283318
  30.0795498  36.2269020  48.9520149  28.6646404  37.1144371  50.2007942
  27.8403492  36.4481964  49.9462967  28.5586185  37.3453903  51.2607574
  28.6567421  38.4212608  49.3792534  29.6169052  38.9019508  49.5666656
  28.5538464  38.1331978  48.3330536  27.5540810  39.4549484  49.8940811
  27.6897888  39.9188271  51.0431252  26.5184097  39.6611862  49.1347656
  26.5604992  39.2424202  48.2166290  25.7342873  40.1920128  49.4861526
  31.2051411  37.0320892  50.5600243  31.4288940  37.1185188  51.7788963
  32.0982857  37.5229416  49.7075195  31.8609829  37.3859901  48.7353935
  33.2779846  38.2533760  50.1761856  32.8924217  38.9344978  50.9348106
  34.3413048  37.3157120  50.8733864  34.0166130  36.7467499  51.7445641
  34.9397774  36.3496132  49.9174004  35.5224495  36.8451309  49.1408348
  35.5633392  35.6882477  50.5189552  34.1583328  35.7191353  49.4931946
  35.4325523  37.9965286  51.3487129  35.3549843  37.9067917  52.3013573
  33.9386635  39.0597267  49.1023788  33.9686623  38.7431870  47.9090691
  34.5698471  40.1726418  49.4416656  34.4981270  40.5731316  50.3660889
  35.4770546  41.0189247  48.6053162  35.0078697  41.0945435  47.6243744
  35.6326942  42.3767929  49.2402344  34.6053085  42.7055054  49.3968544
  36.0493546  42.2182388  50.2348938  36.4286499  43.3693466  48.4307632
  36.1972618  43.4726982  47.2148323  37.1629524  44.2412949  48.9862022
  36.7975082  40.3444099  48.3773041  37.5606003  40.8059502  47.4576988
  37.1057625  39.2761688  49.1788483  36.4481926  39.0452614  49.9098663
  38.4643898  38.7051125  49.3030205  39.2131577  39.4956779  49.3526115
  38.6738243  37.9584236  50.6663055  37.9055672  37.1972122  50.8021011
  40.0225639  37.2460823  50.6956329  40.1571541  36.6494141  51.5978432
  40.1552200  36.5858917  49.8385124  40.8326492  37.9717522  50.6230698
  38.5360031  38.9693756  51.8258820  38.8081627  38.4873466  52.7648506
  39.1715736  39.8389282  51.6584587  37.5000153  39.3066864  51.8582726
  38.8023567  37.8201675  48.0711441  38.1390915  36.8160896  47.8001175
  39.9290504  38.0653305  47.2620468  40.8169022  39.1146736  47.5910301
  41.3878250  38.8328934  48.4757614  40.2857361  40.0568390  47.7262535
  41.7653503  39.3399124  46.4201775  42.7663651  39.6811676  46.6840172
  41.2392540  40.0920982  45.8323555  41.7672577  38.0019989  45.7490196
  42.6453743  37.5455475  46.2058182  41.8506012  37.9665565  44.6627884
  40.4304695  37.3294067  46.0907822  39.7853279  37.4140968  45.2163010
  40.7538071  35.8092346  46.2116623  41.1390305  35.3397522  47.3416862
  40.6261482  35.0460930  45.1198921  40.2737312  35.4893532  44.2835770
  40.7584114  33.6553917  44.9393044  39.9651680  33.1338959  45.4749451
  40.4916611  33.3425560  43.4566956  39.4682617  33.5663185  43.1555595
  41.1562195  33.9601974  42.8525543  40.7017479  31.8600769  43.0499763
  41.7072639  31.4892540  43.2488022  39.9901085  31.2568607  43.6137161
  40.3875351  31.5006943  41.6313248  41.2485199  31.4285851  40.7461853
  39.1808777  31.3221703  41.3230057  38.4526443  31.3012829  42.0225410
  38.9270096  31.2452011  40.3484688  42.1327248  33.1370163  45.4834633
  42.2016335  32.1477127  46.1914825  43.3012543  33.8204994  45.2612953
  43.3009415  34.5889168  44.6058273  44.5962372  33.5363960  45.8498306
  44.6483078  32.4533882  45.9615402  45.7043686  34.1827240  45.0031853
  46.6528931  33.9755516  45.4986458  45.7239418  33.5937119  44.0862427
  45.6750908  35.6781693  44.7093315  46.7601128  36.2437325  44.4394684
  44.6619110  36.2870445  44.7093773  44.7068748  34.1492119  47.2747955
  45.6811371  33.8017426  47.9235229  43.6989784  34.7501106  47.8315239
  42.8994751  34.9916763  47.2635994  43.7158356  35.1947060  49.2966080
  44.6625443  34.8727837  49.7304382  43.6292191  36.7661285  49.2953835
  44.3154678  36.9744072  48.4745445  42.6576462  37.1137924  48.9442711
  44.0982590  37.3824768  50.6536407  43.4268761  37.0104675  51.4275627
  45.0673790  36.9593735  50.9180260  43.9876556  38.8630066  50.7634010
  42.9449921  39.4735222  50.7344322  45.0750389  39.5038719  51.0777130
  45.8670197  38.8804054  51.1421471  45.0958481  40.4554253  51.4156685
  42.7565880  34.4874077  50.3153191  42.8729134  34.6396065  51.5278015
  41.9482460  33.5505981  49.7519035  41.9309502  33.5362091  48.7421494
  41.3232880  32.4708786  50.5746117  40.9447060  33.0627060  51.4079895
  40.2347755  31.7156734  49.7497559  40.6842690  31.3866844  48.8128357
  39.6967545  30.4531822  50.4937477  38.9271774  30.0986633  49.8080521
  40.5697823  29.8196793  50.6505890  39.2622490  30.7479534  51.4489479
  39.1803207  32.7477798  49.2947350  39.6536407  33.3452415  48.5155640
  38.2812042  32.3218307  48.8494682  38.5811577  33.6116447  50.3427010
  39.2944183  34.2855682  50.8172379  37.8328743  34.2311058  49.8482933
  37.9978409  33.0214577  51.0494690  42.4476852  31.4760284  51.2113953
  43.3177681  30.9902649  50.4947014  42.3212471  31.1990967  52.5226364
  41.5530090  31.6563778  52.9925308  43.1615715  30.2219486  53.2969933
  44.1206245  30.0292282  52.8161888  43.4462700  30.7508945  54.7066917
  42.5730286  31.3023567  55.0551758  43.6380959  29.9603977  55.4322395
  44.5403709  31.8231430  54.7794800  45.4840240  31.3621197  54.4878082
  44.3820419  32.6812782  54.1262970  44.9009857  32.4191933  56.1181488
  44.0100060  32.7121582  56.6735153  45.3566780  31.6900730  56.7880936
  45.7902374  33.6029205  56.0216637  45.8608856  34.0990410  55.1447525
  46.5329552  34.0735435  56.9431686  46.4634819  33.5659676  58.1271324
  47.0011177  33.9255791  58.9028473  45.7753792  32.8606911  58.3489418
  47.4278259  35.0087318  56.7300835  47.9149742  35.4083176  57.5194626
  47.6531792  35.3755608  55.8164368  42.3941917  28.8791199  53.2945175
  41.5095139  28.6513977  54.0973167  42.8437958  28.0136509  52.4161682
  43.5094299  28.3038158  51.7141457  42.3773880  26.6112328  52.4459839
  41.3232231  26.5490322  52.7161179  42.5124779  26.0837231  51.0409508
  43.5400848  25.8494205  50.7630577  42.0659103  25.0902615  51.0823593
  41.9207268  26.9377937  49.9529114  40.6452217  26.9480152  49.4771118
  40.6135368  27.9362049  48.5738792  39.7307205  28.2895107  48.0618134
  41.8199997  28.3969269  48.2845993  42.1174355  29.0860825  47.6088066
  42.7053604  27.7610455  49.1361084  43.7761650  27.8525486  49.2429008
  43.0958595  25.8785591  53.4918098  44.3385010  26.0847435  53.7117233
  42.4332657  24.9067554  54.1847191  41.4655571  24.6620522  54.0305634
  43.0518646  24.2325802  55.3869896  44.0994453  24.5324974  55.4140015
  42.3288383  24.7453327  56.6746979  41.2905998  24.4134502  56.6712036
  42.8480148  24.0790119  57.9864540  42.3816833  24.4864101  58.8834877
  42.6799812  23.0032940  58.0383911  43.9239235  24.2371540  58.0606728
  42.3122597  26.2483711  56.9359283  42.0055008  26.8956852  56.1143570
  41.7396317  26.5021152  57.8280106  43.3405609  26.5895729  57.0554237
  43.0856285  22.7677917  55.2529831  42.0734520  22.1046448  55.0152740
  44.2143326  22.1295490  55.6366539  45.0084076  22.7445621  55.7429657
  44.4984360  20.6778049  55.5433693  43.5557175  20.1324272  55.5875359
  45.2337189  20.3348427  54.2006645  46.1725922  20.8740253  54.0745506
  45.4751282  19.2719193  54.1966667  44.3852654  20.5325737  52.9120636
  44.1806412  21.7942276  52.3649178  44.6633720  22.5308685  52.9900131
  43.5012169  22.0389519  51.0970688  43.2346649  23.0206318  50.7342224
  43.0862961  20.8958454  50.3747978  42.3932953  21.0372887  49.1777115
  42.3262901  20.2342491  48.6559486  43.3458900  19.6514416  50.8576546
  43.0729904  18.7767162  50.2860069  44.0520935  19.4567490  52.0594788
  44.2175369  18.4283791  52.3449326  45.3731346  20.2487926  56.7272873
  46.5260468  20.6769257  56.9296989  44.6940536  19.5526505  57.6745338
  43.8605156  19.0061398  57.5113029  45.1498566  19.0858879  59.0089836
  46.0400848  19.6368999  59.3122635  44.1149483  19.4858017  60.0639343
  43.1913109  18.9666004  59.8081512  44.4217606  19.2539444  61.0838394
  43.8218155  21.0383682  60.0856705  43.2044792  21.2394428  59.2101364
  42.9087257  21.2611217  61.3530807  42.5905037  22.3035049  61.3695374
  41.9717102  20.7099037  61.2739677  43.5220604  21.0298271  62.2239571
  45.0191269  21.9787178  60.0057487  44.7437096  22.9892540  60.3075066
  45.8148270  21.5261784  60.5975037  45.3929100  22.0374908  58.9835281
  45.3741722  17.5388622  58.9884529  45.0297470  16.8873348  58.0736809
  45.8761215  16.9992962  60.0774002  46.0785294  17.5524979  60.8978271
  45.9832764  15.5598278  60.4328308  46.6175804  15.4727697  61.3149757
  44.6039696  14.9403391  60.7392311  44.0505104  15.0767307  59.8101578
  44.6346016  13.8750143  60.9678001  43.9152985  15.6185732  61.9300041
  43.9663963  16.7071171  61.9536743  42.8419342  15.4501143  61.8427696
  44.3157310  15.1626167  63.3288689  43.7329292  14.2520971  63.8900261
  45.2430229  15.7564240  63.8693504  46.7414627  14.7823677  59.3078918
  47.9066505  15.2385921  59.0711098  46.2561722  13.6706514  58.7064018
  45.3819618  13.2787685  59.0262184  46.9997482  12.9745941  57.6353264
  48.0793114  13.0791903  57.7434959  46.7947998  11.3951550  57.7386665
  45.7238121  11.2176838  57.6407585  47.2326164  10.8354073  56.9121704
  47.4831734  10.8069019  59.0133591  48.5659180  10.8759480  58.9084969
  47.2744904  11.3862486  59.9127541  46.8882980   9.3969660  59.2771568
  45.8632431   9.6260443  59.5685120  46.7295036   8.7471828  58.4165382
  47.5658531   8.7127752  60.4189301  48.6141548   8.8431883  60.1503067
  47.3618011   9.2518549  61.3440552  47.1975822   7.3113914  60.5055313
  47.0537949   6.9310937  59.5809784  47.8809319   6.7151647  60.9501152
  46.3004913   7.2684102  60.9675674  46.7319603  13.5588226  56.2602730
  47.5796776  13.4240475  55.3235741  45.6582909  14.4050646  56.2116318
  45.0666733  14.6000147  57.0066681  45.1754303  15.0043011  54.9653893
  45.0888214  14.1696777  54.2696877  43.7493248  15.4753876  55.1945229
  43.2023125  14.5742474  55.4716988  43.6514664  16.3635139  55.8188210
  43.4043732  15.7324400  54.1930084  46.0646095  16.1400490  54.3944244
  46.0343590  16.4672699  53.2268219  46.8778534  16.7400990  55.2475243
  46.7596016  16.5342064  56.2292175  47.9254112  17.7132664  54.8144608
  47.4528694  18.5964012  54.3844910  48.7746468  18.0731506  56.0807610
  48.0080910  18.3870296  56.7892609  49.4777756  16.8028622  56.6842651
  50.3176460  16.5680828  56.0303497  49.9100189  16.9759007  57.6698227
  48.7269325  16.0277157  56.8375130  49.7465630  19.2516937  55.8985138
  50.1604958  19.6124172  56.8401299  50.5358849  18.8935986  55.2375755
  49.3225021  20.0525265  55.2927628  48.8620567  17.2688370  53.6390495
  49.4743347  18.1217251  53.0061417  48.8179474  15.9415197  53.2812004
  48.3567886  15.3308105  53.9403419  49.5889130  15.3981972  52.1459808
  50.6444931  15.6516113  52.2441254  49.6694641  13.8186026  52.3988647
  49.8411674  13.5685415  53.4458046  48.3161278  13.1821823  52.0495224
  48.4969215  12.1074276  52.0674057  47.5594444  13.4902210  52.7710762
  47.9586754  13.4618940  51.0585136  50.6803322  13.1252432  51.4711342
  51.6958275  13.5204086  51.4978027  50.7278862  12.0830336  51.7867966
  50.2503891  13.2763968  50.4809837  49.0627327  15.8473148  50.7829170
  49.8428993  15.9614973  49.8386993  47.7673683  16.2285137  50.6838112
  47.1574440  16.1961288  51.4882011  47.0392570  16.2036743  49.4425926
  47.2025261  15.2348337  48.9705849  45.5107346  16.3561344  49.7495766
  45.3399925  17.1459713  50.4810867  44.8828239  16.6390800  48.9047279
  44.8203888  15.0716696  50.3034019  45.5280342  14.6259432  51.0024490
  43.5291214  15.5213203  51.0474586  42.8928299  16.0272713  50.3213387
  43.0021400  14.6360941  51.4034958  43.8005638  16.1824627  51.8704491
  44.6523705  13.9571066  49.2939644  45.6736603  13.5958195  49.1734009
  43.9467316  13.2728233  49.7650528  44.3077927  14.4105024  48.3645554
  47.4224167  17.4112568  48.5624809  47.6200829  17.3303356  47.3313026
  47.6894455  18.5453091  49.1388435  47.6860809  18.5200195  50.1485214
  47.9445763  19.8649044  48.5310783  48.2893829  19.8161297  47.4982033
  46.5593491  20.5896759  48.4191933  46.1517982  20.7025204  49.4238167
  46.8785744  21.5474873  48.0083504  45.5089340  19.9225292  47.3711929
  45.3554993  18.8777122  47.6412163  44.5335312  20.3890152  47.5093079
  45.8650856  19.8913574  45.8829613  46.8126335  19.3564339  45.8188171
  45.0355949  19.4683647  45.3162842  46.0838623  21.2789383  45.4626541
  47.0085526  21.6687622  45.5770645  45.2986755  22.2421055  44.9982338
  44.0374680  22.0008202  44.7356949  43.5589523  22.7672615  44.2843742
  43.6037827  21.0948334  44.8415375  45.6620827  23.4432259  44.6915245
  45.1401215  24.1598759  44.2077141  46.5791283  23.7763557  44.9525719
  48.9817924  20.7160778  49.2730904  48.5858307  21.5670109  50.0288849
  50.2716599  20.3969612  49.0793953  50.7963257  19.2968369  48.2383232
  50.8855438  19.6558685  47.2130241  50.2366142  18.3616199  48.2524261
  52.1801643  19.0474854  48.7905426  52.7759285  18.6332493  47.9771767
  52.0464745  18.3820019  49.6433945  52.6962509  20.3887024  49.2891350
  53.4032135  20.8711262  48.6141777  53.2431374  20.1847019  50.2096786
  51.3866119  21.2146568  49.5863762  51.2876701  21.3691082  50.6608315
  51.3969421  22.6626873  49.1517220  51.9674568  23.4885769  49.8054161
  50.8791885  22.8642654  47.9019241  50.6122780  22.0877972  47.3137436
  50.9200249  24.1584148  47.2535706  51.8856621  24.6636047  47.2328644
  50.5327568  23.9730759  45.7477608  50.3909683  24.9224949  45.2314301
  51.3190727  23.3958130  45.2613602  49.2120972  23.2788124  45.5585022
  48.9860764  22.0979614  45.9610748  48.2602806  23.9392757  45.1387596
  49.9325294  25.1779594  47.9330025  50.3167419  26.3592472  47.8496437
  48.9446297  24.7359142  48.7126541  48.8506927  23.7304955  48.7328300
  48.0562515  25.5132523  49.6110153  47.9614906  26.5561523  49.3085556
  46.5483055  24.9864902  49.4981079  46.5665283  23.9839268  49.9254684
  45.8713455  25.4919529  50.1868286  46.0194702  24.6563225  48.0426445
  46.5451813  23.8763523  47.4918518  44.6663971  24.0466080  48.2720985
  44.1277122  23.9697247  47.3276367  44.8167725  23.0664253  48.7245712
  44.0121727  24.6177540  48.9307976  45.8349915  25.9222469  47.2118607
  46.8121490  25.9908485  46.7337799  45.1339607  25.7437744  46.3965034
  45.5767670  26.7582874  47.8618279  48.5028877  25.5340862  51.0688286
  47.7856522  26.1194382  51.8056374  49.4807129  24.8073292  51.4668121
  50.0764923  24.3218098  50.8115120  49.7002563  24.5181351  52.9409218
  49.0763588  25.1574631  53.5655098  49.3914795  23.0511150  53.1728134
  50.0275459  22.3949509  52.5787010  49.5319977  22.7818146  54.2196312
  48.0134964  22.7883778  52.9108696  48.0209160  22.3986588  52.0335617
  51.1929131  24.8327332  53.2938728  52.0898743  24.2248402  52.7171822
  51.4501190  25.7434082  54.2057877  50.7122498  26.1940994  54.7278328
  52.8160019  26.3896885  54.4935799  52.6662483  27.2048149  55.2015686
  53.7244453  25.4967823  55.3647118  53.9970322  24.5998955  54.8084831
  54.6288376  26.0523434  55.6127739  53.0980453  25.0153713  56.7620049
  52.0834236  24.7062531  56.5108261  53.7966080  23.8268757  57.4020958
  53.9601097  23.0343781  56.6718063  54.8424034  24.0079041  57.6503716
  53.3127251  23.5618114  58.3421478  53.0736923  26.0813675  57.7809143
  52.5517731  25.6875725  58.6530495  54.1116409  26.3221817  58.0106430
  52.4995995  26.9164772  57.3795319  53.5672417  26.9541035  53.3025398
  54.8296585  27.0826893  53.3565178  52.8127098  27.3131580  52.2575989
  51.8062439  27.2299995  52.2723389  53.4030876  28.1102352  51.2500000
  54.2480278  27.5484581  50.8517799  52.4412346  28.2937050  50.0759392
  52.3057671  27.2968292  49.6564293  51.1384430  28.9256649  50.4673538
  50.3495483  28.1768360  50.3966789  51.1635971  29.3409367  51.4748344
  50.8423119  29.6694489  49.7276268  53.0506096  29.1419811  49.1443329
  53.4615822  28.5274811  48.5318871  53.8712616  29.5034580  51.7660217
  53.3591576  30.1131096  52.7079773  54.8392143  30.1593285  51.0639725
  55.2833290  29.7002811  50.2815781  55.3573914  31.5293522  51.4908028
  55.0336571  31.7745094  52.5023346  56.8903732  31.4485588  51.5570755
  57.3599396  32.3261604  52.0014000  57.0858116  30.6792374  52.3041039
  57.6723289  31.0752220  50.2447014  57.5204620  30.0183220  50.0256119
  57.1875725  31.6105099  49.4282570  59.0979118  31.4642887  50.4920158
  59.2922134  32.5033379  50.7579498  59.5129280  30.9603310  51.3648796
  60.0038567  31.2140827  49.2151451  61.0463448  31.3792629  49.4872360
  59.9767342  30.1712570  48.8991051  59.6907234  32.1925735  48.1434364
  59.5296135  33.1129990  48.5267906  60.5035667  32.3166008  47.5569191
  58.8954239  32.1882973  47.5208778  54.7017670  32.6742287  50.7055168
  55.3945045  33.6764526  50.4198456  53.4550285  32.6139221  50.2870674
  52.8636856  31.8054199  50.4164429  52.7354279  33.7431374  49.6923981
  53.2755814  34.0763817  48.8062325  51.3801804  33.3995628  49.2092018
  51.4455490  32.5310059  48.5538864  50.7814102  33.1589813  50.0876617
  50.7472839  34.5318184  48.3788643  51.1025696  35.6918030  48.3124123
  49.7889442  34.1659622  47.5364609  49.3033180  33.2964745  47.7045670
  49.4266129  34.8742218  46.9142151  52.6720085  34.9138794  50.6829224
  52.0273399  34.7197304  51.7976151  53.3120995  36.0063171  50.2688751
  53.9080505  36.0861702  49.4573555  53.4038467  37.1890144  51.1558075
  53.7411995  36.8080254  52.1197243  54.3408813  38.2719727  50.6309738
  54.3591881  39.0973778  51.3426399  55.8109398  37.8103600  50.5200348
  56.2928352  37.3816414  51.3987083  55.8055305  37.0611191  49.7283821
  56.4445648  38.6800537  50.3460922  53.8664169  38.5576897  49.2748795
  54.0919914  39.4868355  49.1888313  52.0247002  37.7636375  51.5006866
  51.8278008  38.2815742  52.5479050  51.0341606  37.7660561  50.5793991
  51.2799377  37.3926888  49.6736984  49.7499809  38.4406891  50.6771507
  49.7455177  39.2665634  51.3885002  49.2756538  39.0208931  49.3298302
  49.0941429  38.2711945  48.5596962  48.3064919  39.4557724  49.5741730
  50.2008133  40.0564232  48.7493515  51.1730347  39.5876694  48.5971680
  49.7959251  40.2801170  47.7623749  50.4335251  41.3454933  49.5536194
  51.3003922  42.1340408  49.0867767  49.6245842  41.6588478  50.4404602
  48.6061974  37.5704308  51.2648468  47.5017319  38.1180954  51.4808617
  48.9100227  36.2867432  51.4880676  49.8380623  35.9707451  51.2451859
  47.9158707  35.2707329  51.9083061  46.9072914  35.3478661  51.5022049
  48.5004082  33.8815231  51.4927254  48.6124916  33.8120041  50.4107323
  49.5178337  33.8484116  51.8824158  47.8223572  32.6042519  52.0273933
  47.6232948  32.7124977  53.0935822  46.5257225  32.3177795  51.3060722
  45.8198051  33.0954857  51.5975533  46.6858215  32.2413750  50.2306061
  46.0968094  31.3711700  51.6348038  48.7565613  31.4207096  51.8103104
  49.6653900  31.7450447  52.3172073  48.2475166  30.5273342  52.1720505
  48.9920158  31.3714409  50.7471848  47.6727676  35.3196144  53.5236015
  48.6223564  35.4231186  54.3248177  46.5133705  35.3970871  53.9244499
  20.9493504  42.5174789  46.3745766  20.3631516  43.1328392  45.8288651
  20.7484894  42.7008095  47.3472786  21.8968163  42.7640648  46.1263771
  20.6270485  41.1125069  46.0171509  19.8016777  40.7393379  46.6234550
  20.3342571  40.8312454  44.6108971  19.7159576  41.6001816  44.1477051
  21.2865829  40.8611450  44.0814781  19.7339134  39.4200134  44.4168282
  19.5391178  39.3069725  43.3503494  20.4789524  38.6646614  44.6667671
  18.1726589  39.1550636  45.3368912  17.0457516  40.2042923  44.4110794
  16.1230469  40.2588577  44.9887810  17.4876118  41.1769867  44.1949196
  16.7346668  39.5929642  43.5639610  21.7324905  40.2134285  46.6236420
  22.7444592  39.9952393  45.9635239  21.4913635  39.6725960  47.8319702
  20.6837635  40.0335808  48.3193855  22.3711433  38.6807175  48.4244118
  23.3765278  39.0630455  48.2479782  21.9699535  38.6854172  49.8973274
  22.3129482  39.6527405  50.2643967  20.8832531  38.7438583  49.9586983
  22.3562031  37.5281105  50.8163109  21.9965572  37.7816658  51.8135414
  21.8538857  36.5927315  50.5696487  24.1270733  37.2643204  50.9512672
  24.6244316  38.7133484  52.0407143  24.2896919  39.6634903  51.6244431
  24.1117191  38.5912514  52.9948196  25.6886406  38.7411995  52.2747688
  22.2988682  37.2272339  47.7342186  21.5862541  37.1241035  46.6924248
  23.0131760  36.2137794  48.1870308  23.6096535  36.3528633  48.9901314
  22.8854771  34.8792496  47.6095009  21.8843288  34.7859917  47.1886635
  23.9962521  34.5684052  46.5824471  24.9750042  34.5048943  47.0579605
  23.7542095  33.3206978  45.7799530  22.7709045  33.4424934  45.3256607
  24.5240135  33.2542191  45.0111351  23.6893539  32.4380226  46.4161835
  24.0409241  35.8000755  45.5552254  23.0545864  36.0742950  45.1810074
  24.3636932  36.6913490  46.0933342  25.0611286  35.8643532  44.4452019
  24.8824558  35.1671524  43.6266174  25.1632671  36.8215179  43.9338264
  26.0021667  35.5776253  44.9146118  22.9180946  33.8328247  48.7114830
  23.6080494  33.9624481  49.7489510  22.0615997  32.7659111  48.6371803
  21.4434185  32.8599548  47.8440170  21.7209492  31.7814465  49.6794167
  22.4367905  31.5623226  50.4716644  20.5185375  32.3711586  50.4653893
  19.6093979  32.4070549  49.8651581  20.2230034  31.6057301  51.1829376
  20.6450291  33.7002563  51.2268219  20.9349022  34.4762535  50.5183754
  19.6674042  33.8925743  51.6688232  21.6484852  33.5597878  52.3735237
  21.2383118  32.8001747  53.0389938  22.6160297  33.1976662  52.0259285
  21.7201099  34.8844109  53.0337372  20.9994545  35.5477448  52.7872810
  22.5261650  35.2939453  53.9693108  23.5548191  34.6480637  54.4104652
  24.1868038  35.3119240  54.8347206  23.9204731  33.7842865  54.0359230
  22.3189678  36.5368004  54.3196945  21.7178020  37.1455612  53.7829361
  22.9729900  37.0907249  54.8540382  21.4241428  30.4277973  49.0607758
  21.1926880  30.2462254  47.8796997  21.2686138  29.3974991  49.8962364
  21.2903519  29.7090302  50.8567429  20.8179893  28.0637302  49.4594879
  20.7745514  27.9954529  48.3724976  21.5910053  27.3494587  49.7429695
  19.4688911  27.5519962  49.9388771  18.9642677  27.8042374  51.0355301
  18.8187714  26.7321281  49.1398735  19.1163120  26.7134628  48.1748734
  17.5492382  26.0773582  49.4885712  17.4352570  26.0381737  50.5718842
  16.2121239  26.6089172  48.7938614  16.2586632  26.3624630  47.7331123
  14.9259043  25.9960346  49.2901688  14.0748320  26.4497986  48.7823563
  14.9238691  24.9169788  49.1361008  14.7911463  26.0398502  50.3709183
  16.1851902  28.1208286  49.0052757  16.2507057  28.4090633  50.0544319
  17.0763187  28.5192738  48.5202675  14.9950380  28.7870197  48.2494431
  13.9974976  28.5433140  48.6149864  15.1714125  29.8527679  48.3949661
  15.0896187  28.6443253  47.1729736  17.5859776  24.5760956  49.2441444
  18.0599003  24.1140652  48.1893806  17.0977459  23.7753105  50.1852570
  16.8254642  24.1501064  51.0827484  17.1971207  22.2687397  50.2105446
  17.6356411  21.9562798  49.2628250  18.0507355  21.8190861  51.4118004
  17.5315170  22.0219269  52.3484764  18.1606464  20.7347660  51.3950729
  19.4389210  22.3367195  51.3800049  20.0304890  22.0606689  50.5071144
  19.4519958  23.4266186  51.3875542  20.2527695  21.9516563  52.5904312
  21.1917896  22.5050411  52.5802307  19.7541809  22.3134518  53.4896584
  20.4123402  20.4598637  52.6667747  20.4046440  19.9659920  51.7857933
  20.0756760  19.6259575  53.6002617  20.0121632  19.9333401  54.8285789
  20.4033070  20.7825832  55.2105522  19.6258564  19.1798630  55.3791618
  19.8335876  18.4113655  53.2356491  19.8049316  18.1398430  52.2632523
  19.6113777  17.7159691  53.9336090  15.9140339  21.4728699  50.2867622
  14.8974276  22.0030899  50.5475960  15.9890814  20.1479950  50.1601143
  16.8616142  19.7196960  49.8856201  14.9359426  19.2393265  50.5389252
  14.7607870  19.2746964  51.6141777  13.9609842  19.5684528  50.1794319
  15.3367310  17.7908325  50.1320000  16.3287945  17.4963379  49.5136375
  14.4401274  16.8454914  50.5278206  13.5250149  17.1455860  50.8321419
  14.5633860  15.4077349  50.2427597  15.1381111  15.3156185  49.3211823
  15.3031540  14.7993660  51.4456024  16.2585793  15.3164940  51.5342064
  14.6046591  14.9534712  52.2680740  15.4649353  13.7322664  51.2932091
  13.1936531  14.7861357  50.0964966  12.2096987  15.3066311  50.5657158
  13.1109934  13.5947866  49.5467224  13.9994278  13.3074226  49.1617470
  12.0264320  12.6450644  49.2619972  11.3587379  12.7652092  50.1151390
  11.2983818  13.0186367  47.9782066  10.8829136  14.0235033  48.0538979
  12.0201139  12.7419996  46.6902351  12.5089970  11.7712965  46.6076050
  11.4109230  12.8977690  45.7998848  12.9438066  13.3088923  46.5739212
  10.2963686  12.1048250  47.8551826   9.5972042  12.5158844  47.3415680
  12.5660877  11.2054920  49.1632004  13.7530994  11.0694237  49.0817108
  11.7109537  10.1527920  49.1902695  10.7268171  10.3500071  49.0776596
  12.0913019   8.7466803  49.2075882  13.1408281   8.7079306  48.9158707
  11.9869728   8.1056452  50.5454330  12.2377834   7.0630155  50.3501854
  13.0387115   8.5645418  51.5230026  14.0344076   8.4109859  51.1069489
  12.8260307   9.5979729  51.7966576  13.0464106   7.8419652  52.3390465
  10.7397966   8.1932096  51.1254921  10.1162109   7.7500191  50.5455551
  11.2417688   7.8986878  48.2120667  10.0643015   8.2593250  47.9790344
  11.7258911   6.7813601  47.5910759  12.7066669   6.5648746  47.6974335
  11.0179644   5.9615912  46.6265450  10.0009289   6.3435812  46.5380516
  11.6734476   6.1405034  45.2074661  11.1775331   5.4442754  44.5311241
  11.2773905   7.5321045  44.5990601  10.2483635   7.5062566  44.2405434
  11.2000322   8.2687302  45.3987465  12.0069189   7.8928742  43.8739815
  13.1469641   5.8570304  45.0515099  13.6477242   6.5781965  45.6974678
  13.2727985   4.8847890  45.5279732  13.3933973   5.9387145  43.9928818
  10.8988371   4.4637017  47.0142555  11.8380489   3.8334918  47.5397110
   9.7266788   3.8569889  46.7316437   8.9720964   4.3675127  46.2956734
   9.4298096   2.4851959  47.0354004   9.6848869   2.3777525  48.0896721
   7.9263358   2.2220185  46.8267479   7.6164637   2.5648603  45.8395576
   7.8814106   1.1368095  46.9184151   7.0309119   2.9014912  47.9210320
   6.7165089   3.8795164  47.5567245   6.1487169   2.2759361  48.0570908
   7.6326838   3.0128849  49.3002510   8.2621613   2.0383945  49.8097038
   7.5087152   4.0827808  50.0310059  10.2565260   1.5366440  46.2383270
  10.5791759   0.4644210  46.7531891  10.5464325   1.8824099  44.9713478
  10.1497335   2.7124019  44.5544014  11.4310837   1.1475049  44.0649567
  11.9877415   0.4260028  44.6630096  10.5882578   0.2515442  43.0390472
   9.7777081   0.8510942  42.6247406  11.2092562  -0.1009161  42.2154999
   9.9962702  -1.0252975  43.5240631  10.8032312  -1.6078677  43.9685020
   9.1105146  -0.8281056  44.1279259   9.4467793  -1.8423213  42.3794708
   8.9495707  -1.1838827  41.6671906  10.2576246  -2.4047256  41.9165115
   8.3717356  -2.7522609  42.8770790   8.0278673  -2.5369413  43.8020096
   7.9671359  -3.9505787  42.4046173   8.1551161  -4.3220296  41.1257935
   8.4038601  -3.6796780  40.3871384   7.5983787  -5.1175795  40.8478584
   7.2234459  -4.6814680  43.1691284   7.0556092  -4.3266068  44.0997200
   6.9986830  -5.6439028  42.9610367  12.3481970   2.0533440  43.3101768
  11.9360905   3.2039907  43.1159859  13.4599152   1.4819087  42.8338928
  13.5718393   0.4807815  42.9068146  14.4198246   2.0255129  41.8977203
  14.6914444   3.0430877  42.1785469  15.6707993   1.1035548  41.7958450
  16.1229801   1.2511544  42.7765808  15.2088194   0.1416616  41.5734978
  16.6649647   1.7620969  40.8514366  16.7187347   2.9970779  40.6806946
  17.5679607   1.0804108  40.2883224  13.8201160   2.0678327  40.4323540
  14.1337299   1.2178255  39.6261749  12.9986324   3.0248179  40.0680466
  12.5785265   3.7149112  40.6741676  12.3439054   3.1029055  38.7784195
  12.9863224   2.7126777  37.9890366  11.0992212   2.1475754  38.7696877
  11.5829639   1.1926881  38.9753265  10.0484257   2.4705436  39.8383942
   9.3623180   1.6243174  39.8738174  10.5041208   2.4920261  40.8283310
   9.4175625   3.3352578  39.6325378  10.4746799   2.2064922  37.5109291
  11.0939741   1.9771583  36.8141632  11.9925137   4.4486399  38.3144417
  11.4736223   5.1802011  39.1441460  12.0412893   4.7859964  37.0017281
  12.4208040   4.1457090  36.3190117  11.4576626   6.0020275  36.3502998
  11.9880428   6.8802419  36.7184525  11.7266788   5.9829249  34.8199425
  11.4173031   6.9680338  34.4707336  12.7723017   5.7896419  34.5803299
  10.8513975   5.1538715  33.8626442   9.8123341   5.3534956  34.1245537
  11.0265799   5.5156150  32.8494492  11.0439777   3.6922729  34.0894775
  10.2486038   2.8918538  33.6517372  12.1156025   3.3094938  34.6249619
   9.9586134   6.1869798  36.5511055   9.4807806   7.2896395  36.3953705
   9.1808233   5.1341081  36.8633232   9.6168165   4.2250724  36.9238586
   7.7783732   5.2234144  37.0885353   7.4723301   6.0764914  36.4829712
   7.0865521   3.9361365  36.5632210   7.5333076   3.7694976  35.5830460
   7.2634721   3.1389778  37.2852592   5.5993471   3.9947886  36.5405655
   5.1359353   3.4600561  37.3696671   5.1174440   4.9684963  36.6286926
   5.0260844   3.3836315  35.2623901   4.2919693   2.3275018  35.3281136
   5.1778064   4.0541482  34.2101288   7.4781470   5.6713595  38.5629425
   6.3211441   6.0600471  38.8520088   8.4973164   5.7311091  39.4542847
   9.4362097   5.4785752  39.1807785   8.2934675   6.2696104  40.8424187
   7.3033309   6.7216616  40.9005432   8.5664635   5.2750669  41.9192924
   9.5333042   4.8132014  41.7192917   8.4730644   5.8783278  42.8223152
   7.6069274   4.0858274  41.9358253   7.6693821   3.5671530  40.9791756
   7.8925681   3.3173521  42.6541252   6.1196651   4.4045553  42.1656494
   5.2854719   3.5115726  41.9376984   5.8236780   5.4905744  42.6860123
   9.0747309   7.5521774  41.0862541   8.6743822   8.4959679  41.7015533
  10.3431282   7.5229921  40.5887566  10.7515011   6.6276994  40.3611984
  11.3526611   8.5746174  40.8841133  11.3530874   8.5884247  41.9740257
  12.7143917   8.0656099  40.3905220  12.6636086   7.6214356  39.3964233
  13.7741547   9.2589817  40.3511353  14.4996691   9.1879749  41.1614990
  14.4239216   9.1720514  39.4803047  13.4030132  10.2830639  40.3913040
  13.2627316   6.9799399  41.3422623  13.6584911   7.5102901  42.2084045
  12.4622564   6.3134580  41.6634140  14.3991241   6.1809893  40.7443237
  14.6720495   5.4248977  41.4804878  13.9866962   5.6947193  39.8602715
  15.2186995   6.8113136  40.3992348  10.9572906   9.9738455  40.3568077
  11.0451374  10.9752197  41.0675011  10.7204943  10.0299597  39.0676193
  10.8311119   9.1956072  38.5093002  10.6771069  11.3187847  38.3306274
  11.5581818  11.8751392  38.6504364  10.7069817  10.9979877  36.8150711
   9.9600086  10.2073135  36.7445793  10.4727182  11.8096256  36.1262589
  11.9941311  10.2713070  36.3599625  12.1617441   9.4351931  37.0388832
  11.6854181   9.7380257  34.9338684  12.4718904   9.1784191  34.4274979
  10.9659100   8.9564590  35.1779251  11.2227631  10.4659081  34.2673569
  13.1895475  11.2091036  36.3287773  13.1040640  11.9448252  35.5290833
  13.3969507  11.7291508  37.2639961  14.1647854  10.7455921  36.1798859
   9.4856253  12.1639662  38.8006783   9.6254454  13.3269711  38.9826088
   8.3462057  11.5869293  39.1140709   8.2616930  10.6202898  38.8337746
   7.1893997  12.2158518  39.7651367   6.8357811  12.9314318  39.0228462
   6.1027679  11.0805330  39.9163818   5.8708739  10.6877251  38.9264183
   6.4368935  10.2805338  40.5770340   4.8206606  11.5989723  40.5705757
   4.2238107  10.6875563  40.6050835   4.9797144  11.7358751  41.6401825
   4.1222749  12.7321615  39.7935371   4.5505629  13.8676348  39.7717018
   2.9950061  12.4375505  39.2123260   2.6830254  11.4870081  39.0736198
   2.4474492  13.2246790  38.8949814   7.4744744  12.9040813  41.0642204
   7.3922162  14.1291170  41.1714363   7.9757757  12.1151009  42.0156021
   8.1775217  11.1879940  41.6693764   8.3285284  12.5028563  43.3362389
   7.4786987  13.0155478  43.7868347   8.8040762  11.1958961  44.1103706
   9.1861668  10.4093266  43.4596634   9.4732380  11.5681973  44.8860703
   7.6205406  10.5182714  44.8478661   7.2481480  11.2617121  45.5526505
   6.8494544  10.2517586  44.1250267   7.9740968   9.1991892  45.5452347
   8.1447468   8.4531727  44.7690697   8.9201870   9.3424854  46.0672302
   6.9475226   8.6841211  46.4997787   6.6821966   9.5069284  47.1636276
   6.0876431   8.4139776  45.8868103   7.4218459   7.4845490  47.2213898
   7.3361039   6.7201295  46.5668564   8.3677568   7.6832347  47.5144463
   6.8096895   7.3271127  48.0091553   9.4636154  13.5626211  43.2867622
   9.3500204  14.7155981  43.8453064  10.5123825  13.3845024  42.4984055
  10.5502911  12.4826899  42.0451927  11.6836090  14.2899866  42.2469559
  12.0310068  14.5500689  43.2468414  12.8554268  13.4787626  41.5607033
  12.5148611  13.2020168  40.5629425  14.0541553  14.3410110  41.3795509
  14.2757082  14.7178402  42.3780632  14.8352928  13.6976595  40.9745522
  13.8145876  15.2010336  40.7541962  13.2136059  12.3419523  42.3034935
  12.5846958  11.6677742  42.0359955  11.2149544  15.5757656  41.6088028
  11.7585754  16.5667381  42.0426712  10.2102537  15.6134033  40.6892090
   9.7897005  14.7413130  40.4016457   9.7121964  16.9343987  40.2208595
  10.5507221  17.6273117  40.1512375   9.1354990  16.8474979  38.7400208
   9.2253933  17.7914715  38.2024956   9.6115627  16.1390934  38.0620613
   7.6180329  16.5741863  38.6774635   7.3632240  15.7770195  39.3758202
   7.2112737  17.5501842  38.9421768   7.0860376  16.1052761  37.2868729
   7.5996399  16.6431618  36.4900055   7.2668381  15.0341711  37.1966248
   5.6295452  16.3906822  37.2577286   5.1943579  15.8265276  38.0826187
   5.5341935  17.4379005  37.5446892   5.0629067  16.0942650  35.9386864
   4.0567760  16.1313457  36.0188408   5.2879596  16.8311691  35.2856712
   5.3780842  15.2080708  35.5706825   8.7704878  17.5677681  41.1894989
   8.7695684  18.7664986  41.3343697   7.9122438  16.7693310  41.8225670
   7.9295812  15.7692862  41.6821747   6.9284153  17.1842003  42.8489418
   6.1690006  17.8595715  42.4549065   6.3127513  15.9208937  43.2756920
   5.7220697  15.5446291  42.4404526   7.1620240  15.3262587  43.6122093
   5.3480315  15.9882078  44.4528122   5.7112088  16.5408745  45.3192787
   4.4455657  16.5211658  44.1534462   4.9944386  14.5131521  44.8739433
   5.7247977  13.8873968  45.6237030   3.8354738  13.9456377  44.5812263
   3.2181253  14.3950529  43.9201622   3.6354086  12.9817104  44.8068810
   7.6167750  17.8855152  44.0256424   7.1787257  18.9001522  44.5808601
   8.7572203  17.3656902  44.5251122   9.1356544  16.4669952  44.2619858
   9.6172419  17.9932365  45.6058655   9.0845423  18.0736561  46.5534210
  10.8357658  17.0687962  45.8280563  10.5489273  16.0858250  46.2016754
  11.2771721  16.8312740  44.8601456  11.9801102  17.6449966  46.7182503
  12.2705612  18.6080284  46.2983551  11.4725285  17.8993950  48.0814590
  10.6836300  18.6485958  48.0148544  11.2858620  16.9397011  48.5633774
  12.3195314  18.3705883  48.5801201  13.1558504  16.6567593  46.6872902
  12.7537413  15.6532812  46.8267250  13.6639414  16.6607037  45.7229614
  14.0063190  16.9225674  47.3151016  10.0353327  19.4286766  45.0684891
   9.9367552  20.3855152  45.8428459  10.6473713  19.6546993  43.8694878
  10.7314787  18.8452015  43.2713737  11.0064049  21.0060558  43.3328400
  11.7186060  21.5026836  43.9918022  11.5711956  20.8510799  41.9486923
  11.0820341  20.0484161  41.3968315  11.3109102  21.7339325  41.3648033
  13.0804625  20.6959915  41.7836800  13.5958319  21.4580650  42.3682632
  13.4944000  19.2849064  42.3425751  13.2431087  19.2397442  43.4022522
  12.9739542  18.4861240  41.8142014  14.5705795  19.1165066  42.3029289
  13.4640102  20.7402439  40.3543892  13.3018141  21.7105007  39.8849182
  14.5145493  20.5034351  40.1858978  12.8623314  19.9530411  39.9000854
   9.7324905  21.8970394  43.3816986   9.7444296  22.9704742  43.9277992
   8.5924015  21.3853340  42.8821793   8.6774559  20.4973392  42.4085426
   7.2198281  22.0405350  43.0427132   7.2531791  22.9952965  42.5179062
   6.1307230  21.1551285  42.3093224   6.4726582  20.7562237  41.3543053
   5.7605844  20.3431778  42.9352875   4.9008470  21.9822006  42.0256844
   4.5538545  22.3901100  42.9750595   5.1409650  22.8848782  41.4638863
   3.7817240  21.1859818  41.3428078   3.6237986  21.1199436  40.0887909
   3.0480313  20.4397087  42.0660629   6.8540831  22.3689346  44.4736710
   6.3183250  23.4608936  44.7851677   7.0114050  21.4831638  45.4739914
   7.3654737  20.5743694  45.2116394   6.7543030  21.7048931  46.9446793
   5.8291106  22.2723732  47.0451241   6.6914988  20.4326801  47.7888069
   7.6943245  20.0319824  47.6408730   6.4814363  20.7422276  48.8125992
   5.6194124  19.3599644  47.3911934   6.0247846  18.6533775  46.6669617
   5.5790114  18.8572884  48.3575172   4.2406359  19.8206177  47.0109749
   3.6160452  19.0482311  47.4597588   4.1067219  20.8291550  47.4021492
   4.1276517  19.7613773  45.4672470   4.8876638  20.3392315  44.9413490
   4.1918430  18.7048111  45.2071533   2.8678124  20.3449268  44.9658089
   2.6988556  20.0180130  44.0252342   2.0407743  19.9929523  45.4264908
   2.7891195  21.3466167  44.8632164   7.7388444  22.7564793  47.5197945
   7.2547255  23.5216694  48.3572350   9.0365009  22.7858582  47.1112328
   9.3080311  22.1378651  46.3856468   9.9735451  23.8438263  47.4873848
  10.0344448  23.9148998  48.5733604  11.3738842  23.5463219  46.9097137
  11.3464460  23.2526112  45.8603897  12.3340731  24.7680359  47.0732307
  13.3205462  24.4563313  46.7299919  12.0552540  25.6767216  46.5397034
  12.4117098  25.0205326  48.1307373  11.9541616  22.3072224  47.6575851
  12.1089935  22.6770439  48.6711731  11.2940197  21.4441528  47.7437439
  13.3282061  21.7841511  47.1952133  14.0750751  22.5778790  47.1782761
  13.7498884  20.9885883  47.8095131  13.2541914  21.3264256  46.2087479
   9.5208359  25.1992302  46.9703903   9.5523300  26.1732731  47.6947212
   9.0809841  25.2181873  45.6865273   8.9484358  24.3251972  45.2336464
   8.6572580  26.4497108  45.0857620   9.4798155  27.1488285  45.2365417
   8.3581486  26.1633720  43.5976257   7.7673569  25.2529926  43.4962234
   7.4633508  27.3547726  43.0158463   7.8856521  28.2981529  43.3619614
   7.3753843  27.3174667  41.9300423   6.4063540  27.2235756  43.2474594
   9.6532736  25.9812775  42.8191452   9.9598560  26.9975433  42.5715332
  10.4384003  25.5289860  43.4250412   9.3649035  25.1701641  41.5622482
   8.6794720  24.3270569  41.6485672   8.8572607  25.6909828  40.7503700
  10.2823448  24.6925507  41.2183228   7.4595218  27.0638924  45.8723831
   7.5067134  28.2998314  46.1687775   6.5078521  26.2483215  46.3481255
   6.5522313  25.2412338  46.2856407   5.3524103  26.7192230  47.0819244
   4.7685285  27.3550625  46.4164238   4.5772352  25.5287304  47.6047401
   4.4167271  24.8324051  46.7816544   5.2258868  25.0655899  48.3482819
   3.2740023  25.9260063  48.3479195   2.6886730  25.0272198  48.5420113
   3.5303099  26.3366928  49.3245201   2.4562285  27.0522232  47.5727882
   1.9515266  27.9897938  48.2947655   2.3342235  27.0435257  46.3393021
   5.8165784  27.6987953  48.2774620   5.1358361  28.6926060  48.5518990
   6.9328852  27.4340611  48.9804039   7.6195316  26.8333282  48.5471191
   7.2246027  28.0734406  50.2236900   6.2750354  28.4440784  50.6097717
   7.7826581  27.0053959  51.1999893   8.5745144  26.4302750  50.7200928
   8.1829739  27.5169048  52.0753212   6.6799059  26.0424576  51.6373138
   6.0641603  25.7796402  50.7771454   7.2209382  25.2159958  52.0981178
   5.8277249  26.6377850  52.7130356   5.6344719  25.9460678  53.7137833
   5.3506088  27.8012695  52.6385727   8.1856213  29.1921139  50.0557060
   8.3556986  29.9831161  50.9747543   8.8815985  29.2415466  48.9155807
   8.6346006  28.5351219  48.2373047  10.0410490  30.0891781  48.6932983
  10.1291046  30.7738209  49.5368690  11.2730436  29.1856365  48.6187973
  10.9714165  28.4278717  47.8956680  12.1782970  29.7140865  48.3198738
  11.4588861  28.3788586  49.9652672  11.7713604  28.9955482  51.0154610
  11.2222996  27.0640583  49.8696899  11.5540781  26.5614033  50.6804695
  11.0495987  26.6962090  48.9450493   9.8440552  31.0175591  47.5003891
  10.5084782  32.0352859  47.2180443   8.8324041  30.6943226  46.7006645
   8.3856688  29.8257217  46.9577026   8.2703180  31.3547230  45.5082054
   7.6027613  30.6137447  45.0684013   7.4795308  32.6127129  45.9574394
   8.1766977  33.3144798  46.4152374   6.9936423  33.0714836  45.0963135
   6.4960899  32.2947693  47.0239220   5.4395399  31.4546204  46.8440170
   5.1965780  30.9908314  45.9803238   4.7232666  31.4425030  48.0063553
   3.8172624  30.9082890  48.2516518   5.3626785  32.2603569  48.8882370
   4.9815521  32.6309547  49.7470131   6.4831395  32.7321243  48.3287506
   7.1955910  33.3464622  48.8592262   9.3302002  31.5997944  44.4811249
   9.5080814  32.6699715  43.9750938  10.1970863  30.6714783  44.4485245
   9.9295835  29.8460217  44.9654045  11.3779373  30.5903053  43.5778961
  11.9706964  31.4910908  43.7370338  12.1748362  29.3016090  43.8975067
  11.7035398  28.4176922  43.4677734  13.6510925  29.3095093  43.4890251
  14.2080402  28.5665264  44.0598907  13.7219706  29.1270847  42.4167366
  14.1241856  30.2564316  43.7490768  12.2101278  29.1302261  45.2954979
  12.9389553  29.6171837  45.6870117  11.1470470  30.6562843  42.1114502
  10.1744061  30.0107708  41.6851883  11.9482403  31.3621712  41.3323669
  12.7431192  31.8193645  41.7557373  11.8925428  31.3943462  39.8959045
  11.1459999  30.6540775  39.6081963  11.4857712  32.7579079  39.3321953
  12.0377665  33.5958710  39.7578888  11.6094618  32.9457626  38.2656555
   9.9810696  33.0525665  39.6774521   9.3509932  32.2294579  39.3404160
   9.9683857  33.0102997  40.7665558   9.5122986  34.3909111  39.1714478
  10.1637154  35.1220512  39.6501808   9.6854153  34.2569008  38.1036530
   8.0026608  34.5878067  39.5414162   7.3883729  33.9098015  38.9489136
   7.7830005  34.3542900  40.5832062   7.5464191  35.9799652  39.3912849
   8.3693876  36.5595779  39.3083458   6.9802670  36.1549721  38.5733948
   7.0465274  36.2743378  40.2180557  13.2144260  30.8367538  39.2524872
  14.2218828  31.1242313  39.8880997  13.2285929  30.0576763  38.1188583
  12.0784101  29.6141777  37.3649979  11.4306803  30.4523849  37.1082001
  11.4267111  28.9821510  37.9682655  12.7168913  28.7952156  36.2162514
  12.8537817  29.4852695  35.3836708  12.0334253  28.0665417  35.7803459
  14.0129004  28.3645725  36.6238213  14.6370354  28.4554214  35.7348289
  14.0185928  27.3555851  37.0361443  14.4399176  29.3164921  37.7554779
  14.8166084  28.6667576  38.5454445  15.6607332  30.1435947  37.2784843
  16.8527603  29.7563400  37.4228821  15.4367380  31.4311790  36.9318199
  14.5169630  31.8463383  36.8898964  16.5079117  32.3964844  36.4750214
  17.1520004  31.7817993  35.8461990  15.8595867  33.4545822  35.5018730
  15.1289768  33.9468918  36.1437035  16.6926937  34.1061096  35.2381554
  15.3132000  32.7577362  34.3142815  16.1731911  32.2834854  33.8414154
  14.6300421  32.0041618  34.7061043  14.4847946  33.6856728  33.3872070
  13.4739981  33.0937119  32.8522606  14.8135557  34.9033012  33.1723824
  17.1993141  33.0286484  37.6922455  18.2839718  33.5936584  37.4696350
  16.7574673  32.9254036  38.9489441  15.8780632  32.4337044  39.0195045
  17.4597607  33.3753548  40.1719551  18.1255302  34.1996384  39.9161911
  16.4589977  33.8215904  41.2052803  15.7827177  33.0165596  41.4928093
  17.0216675  33.9644432  42.1278305  15.7080641  35.1225319  40.8359451
  14.6328497  35.3247719  41.3893204  16.2157574  35.9334259  40.0128784
  18.2807140  32.2133904  40.8143005  19.1908932  32.4906311  41.6130333
  17.9106445  30.9937229  40.4408646  17.2808647  30.9175625  39.6549377
  18.7651196  29.8494625  40.7899895  18.9039135  29.9439697  41.8669777
  18.1025238  28.5174580  40.4449921  17.8812332  28.4603271  39.3792191
  18.9463940  27.3026142  40.8073807  18.2965145  26.4324379  40.7149162
  19.8218727  27.1918983  40.1675568  19.1875229  27.3601131  41.8688202
  16.7123756  28.4282150  41.2295876  16.2245941  27.4851093  40.9831467
  16.8216190  28.4533710  42.3138084  15.9890194  29.1758919  40.9042664
  20.0362759  30.0830173  40.0926857  20.0991631  30.1994209  38.8426476
  21.1024647  30.1185169  40.8598251  20.9320793  30.0048637  41.8488388
  22.4661064  30.2713585  40.3475761  22.5480537  31.1253681  39.6752281
  23.4351845  30.5956326  41.5116844  23.5465984  29.7929039  42.2405968
  24.8568707  30.8970413  41.0382271  25.1554050  30.1167240  40.3381653
  25.0324001  31.8560276  40.5507507  25.5733509  30.8416138  41.8577957
  23.0306225  31.8364182  42.2901421  21.9805317  31.6802769  42.5371933
  23.6264687  31.9345512  43.1975784  22.9753380  32.7535324  41.7036781
  23.0274353  29.0023174  39.6546898  23.6631584  29.0619106  38.5930519
  22.8246994  27.8717289  40.3666611  22.2852783  27.9758339  41.2141800
  23.0826111  26.5196571  39.9430008  22.6175919  26.3863201  38.9662323
  24.6379585  26.4066029  39.9996834  25.1124439  27.2466335  39.4924202
  24.9347076  26.5706730  41.0355988  25.2416992  25.0695763  39.4583740
  24.7321358  24.6541958  38.5889473  26.2647858  25.2786751  39.1458511
  25.4460716  24.0467987  40.5637856  25.4144115  24.3576698  41.7793083
  25.5360413  22.7634106  40.3843956  25.6699219  22.1719170  41.1920509
  25.4779015  22.3748550  39.4539413  22.3452492  25.6039009  40.9668770
  21.9336853  26.0649757  42.0450134  22.1552963  24.3092251  40.6073723
  22.7572842  24.0307178  39.8457031  21.4278526  23.3338375  41.3777771
  21.3935699  23.6370277  42.4242020  19.9578190  23.2801285  40.8121414
  19.4683342  24.2475567  40.9243317  19.9120655  22.8891487  39.7957039
  19.0839462  22.2882080  41.5019722  19.3273792  21.2682610  41.2043953
  19.2865524  22.3858509  42.5685196  17.3028812  22.6053429  41.2447472
  17.3834095  22.4856873  39.4105530  17.7440090  23.3926315  38.9252434
  18.0794792  21.6880207  39.1510963  16.4231644  22.2527161  38.9503860
  22.2232208  21.9775276  41.4263458  22.9120235  21.5125389  40.5328102
  22.0437336  21.1426315  42.5114822  21.4898357  21.4814301  43.2851181
  22.5465069  19.7772617  42.7047386  22.8852615  19.3806362  41.7476425
  23.7395954  19.8051586  43.7084122  23.5583000  20.5518856  44.4814796
  23.8123379  18.7780781  44.0660744  25.0272160  20.2716923  42.9585381
  24.9149113  21.2755623  42.5489883  26.2513008  20.1477737  43.9388542
  27.0693054  20.7980518  43.6288414  26.1080856  20.5340500  44.9480019
  26.5357437  19.0965443  43.9847565  25.4619656  19.4360275  41.7773819
  25.4354973  18.4234257  42.1799202  24.9417629  19.6042633  40.8344116
  26.5300369  19.5547485  41.5950966  21.3746052  18.8108768  43.0062447
  20.3319263  19.1429806  43.6184425  21.4689579  17.5479679  42.5718040
  22.3829498  17.3801899  42.1761169  20.5302849  16.4546490  43.0637932
  19.9236069  16.8347931  43.8857040  19.6274529  16.0360031  41.9201393
  20.3347683  15.5349569  41.2592583  19.0149384  15.1709585  42.1743507
  18.8186779  17.1867542  41.2324677  19.3972969  18.0757885  40.9816322
  18.3234863  16.4898205  39.9926567  19.1031380  16.2003288  39.2880783
  17.7211151  15.6198282  40.2541161  17.7294769  17.1795826  39.3930893
  17.6110840  17.7143135  42.0747147  17.0707092  16.8530159  42.4674759
  18.0303917  18.3432579  42.8600235  16.9751816  18.3930359  41.5063286
  21.4521561  15.3471556  43.6800880  22.5648365  15.1933374  43.2061539
  20.8929234  14.4942989  44.5993500  19.9418259  14.5603905  44.9327393
  21.5311165  13.3548832  45.2096596  22.5562286  13.2087507  44.8692322
  21.6973953  13.5962982  46.7292175  22.0721169  14.5747566  47.0297241
  20.7059879  13.5798178  47.1819267  22.5617962  12.6612387  47.2956238
  21.9609489  12.0846720  47.7732773  20.7411461  12.0565643  45.0145798
  19.5115776  12.0698118  44.8950729  21.4747734  10.9596195  45.1550522
  22.4581127  11.0974636  45.3398285  20.9052372   9.5813742  45.1841049
  19.8630466   9.6431894  45.4973412  20.9087200   9.0014296  43.7244682
  21.9755135   8.9212208  43.5156174  20.5258503   7.9809089  43.7319794
  20.4292641   9.6713877  43.0107613  21.6099968   8.6540422  46.1438141
  22.8783417   8.7082767  46.2346954  20.9305325   7.8599625  46.9702339
  19.9259987   7.9408584  47.0370750  21.6216106   6.8853955  47.8733025
  22.4239864   7.3246441  48.4660530  20.6083965   6.2128158  48.8698540
  21.0710278   5.2608085  49.1301537  20.3579826   7.1311760  50.0816650
  20.2766495   8.1750917  49.7788124  19.5223293   6.7260032  50.6522942
  21.2582264   6.9936762  50.6806259  19.3627186   5.8807340  48.3105888
  19.4412823   4.9806857  47.9860191  22.2622585   5.7410483  47.0500908
  21.9198627   5.6899638  45.8995476  23.1918774   4.9606662  47.6318092
  23.6695786   4.9582787  49.0033455  23.0059280   4.3619084  49.6294556
  23.8299217   5.9686136  49.3796616  25.0804138   4.4628344  48.9804344
  25.3553085   3.8997164  49.8723030  25.7817822   5.2970066  48.9617767
  25.1616135   3.6462822  47.6968536  24.9593887   2.6305442  48.0366821
  26.1471443   3.8366294  47.2718887  24.0155220   4.0346651  46.8072052
  24.4810467   4.6335773  46.0244560  23.2469959   2.8665166  46.1784668
  23.7789764   2.0797021  45.4158211  21.9712887   2.6778598  46.4758835
  21.5368938   3.4357889  46.9827805  21.0872478   1.5678008  45.9973030
  21.7544231   0.7147504  45.8736839  20.1201077   1.2836246  47.2184792
  19.3264980   0.6020706  46.9122658  20.7338734   0.7736063  47.9609604
  19.6078777   2.4744954  48.0652466  19.4365273   3.5107093  47.4778671
  19.2305698   2.3457508  49.2547874  20.3371620   1.8358325  44.6377525
  20.0299301   0.8604025  43.9647980  20.0040417   3.0839965  44.3351097
  20.3948059   3.7651832  44.9702415  19.1241531   3.5832422  43.2575645
  18.3226757   2.8977613  42.9821396  18.6009369   4.9916320  43.5846024
  19.5305176   5.4990392  43.8425179  18.1930218   5.3995852  42.6597900
  17.5338707   5.0704298  44.7971687  18.0130997   4.6234641  45.6681824
  17.3365059   6.5504675  45.0890808  16.7987652   7.0051746  44.2571068
  16.7929459   6.7568650  46.0110550  18.2944221   7.0629077  45.1779938
  16.2227650   4.3372293  44.3730278  15.4862547   4.8044538  45.0267487
  16.0332546   4.5842514  43.3284378  16.3515224   3.2618432  44.4957733
  19.9595852   3.7175276  41.9945145  20.9283123   4.4697299  41.9790688
  19.5985317   3.0714054  40.8465004  18.7171783   2.5833247  40.9178848
  20.4661350   2.8776755  39.6164856  21.1301556   3.7415943  39.5878105
  21.1315460   1.5522069  39.6336708  20.3852501   0.7977412  39.8825188
  21.6468086   1.4074494  38.6841202  22.1000500   1.4234117  40.7502327
  22.9825916   2.4405324  41.1516533  23.2486229   3.2753494  40.6492500
  23.6372128   2.0198965  42.2489433  24.4711704   2.5419226  42.6943665
  23.0154591   0.9279811  42.7325668  23.3579960   0.4410456  43.5484467
  22.1461544   0.4931746  41.7541618  21.6006927  -0.4319085  41.8686142
  19.6863804   3.0041053  38.2792740  20.2636776   3.0442512  37.1862946
  18.3959274   2.9792230  38.3342018  17.9308853   2.8100259  39.2146606
  17.6294231   2.7992129  37.0749512  18.0332642   1.8917049  36.6261253
  16.1761112   2.3843560  37.3034706  16.2019596   1.2955437  37.3473587
  15.8461771   2.7533071  38.2746124  15.5596409   2.7650852  36.4891548
  17.5707836   3.9277220  36.0520744  17.2129116   3.7415657  34.8857193
  17.7306747   5.1927071  36.4197617  18.1351795   5.4934359  37.2949982
  17.3923588   6.3727937  35.5811996  17.6242161   6.0952330  34.5529442
  15.8955364   6.7672110  35.6644783  15.3676672   5.8232994  35.5285187
  15.4920597   7.4792409  37.0022736  16.0182133   8.4285011  37.1030884
  14.4109955   7.6182632  37.0108566  15.8602438   6.9566321  37.8851242
  15.3603029   7.5722146  34.4731827  15.2673140   8.6352825  34.6952934
  16.0325394   7.4406271  33.6253128  14.3300934   7.3069925  34.2356262
  18.3098030   7.5510163  35.9291687  18.9190960   7.5206838  37.0055428
  18.3714314   8.6307325  35.0844002  18.0138588   8.5097342  34.1475906
  18.9395714   9.9493608  35.3947868  19.7883892  10.0486298  36.0713654
  19.4127235  10.5609531  34.1172447  18.5209732  10.8026266  33.5389099
  19.9147911  11.5110655  34.2997704  20.4344730   9.8149643  33.3459167
  21.5494747   9.1690578  33.9610252  21.7025757   9.1972637  35.0297470
  22.5098343   8.5116711  33.1500587  23.3282490   8.0481634  33.6808662
  22.3966351   8.5909128  31.7658825  23.1829472   8.2695999  31.0988903
  21.2677689   9.1280861  31.1801338  21.1160755   9.0532312  30.1134624
  20.2486439   9.7246609  31.9964390  19.3218613  10.0984402  31.5868511
  17.7948380  10.8504782  35.9760857  16.8546696  11.2159748  35.3462753
  17.7824650  11.1339407  37.3047867  18.7149048  10.6344070  38.3548584
  19.5950737  11.2698717  38.4527779  19.0180378   9.6165485  38.1095543
  17.8647804  10.5369978  39.5842094  18.5504932  10.5611715  40.4311562
  17.1776390   9.7110062  39.4007034  17.0754585  11.8753004  39.4112320
  17.6898346  12.7323170  39.6872139  16.1917744  11.9284735  40.0471382
  16.7235699  11.9328413  37.9349403  15.7342386  11.5114403  37.7567749
  16.7519302  13.4411688  37.4945183  15.6830664  14.1484432  37.5254707
  17.9306755  13.9189110  36.9901161  18.6882648  13.2554502  37.0674362
  18.1225700  15.2276688  36.3803749  18.0098133  16.0085659  37.1324348
  19.5180531  15.3620100  35.7116928  20.2985439  15.2327147  36.4615059
  19.7405930  14.4966326  35.0874329  19.6813374  16.3195934  35.2172470
  17.0350189  15.4739027  35.3184052  16.5366249  16.6257267  35.1451569
  16.4865627  14.4430466  34.6737251  16.7262592  13.4961977  34.9308624
  15.2973375  14.5447788  33.7256966  15.5733776  15.2644320  32.9549751
  15.0351868  13.2216930  33.0643234  15.9507208  12.8341007  32.6174774
  14.6977148  12.5144815  33.8219948  13.9837627  13.3072519  31.9720821
  13.1505232  13.8109484  32.4620819  14.2340479  13.9686193  31.1425934
  13.5393057  12.0152378  31.3939171  14.3842621  11.5934019  30.8496704
  13.2971821  11.3461399  32.2196198  12.2293129  12.1625128  30.5087204
  11.5992298  11.3407764  30.8490791  11.5954418  13.0034981  30.7898846
  12.5763130  12.1921034  29.0541840  13.1725454  11.3800449  28.9822884
  11.7723312  12.0408983  28.4618530  13.0531311  13.0343027  28.7653160
  14.0951033  15.1496572  34.4367790  13.3696337  15.9125137  33.7714386
  13.7997189  14.9591894  35.6844559  14.3897753  14.3511782  36.2342339
  12.7170143  15.5477476  36.4886665  11.8514757  15.3737583  35.8493919
  12.4789171  14.6927366  37.7281761  13.2663155  14.7022457  38.4818420
  11.5840521  15.0047770  38.2666473  12.2446184  13.6742029  37.4186745
  12.7257767  17.1510715  36.6041794  11.7083197  17.7975616  36.8028069
  13.8647432  17.7509041  36.2511559  14.6782141  17.1580563  36.1681137
  13.9677563  19.2458668  36.0622711  13.3228683  19.7401562  36.7888374
  15.4593887  19.5465450  36.3069077  15.9653482  19.0085506  35.5052338
  15.6346321  21.0957985  36.2017860  15.4997158  21.5315018  35.2118034
  14.9012365  21.5007248  36.8991127  16.6811714  21.3136902  36.4148216
  15.9307871  19.2175465  37.7092628  15.2544670  19.6275463  38.4593239
  16.0169582  18.1323700  37.7646408  16.9292679  19.6215210  37.8764038
  13.5194426  19.6745949  34.6466141  13.2666578  20.8306179  34.3469467
  13.4549932  18.7150536  33.6787987  13.6699362  17.7553196  33.9086075
  13.0185585  18.9493752  32.2779045  13.1971331  20.0054874  32.0758095
  13.8944674  18.0330753  31.3424835  13.6126614  16.9924221  31.5028763
  13.6282091  18.2684937  30.3120518  15.4224367  18.3093586  31.5369930
  15.7041559  19.3587704  31.4505672  15.6495075  17.9306221  32.5335350
  16.2101727  17.5388737  30.3886795  15.8320875  16.5190964  30.3165226
  15.9240646  17.9180202  29.4076138  17.6484814  17.6699352  30.5237007
  17.9825172  18.1832542  31.3268375  18.5800133  16.9873562  29.9181404
  18.4509964  15.9556694  29.1413784  17.6391220  15.5597153  28.6895161
  19.3190136  15.5944920  28.7723255  19.7705574  17.4444485  30.1297226
  20.5718975  16.9980412  29.7070160  19.9746475  18.2987461  30.6283436
  11.5423508  18.6753864  32.1682587  10.8715620  19.1617317  31.2235489
  11.0185175  17.9117756  33.1530571  11.6028013  17.4572601  33.8401756
   9.5932341  17.7507591  33.2992172   9.1295481  17.5507946  32.3332443
   9.3258076  16.4789543  34.1012917   9.8079376  16.7299557  35.0460930
   8.2651472  16.3933678  34.3374557   9.9034843  15.1252003  33.6360779
  10.9276171  15.1428823  33.2633324   9.8123016  14.4248524  34.4663200
   9.0309019  14.7755938  32.3913765   8.0671129  14.0078058  32.5851021
   9.2562218  15.2622089  31.2858334   8.7390890  19.0282326  33.8655167
   7.5190101  18.9911728  33.9597435   9.5352926  20.0360012  34.2776337
  10.5365105  20.0344429  34.1447449   8.9237137  21.3468266  34.6978149
   7.8417425  21.2567673  34.7944183   9.5149698  21.6784344  36.1249504
  10.5864782  21.7230453  35.9300613   9.2271690  22.6003857  36.6301994
   9.2536030  20.5751743  37.2159576   9.4296207  19.6323948  36.6979904
   9.9677486  20.8682671  38.5242119   9.7525167  21.8927841  38.8277435
   9.7145586  20.1565609  39.3100052  11.0348778  20.7886829  38.3168449
   7.8077011  20.4732418  37.5697975   7.2634845  19.7316532  36.9850159
   7.7103500  20.1653137  38.6108589   7.3073921  21.4395523  37.5062943
   9.3325958  22.3955803  33.6720009  10.3786297  22.2849960  33.1399689
   8.5194616  23.4808674  33.5763893   7.7331338  23.5031033  34.2098694
   8.6008520  24.4352264  32.4919128   8.9523468  23.9213390  31.5972233
   7.3311558  25.1976948  32.2619591   6.5147657  24.4829292  32.1584282
   7.0293107  25.8196392  33.1046791   7.4471211  25.9628773  31.0531425
   7.1073642  25.3500519  30.3969326   9.6662893  25.4815464  32.7511559
   9.6200590  26.1249828  33.8272629  10.7009859  25.5930367  31.8874226
  10.7332630  25.0491219  31.0370007  11.7722540  26.6182728  31.9141369
  12.3318491  26.5791950  30.9795647  11.3452120  27.5861912  32.1765671
  12.8616352  26.3904037  33.0075607  14.0090847  26.5952549  32.7657318
  12.5250254  25.7143917  34.1057816  11.5477428  25.4989433  34.2421646
  13.4254417  24.9739037  35.0826340  13.9743700  25.6714592  35.7152405
  12.4943380  24.1204491  36.0381966  11.6135082  23.9008198  35.4348679
  12.9596233  23.2192974  36.4376106  12.0094147  24.9908199  37.2238579
  10.8405066  25.6885166  37.2955589  10.0907812  25.8046169  36.5269051
  10.7542324  26.3031750  38.4999619   9.9483337  26.8134880  38.8319321
  11.9178324  26.1910210  39.2369537  12.3324327  26.6317635  40.4847374
  11.7840614  27.4044609  41.0030403  13.5916080  26.3140125  40.9651489
  13.9216843  26.9407959  41.7803726  14.3278666  25.3838749  40.2926636
  15.2607908  25.0141697  40.6918793  14.0004826  24.9747200  38.9675865
  14.6634865  24.3138142  38.4290390  12.7122421  25.3450375  38.4634438
  14.3594913  24.0859604  34.3354530  15.5102940  23.9441433  34.7808495
  13.9437685  23.5719280  33.1809731  12.9468393  23.6319046  33.0305214
  14.7886133  22.8387833  32.2242050  15.1713276  21.9770203  32.7710075
  13.8813848  22.4312134  31.0746994  14.2582645  21.4914970  30.6709690
  12.9043045  22.1640987  31.4772701  13.6386900  23.3599548  29.9068718
  13.0012016  24.1995831  30.1838818  14.5875540  23.8230648  29.6361580
  13.0885553  22.7036037  28.7083874  12.5022163  21.6099644  28.6627274
  13.0707273  23.4551945  27.5906124  13.4230137  24.4003925  27.6415424
  12.8150148  23.1078377  26.6773434  16.0867481  23.4812641  31.8280926
  17.0483513  22.7370358  31.5585842  16.1665764  24.7975063  31.8575363
  15.3346777  25.3150253  32.1029320  17.4280491  25.5345631  31.7249107
  18.1244297  25.0503216  31.0403194  17.1291504  26.8935547  31.0134811
  16.6863556  27.5185471  31.7889919  18.0983162  27.2911777  30.7122879
  16.2711582  26.7938061  29.7775803  16.8449593  26.1619587  28.6405334
  17.8616772  25.8075333  28.7246246  16.1142120  25.9348526  27.4550667
  16.5321922  25.5231266  26.5483284  14.7293224  26.2630367  27.4701004
  13.9772949  25.9530087  26.4047050  13.3913107  26.7051201  26.2926750
  14.0974789  26.8022499  28.6530056  13.0193357  26.8542919  28.6890736
  14.9117603  27.1470070  29.7452965  14.4565535  27.4929180  30.6615601
  18.3284893  25.7833290  32.9204941  19.4181480  26.3362751  32.7049065
  17.9778900  25.4339676  34.1529274  17.0539417  25.0873203  34.3680000
  18.8719864  25.4291821  35.2982407  19.3628139  26.3985252  35.3852158
  18.1222286  25.2734165  36.6118813  17.7357922  24.2594700  36.7152061
  19.0796394  25.5185871  37.7700653  18.4343109  25.4803276  38.6476746
  19.8009872  24.7039814  37.8346901  19.6651382  26.4317131  37.6628609
  17.0283394  26.3797531  36.7138062  16.3887978  26.2504864  35.8406639
  16.4160805  26.1854610  37.5944290  17.5672989  27.3185997  36.8410454
  19.9575024  24.3422642  35.1089897  19.5945911  23.2097416  34.9659691
  21.2578259  24.5980930  35.1086807  21.7543755  25.9270439  35.3970375
  21.3021259  26.3547153  36.2918396  21.6246777  26.6285210  34.5728951
  23.2379341  25.7425270  35.4830627  23.5451984  25.5638657  36.5134850
  23.7842369  26.5876465  35.0642242  23.5043831  24.4964886  34.6622009
  24.4835587  24.0331898  34.7833290  23.5601845  24.7510548  33.6038170
  22.3243256  23.5985622  34.9841652  22.1761208  22.9305668  34.1356850
  22.5177059  22.7715588  36.2441940  22.6582489  23.4375572  37.3366394
  22.4436188  21.4210758  36.0737495  22.2774239  20.9858742  35.1776009
  22.3222446  20.4357052  37.1932487  22.7536087  20.9251118  38.0664635
  20.8102207  20.1714840  37.5311852  20.3979015  21.1538582  37.7614822
  19.9330921  19.6309280  36.4238701  18.8838654  19.4725704  36.6731567
  19.9184246  20.2298450  35.5132751  20.4050407  18.7058678  36.0927734
  20.6416111  19.2340984  38.7339706  20.9022865  18.1918163  38.5501328
  21.2172775  19.5078773  39.6181374  19.6015949  19.3785820  39.0265465
  23.0988407  19.1588020  37.0001678  23.3035374  18.6510468  35.8755302
  23.5907669  18.5669441  38.1257057  23.5696869  18.9681644  39.0523529
  24.0846539  17.1541462  38.0778885  23.5475368  16.6507797  37.2740059
  25.5251083  17.1749802  37.5273628  25.4946423  17.7515488  36.6028404
  26.5802708  17.6902237  38.4553871  27.4963684  17.5463791  37.8825150
  26.5026321  18.7499008  38.6986198  26.6068726  17.1054859  39.3748856
  26.0351486  15.9785938  37.1572151  26.9530602  16.0871086  36.8978653
  23.9081745  16.3725929  39.3821335  23.8747692  17.0752411  40.3997955
  23.8758125  15.0645123  39.2357368  24.1152039  14.7029686  38.3235512
  23.6282196  14.1906519  40.3582649  22.9444008  14.6922302  41.0430374
  22.9331951  12.9096260  39.8577271  22.1087475  13.0655718  39.1619759
  23.6923485  12.2938337  39.3754501  22.2692223  12.0431051  41.3089905
  23.3049622  11.2346830  41.5510559  24.9335613  13.7180099  41.0094070
  25.7771740  13.3203907  40.3060036  24.9225121  13.6040678  42.3167038
  24.1216125  14.0361776  42.7548141  26.0596657  13.0632563  43.2028084
  26.7767696  12.6135130  42.5160828  26.8229313  14.1406345  43.9848518
  27.7130146  13.7895594  44.5069580  27.2241173  14.8571720  43.2681046
  25.9627628  14.9013042  45.0251732  24.9172802  14.6203899  44.8980751
  26.1941280  14.4946537  46.0096550  26.0124645  16.7291317  44.9563370
  27.5811691  16.9778767  45.7441902  27.4535542  17.7948627  46.4543724
  27.8534546  16.0997486  46.3297310  28.3530064  17.2430267  45.0216522
  25.5949745  11.8352528  44.1169739  24.4113998  11.7853403  44.3959122
  26.4918137  10.9455509  44.4446983  27.4478817  11.0667992  44.1424866
  26.0934868   9.8581190  45.3853531  25.0802650   9.4964361  45.2102280
  27.0010967   8.6890917  44.9813118  26.9203796   8.6716661  43.8944435
  28.0043221   9.0318546  45.2345924  26.6202259   7.3082471  45.5933800
  25.9360981   7.4812436  46.4241257  26.2417316   6.6290364  44.8294983
  27.6961689   6.4262276  46.2036247  28.4279957   5.8943253  45.4379196
  27.7367916   6.2034678  47.4655533  28.4529667   5.6556039  47.9205666
  27.0632477   6.7006841  48.0305443  26.1503220  10.3904047  46.8922043
  27.1237450  10.9908695  47.2853813  25.0145512  10.1208515  47.5592384
  24.2226181   9.7480698  47.0552750  24.9491081  10.1821814  48.9988022
  25.3151817  11.1667624  49.2898216  23.5280495  10.0104885  49.5578079
  22.9522381  10.9262962  49.4242554  23.1296787   9.2524538  48.8834305
  23.3474464   9.6195889  51.0525551  23.6995335   8.5982857  51.1977234
  23.9167480  10.3548203  51.6212654  21.8430672   9.7254362  51.5322037
  21.0251007  10.5528908  51.0192833  21.4727440   9.0575228  52.4973488
  25.7646160   9.0586252  49.5496559  25.8742485   7.9724646  49.0213509
  26.4555740   9.3607454  50.6353569  26.3531780  10.2986565  50.9958305
  27.3959522   8.4943037  51.3020668  27.9542065   7.9601684  50.5331993
  28.4017162   9.2980976  52.1335182  29.1886768   8.7087870  52.6041641
  29.0249634   9.8639059  51.4410439  27.8194866  10.1945295  53.2256889
  27.3396778  11.0372438  52.7279816  27.3054409   9.5318766  53.9219284
  28.9778862  11.1072912  54.3037415  29.3831100   9.7800026  55.4669838
  30.3050575   9.9768476  56.0141296  28.6235676   9.4506569  56.1760178
  29.6700726   8.8822126  54.9195137  26.7439651   7.4336958  52.2501907
  25.6849022   7.7299500  52.8162842  27.1570740   6.2035565  52.2940750
  28.0796356   5.9101982  52.0061150  26.4288425   5.1497741  53.0974236
  25.3528576   5.1976123  52.9299011  26.9275646   3.7640760  52.6586914
  26.9767513   3.7419744  51.5700264  27.9674129   3.7186449  52.9823418
  26.1722126   2.5498960  53.1966705  24.9992085   2.6969218  53.5015335
  26.8066597   1.4975004  53.3892136  26.6918468   5.3615470  54.5467453
  27.8050785   5.6329985  54.9862251  25.6163845   5.2846022  55.3555908
  24.8025875   4.7775440  55.0382156  25.6788902   5.5528946  56.8048668
  26.6545792   5.3636904  57.2524490  25.2121544   7.0167003  57.1612396
  24.2296429   7.1921926  56.7230873  25.1136227   7.3909783  58.6500244
  24.9100132   8.4569244  58.7520218  24.2881012   6.8915243  59.1571350
  26.0200539   7.2897582  59.2468872  26.2324200   7.9956660  56.4622498
  26.2405987   7.9394307  55.3737297  25.8943901   9.0074520  56.6861382
  27.2585506   7.8484368  56.7991066  24.7687683   4.5986271  57.5035210
  23.6889153   4.2302880  56.9261169  25.0218143   4.2742538  58.7736931
  25.7431870   4.8179550  59.2254829  24.2632656   3.3734224  59.5724678
  23.9836349   2.4813952  59.0119400  25.0941734   2.8055284  60.7466583
  24.4413395   2.1291726  61.2984314  26.2462654   2.0240076  60.1989250
  26.6320457   1.2866626  60.9029007  25.8518162   1.4468248  59.3626404
  27.0195942   2.7181022  59.8698387  25.6101208   3.7701604  61.6022873
  26.5270443   3.8569500  61.3315125  22.8624344   3.8376532  60.0000076
  22.6995392   5.0590310  60.2741013  21.8784485   2.9479220  59.9410400
  22.0856609   2.0085578  59.6332130  20.5419769   3.3671262  60.1597824
  19.8171749   2.5550349  60.2169724  20.4834557   3.6997025  61.1961594
  20.0221367   4.4676437  59.1910782  18.7920609   4.6458859  59.2280312
  20.7556152   5.1984944  58.3741150  21.7305393   4.9527655  58.2779846
  20.1553936   6.2234797  57.5140648  19.6577644   6.8503656  58.2539825
  20.8698902   6.8306794  56.9582710  19.1862907   5.6275020  56.5143852
  19.2473412   4.4376597  56.1113548  18.2571182   6.5148749  56.0896759
  18.2207642   7.4413352  56.4902382  17.1991634   6.1348000  55.1587486
  16.7357712   5.2069068  55.4939842  16.0871258   7.2582755  54.8512726
  16.6356525   8.1689281  54.6105804  15.5048046   7.0010238  53.9664993
  15.1510086   7.7064877  55.9337196  15.6696577   7.5639133  56.8817596
  14.8854752   9.2215242  55.7952309  14.4942865   9.4956608  54.8154678
  14.1985693   9.5691633  56.5668602  15.8327875   9.7154160  56.0114937
  13.8354406   7.0251870  56.0284920  13.9628057   5.9427004  56.0188141
  13.4228086   7.3627887  56.9792061  13.1233234   7.3600578  55.2742691
  17.7599468   5.6631050  53.7523689  18.5175285   6.3759589  53.1078453
  17.3959866   4.4250202  53.4377174  16.6813259   4.0100651  54.0183830
  17.5941544   3.7964745  52.1828270  18.6469784   3.7314026  51.9081802
  17.1134605   2.3554502  52.4088707  16.0401306   2.3720267  52.5980530
  17.3403511   1.7621412  51.5230904  17.7669048   1.5795940  53.5796471
  17.4712429   2.1282980  54.4738579  17.3334827   0.5795009  53.5873909
  19.2565327   1.4707683  53.5612106  19.5957298   1.2458481  52.5500450
  19.6865368   2.4208109  53.8784065  19.6202679   0.3304092  54.5190468
  19.2005024   0.4753942  55.5144768  19.3323956  -0.6814216  54.2336922
  21.0871201   0.3407554  54.6331749  21.3993492   1.2478625  54.9490356
  21.4079380  -0.3025773  55.3426170  21.6225071   0.2295632  53.7840004
  16.7869434   4.4011788  51.1006660  15.7622805   4.9802351  51.4019547
  17.0646725   4.2421536  49.8324089  17.9175224   3.7687099  49.5704994
  16.1769619   4.6957417  48.7283745  16.7169304   4.6411176  47.7830963
  14.9796963   3.6739631  48.6489944  14.3542252   3.5440032  49.5321655
  14.3486452   4.0912848  47.8643150  15.5728550   2.2681839  48.2596588
  16.2498055   2.3149538  47.4066315  16.0804462   1.8808097  49.1430588
  14.4280958   1.3652151  47.7783699  14.0308886   1.8697594  46.8975945
  14.9072475   0.4193238  47.5257759  13.3779097   1.1929525  48.8406105
  13.9031487   1.3292326  49.7859421  12.7140484   2.0363958  48.6508789
  12.5608997  -0.0825636  48.7235985  13.1146164  -0.9253307  48.6666641
  11.8914251  -0.0913902  49.4797935  11.9262772  -0.0746892  47.9379196
  15.7011185   6.2092905  48.7798538  14.4928493   6.5297956  48.6472855
  16.6439762   7.0927777  48.8710442  17.6008873   6.7790203  48.9483604
  16.4064541   8.5119934  49.0612373  15.3506489   8.7470541  48.9265976
  16.8300343   8.7987442  50.4644547  16.4604530   8.0162630  51.1272049
  17.9109573   8.8534269  50.5937424  16.1503716  10.4328842  51.0209808
  14.9050941   9.9707794  51.1646538  17.1756611   9.4512348  48.0333138
  18.2989101   9.2605572  47.6333961  16.4585800  10.5419502  47.8089180
  15.5594254  10.6796846  48.2478409  16.7312927  11.5391254  46.7929573
  17.7214775  11.3583212  46.3746948  15.7409859  11.4927578  45.6146393
  14.7006636  11.6109829  45.9177132  16.0566483  12.5984859  44.6259384
  17.1087170  12.5803089  44.3414726  15.3747444  12.4349213  43.7914619
  15.8558321  13.6215878  44.9438019  15.8107662  10.1347542  44.9445953
  16.1743984  10.1994238  43.9190788  16.4181690   9.4519100  45.5386467
  14.4064722   9.5037117  45.0769081  14.3168364   8.5986576  44.4761162
  14.2107687   9.1791611  46.0988998  13.6827555  10.2297306  44.7064590
  16.7658424  12.9012432  47.4343529  15.7038908  13.4667635  47.8024063
  17.8454781  13.6994753  47.3481407  18.6593170  13.2650557  46.9369888
  17.9925919  15.0919704  47.7923241  17.0306454  15.4508896  48.1582947
  18.9247150  15.1497078  49.0445518  19.9354744  15.2043867  48.6402321
  18.7684879  16.1098118  49.5363846  18.7946148  14.0152388  50.0342827
  17.7845001  13.9279680  50.4344711  19.1939144  13.1229382  49.5521393
  19.6847725  14.1647768  51.2866516  20.6031818  14.5889807  50.8808441
  19.3576012  14.9652452  51.9502068  19.9933586  12.9422445  51.9770088
  20.1127338  12.1251755  51.3954201  20.0176430  12.7599583  53.3251839
  19.9753952  13.7653351  54.1255264  20.0427780  13.5590239  55.1119308
  20.2420940  14.6782227  53.7855148  20.0387268  11.5042019  53.7319069
  19.9747658  11.3653669  54.7302742  20.1789875  10.7863951  53.0353584
  18.2784061  16.0994415  46.7010918  18.5316467  15.7615032  45.5989342
  18.1255798  17.3642578  47.0450211  17.7123108  17.6450443  47.9227829
  18.4026508  18.5426617  46.2261047  19.1534424  18.3855324  45.4516792
  17.0927143  19.0598698  45.5166321  16.6907368  18.3855705  44.7604332
  15.9354467  19.3890610  46.4407310  15.6071539  18.5265408  47.0207138
  16.1288242  20.2805748  47.0373116  15.0719280  19.6209736  45.8173103
  17.4075317  20.3596630  44.6244888  16.6376915  20.4494572  43.8580818
  17.5243530  21.2934303  45.1745186  18.3109303  20.3750210  44.0147820
  19.0136700  19.6326504  47.1380577  18.5199928  19.8796654  48.2461281
  19.9674187  20.3668175  46.5737267  20.4940414  19.9867115  45.8002357
  20.2331657  21.7062263  47.0057182  19.4560986  22.0065517  47.7086220
  21.4828606  21.6877365  47.9521523  21.3447800  20.8851242  48.6766129
  22.3578300  21.4878101  47.3336372  21.5767498  23.0947342  48.5589485
  22.0379982  23.7501068  47.8201408  20.6564693  23.6771183  48.6038475
  22.4345112  23.3804455  50.1530037  24.2236767  23.0146294  49.8542099
  24.5543804  23.4885712  48.9300270  24.9171486  23.3108768  50.6412506
  24.4610252  21.9738369  49.6339302  20.2901440  22.5614185  45.7801247
  20.9261436  22.2082481  44.8192024  19.7045898  23.7318401  45.9325714
  19.0176010  23.9828510  46.6290894  19.9152699  24.7668705  44.8775406
  20.6771641  24.4656429  44.1585922  18.6168594  24.9108982  44.0216942
  18.9329948  25.1591053  43.0085106  18.2697182  23.8997307  43.8092499
  17.4915752  25.7766571  44.4844437  17.1716003  25.4398289  45.4704781
  17.8890762  26.7843266  44.6056938  16.0458164  25.8584347  43.4767303
  15.1346836  24.2921562  43.7774124  15.1664619  23.9665241  44.8171539
  14.1070118  24.4516182  43.4509735  15.6208048  23.4274330  43.3257065
  20.4365845  26.0535965  45.4888954  19.8434486  26.4661236  46.4870071
  21.4888821  26.7202988  44.8903885  22.0002575  26.3497581  44.1021652
  21.8216839  28.0810184  45.3297958  21.7090683  28.1546211  46.4114609
  23.3042603  28.3627663  44.9486732  23.4420834  28.3314457  43.8678741
  23.8546028  29.6261463  45.5622025  23.8604546  30.4053669  44.8000412
  23.2160625  29.9363327  46.3893356  24.9189720  29.5863667  45.7937965
  24.1083431  27.3147221  45.4239922  23.7921734  27.2744179  46.3295403
  20.9374809  29.0511303  44.5634766  20.5721569  28.8605537  43.3559647
  20.6433506  30.2296085  45.1135406  20.8589840  30.4630184  46.0722466
  19.6764603  31.2570572  44.5810051  19.6650848  31.2958698  43.4917526
  18.2802086  30.8366756  44.9836960  18.0765514  29.7961693  44.7307701
  17.9458523  30.9095974  46.5242538  18.0178661  31.9362679  46.8832359
  16.9202652  30.5440655  46.5758171  18.6779900  30.2833767  47.0340767
  17.2932167  31.7429771  44.2237053  17.4216766  32.7842445  44.5192757
  17.4370556  31.6414509  43.1480179  16.2696590  31.3738403  44.2882652
  20.0847778  32.6351433  45.0941162  20.4182110  32.8473930  46.2914734
  19.8116608  33.6520615  44.2694664  19.5036640  33.4505844  43.3289108
  19.9209881  35.0377808  44.7272491  20.6943035  35.0308647  45.4953842
  20.2737885  35.8088417  43.4578323  20.7549458  36.7278976  43.7924004
  20.9862499  35.3468475  42.7744141  19.2486382  35.9873085  42.3844223
  19.1259079  35.0172195  41.9027939  18.3252907  36.3394661  42.8443336
  19.6551285  36.8946609  41.1804428  20.7259655  37.4727020  41.2430534
  18.9274426  36.9534225  40.0397644  19.2226582  37.5472679  39.2779922
  18.0366154  36.4850197  39.9553566  18.6658058  35.4374390  45.4047813
  17.5671940  35.3544807  44.8224869  18.7920151  35.9199829  46.6290092
  19.6900787  35.9584656  47.0895615  17.7113037  36.5406570  47.4353676
  16.9725056  37.0360832  46.8054237  16.8953056  35.4232750  48.1396217
  16.4655933  34.7569008  47.3916969  17.5384274  34.5944366  49.1553841
  17.6859970  35.0645752  50.1276398  16.9504414  33.6867523  49.2913437
  18.4849510  34.3908463  48.6546402  15.8514605  36.1478386  48.7625961
  15.4087753  36.6685715  48.0884552  18.2271309  37.4561996  48.4926758
  19.2848568  37.1927185  49.0406990  17.5480881  38.5302277  48.8932762
  16.7158222  38.7908363  48.3838463  17.8242397  39.3907661  50.0490608
  18.8964443  39.3312874  50.2360115  17.3680210  40.8455696  49.8947754
  16.2971592  40.8630791  49.6921730  17.4469090  41.3389282  50.8635254
  18.2389030  41.5921555  48.8644485  17.8307171  42.4129868  48.0443153
  19.4569454  41.4447212  49.0152969  17.2208061  38.7764740  51.3639297
  17.5842171  39.1880302  52.4304657  16.3353157  37.7776566  51.2192535
  16.2243843  37.3375549  50.3169746  15.5482283  37.1964798  52.2934837
  14.9596529  37.9647141  52.7949753  14.5982370  36.1151924  51.6963005
  15.1269102  35.3792572  51.0904922  13.8184004  35.3613663  52.8225708
  13.1969814  36.1182709  53.3011589  13.1533823  34.6420784  52.3445778
  14.3908710  34.9136581  53.6349335  13.5227680  36.8182411  50.7686501
  13.8667908  37.4617157  49.9589119  12.8477573  36.0356407  50.4222412
  12.8993292  37.4852905  51.3640213  16.5001087  36.5925941  53.2656479
  17.5121632  36.1299095  52.8997765  16.1706257  36.7581139  54.6158371
  15.0630455  37.4943810  55.2366219  14.0909481  37.2573433  54.8042564
  15.0466108  38.5825348  55.1753845  15.1172285  37.2291183  56.7101593
  14.4796000  36.3721390  56.9272194  14.8453808  38.1431122  57.2381859
  16.5471573  36.7717133  56.9766808  16.7630177  36.2045021  57.8820953
  16.9883823  37.7672539  56.9284821  17.0089951  36.1143913  55.6634636
  18.0452347  36.3620148  55.4332657  16.9162846  34.5451355  55.8320045
  15.8340292  34.0390625  55.5472374  18.0929546  33.9799194  56.1410408
  18.9059525  34.5152740  56.4103546  18.2883606  32.5007782  56.2094040
  18.1309376  32.0949974  55.2100716  19.6362381  32.2133904  56.7912140
  19.6060066  32.6827698  57.7745094  19.6883392  31.1376991  56.9593544
  20.8711300  32.7336807  56.0881195  20.9180965  32.2555580  55.1097069
  20.8671188  33.7897072  55.8181343  22.1541080  32.4601479  56.8884697
  22.2092285  32.6794357  58.0874557  23.1606331  32.0129433  56.1715546
  24.0855026  32.1474113  56.5544930  22.9835930  31.7800694  55.2048454
  17.3087082  31.5922756  56.9692726  17.0608025  30.4206886  56.5584717
  16.6571198  32.1614685  57.9977798  17.0073299  33.0530968  58.3178596
  15.7868910  31.4233685  58.8788643  15.9258537  30.3440189  58.8172646
  15.7943687  31.9202652  60.3131981  15.1366425  31.3095341  60.9316673
  16.8494148  31.7899761  60.5540314  15.5390053  33.4118347  60.5759506
  15.7219391  34.2406044  59.7038193  15.0902615  33.7687759  61.7006340
  14.2982197  31.5821476  58.4034920  13.5088158  30.6714478  58.5301628
  13.9981928  32.6483994  57.6493568  14.6715136  33.4011574  57.6398201
  12.7214155  32.8632698  56.9235954  11.8409309  32.6552238  57.5315132
  12.5514479  34.3114891  56.4935455  12.6775732  34.9255600  57.3852348
  13.3904028  34.5102959  55.8266602  11.2031126  34.6671600  55.8182220
  10.9167252  33.9545021  55.0447884  10.3896685  34.6064796  56.5412254
  11.2112513  36.2055588  55.3909187  11.8570433  37.0587921  56.0856743
  10.5166616  36.6630859  54.3722839   9.9965105  36.0652618  53.7460709
  10.4025497  37.6637268  54.2961388  12.5223331  31.7784805  55.8080978
  11.4862108  31.1162262  55.6806946  13.6607075  31.4821606  55.0820503
  14.5055161  32.0149002  55.2323303  13.8693609  30.4290161  54.0397758
  13.2047739  30.5974655  53.1923904  15.3137846  30.6692905  53.4146080
  16.0699997  30.7916279  54.1900291  15.7771444  29.4306545  52.5274887
  15.8905506  28.5534554  53.1644821  14.9467497  29.1848202  51.8655891
  16.6745319  29.6567230  51.9515648  15.1840973  31.8589153  52.4211998
  14.8162184  31.6649628  51.4136543  14.4745302  32.5979767  52.7932243
  16.5628529  32.5463219  52.2950478  17.2281284  32.1139183  51.5476952
  16.4255295  33.5848007  51.9937286  17.0642910  32.4110565  53.2533607
  13.5633926  29.0096664  54.5625954  14.0920258  28.6058578  55.5680122
  12.7485075  28.2710018  53.7980194  12.3276978  28.6615791  52.9670753
  12.0610838  26.9831181  54.1287651  12.3337526  26.7849426  55.1653366
  10.5549536  27.1367931  54.0317383  10.4054251  27.5059814  53.0171242
  10.1355047  26.1771049  54.3336678   9.8388977  28.2042942  54.8341293
  10.2363968  29.2011242  54.6432762   8.7987604  28.2165375  54.5084419
   9.8779449  28.0130367  56.3470230  10.8903322  28.0178795  56.7509384
   9.3857021  28.8755589  56.7962990   9.2348881  26.6970348  56.7447777
   8.4720774  26.3500328  56.1810341   9.5338392  25.9616165  57.8519325
  10.5109282  26.1059227  58.6650200  10.5365887  25.5201378  59.4873924
  11.0484285  26.9590569  58.6070747   8.8676414  24.8667488  57.9906845
   9.0460806  24.3140774  58.8170090   8.1693878  24.6177921  57.3047066
  12.6844006  25.8829556  53.2329903  12.3989792  25.7474937  52.0540314
  13.4656782  24.9900341  53.8182030  13.9655066  25.2626266  54.6524506
  13.8339643  23.6953068  53.2918243  14.0634727  23.7906952  52.2305374
  15.1487513  23.2957172  54.0300522  14.9659929  23.0312004  55.0715561
  15.6372509  22.4522438  53.5421715  16.2043533  24.3737659  53.9956512
  16.8433304  24.9502945  52.9123955  17.6126404  25.9789486  53.4496994
  18.2873840  26.6141205  52.8950119  17.4228802  26.1055927  54.7479630
  17.6838837  26.9174995  55.2890625  16.4335480  25.2196712  55.1002312
  16.1027889  25.0147343  56.1077003  12.7508545  22.5932198  53.5561028
  12.4417915  22.4475327  54.7393227  12.2634306  21.8953018  52.5495987
  12.7951546  22.0036030  51.6977539  11.0321503  21.0634289  52.5699844
  10.6056013  21.2277355  53.5595093  10.0623369  21.6206360  51.5852470
  10.6426382  21.7549152  50.6723824   8.8626642  20.7505779  51.3038025
   8.2047386  21.2886181  50.6213455   9.2171001  19.8105145  50.8810120
   8.2761946  20.4039993  52.1547050   9.5378628  23.0115223  51.9935837
  10.3248844  23.7254524  52.2364845   8.8856945  23.4351177  51.2298126
   8.8868484  22.9016380  52.8608856  11.2926483  19.6048336  52.3429031
  11.9453096  19.2297249  51.4103813  10.6855507  18.8037395  53.1755791
  10.3387070  19.2558651  54.0094757  11.0250673  17.4028397  53.2483635
  11.6719799  17.1265335  52.4157410  11.8296814  17.0341969  54.5175362
  11.2552156  17.4579926  55.3412399  11.9160109  15.9726267  54.7493095
  13.2288618  17.6166134  54.4539986  13.3227024  18.9827671  54.7148132
  12.4295502  19.4909229  55.0471649  14.6079130  19.4992599  54.7010765
  14.6629810  20.5778389  54.7070312  15.7774954  18.7122116  54.5163269
  17.0289783  19.3091698  54.6525803  16.9350185  20.1317234  55.1385612
  15.6285172  17.3788662  54.2829933  16.5003090  16.7415028  54.2709084
  14.3569384  16.8118858  54.2262573  14.3493490  15.7319145  54.2238503
   9.7341909  16.6085987  53.1301155   8.7048492  16.8537598  53.7216682
   9.8489065  15.5507994  52.3097992  10.7784176  15.5556545  51.9147224
   8.7422285  14.6691723  51.8937340   7.7780523  14.9471292  52.3194122
   8.5915613  14.8380013  50.4224777   9.5667171  14.6316366  49.9813614
   7.9134111  14.1149092  49.9693222   8.2011871  16.2595844  50.0260696
   8.9884577  16.9457016  50.3383980   8.1518135  16.4364777  48.5289764
   7.9832516  17.4845543  48.2815361   9.0422182  16.0303001  48.0490837
   7.3488259  15.7844324  48.1852341   6.9709396  16.7960930  50.6280441
   6.7214522  17.7320900  50.1282845   6.1743550  16.0700474  50.4655380
   7.0436625  16.8893757  51.7116051   8.9128656  13.1593075  52.1094131
   9.9939718  12.6374874  52.3750954   7.8021603  12.4302197  52.0168152
   6.9366765  12.9467878  51.9520416   7.7128687  10.9518852  52.0240936
   6.6320114  10.8206367  52.0752869   8.2109852  10.2309399  50.7227402
   9.2929773  10.1249762  50.8012466   7.8606648   9.2017813  50.8015442
   7.8193822  10.8902941  49.3794098   8.2637901  11.8855419  49.3702278
   8.2444601  10.2997189  48.5678482   6.3313932  10.9849367  49.3289642
   5.7799997  12.0328302  49.4873314   5.6418877   9.9738131  48.9871292
   8.2367001  10.3971329  53.3376350   7.7662311  10.8174915  54.4022484
   9.1648769   9.4356823  53.3063049   9.4297018   9.0454445  52.4131737
   9.7725487   8.8668671  54.5835190   8.9969759   8.8973627  55.3488045
  10.2047844   7.4162555  54.4067612  11.0543451   7.3234224  53.7302017
  10.4526415   7.0279689  55.3946381   9.0839052   6.5530009  53.8437462
   8.1716900   6.5705099  54.4401169   8.8821564   6.8937049  52.8282089
   9.6875839   5.1340346  53.6663513  10.5973053   5.0544801  53.0712204
  10.0778980   4.8158979  54.6330681   8.6305342   4.3282509  52.9533463
   7.8707857   4.0521111  53.6845322   8.1202078   4.9696836  52.2348557
   9.1807404   3.1314967  52.2713661  10.1258574   3.3068843  51.9613762
   9.2991447   2.3609724  52.9135284   8.5312519   2.8661213  51.5448380
  10.9577379   9.8065386  55.0578918  11.2225389   9.9179211  56.2618332
  11.6730127  10.5484066  54.1396332  11.3646765  10.3936968  53.1903725
  12.5847149  11.6503506  54.3274040  13.3147259  11.3192701  55.0660286
  13.3116093  12.0933523  53.0978394  13.6634541  13.1161776  53.2324982
  14.2200909  11.5334930  52.8757591  12.5881243  12.0219297  52.2857018
  11.9483147  12.8660755  55.1549606  12.6565857  13.8136320  55.5071983
  10.6393499  12.7517605  55.4877625  10.0317049  12.0942154  55.0203209
   9.9702206  13.7508469  56.3314133  10.1181803  14.6898365  55.7980232
   8.4358301  13.4434052  56.4216003   8.0891571  13.1760683  55.4233780
   8.0132751  12.1806345  57.1752663   8.3647404  12.1956797  58.2069397
   6.9241180  12.1481619  57.1472893   8.3718014  11.2728415  56.6900177
   7.5130396  14.6313391  56.7504082   7.8846297  15.0681009  57.6773758
   7.5500469  15.4345675  56.0145035   6.5144167  14.2669430  56.9913826
  10.6228399  13.8058071  57.7240524  10.5348577  14.8831625  58.3410454
  11.3669748  12.7592392  58.2878914  11.3512020  11.8248253  57.9048500
  11.9078636  12.9363260  59.6234131  11.2723093  13.5326586  60.2780571
  12.1231518  11.5103703  60.2508202  12.6879206  11.5527897  61.1821327
  10.7712746  10.8873997  60.5907593  10.2643957  11.5180292  61.3211555
  10.1619225  10.7498026  59.6975288  10.9706144   9.9023724  61.0127563
  13.0279331  10.4919672  59.5025635  13.8753595  11.1105776  59.2070999
  13.3946476   9.7438869  60.2054100  12.4671421  10.0552416  58.6761932
  13.2370701  13.7218885  59.5421181  13.8300381  13.9154682  60.5572739
  13.7457685  14.1301794  58.3546677  13.2831879  13.8939457  57.4884605
  14.9547768  14.9725742  58.2338524  15.6249676  14.7419481  59.0619583
  15.7612123  14.6132145  56.9849586  15.1598587  14.8824644  56.1166420
  16.6785336  15.1999502  56.9362755  16.0583401  13.1329842  56.8006706
  15.1306152  12.5679636  56.7102470  16.8550091  13.0554857  55.4701920
  16.1406708  13.2277536  54.6651154  17.7290783  13.6968689  55.3573570
  17.2888069  12.0679312  55.3131828  16.8083649  12.4509125  57.8947678
  16.5896492  12.7651358  58.9153252  16.7312679  11.3658762  57.8251038
  17.8628502  12.6596746  57.7142525  14.7215319  16.5106316  58.2986603
  15.6656590  17.3155518  58.3194885  13.4389658  16.9416199  58.2822647
  12.8233604  16.1995182  57.9815750  12.9838190  18.3622322  58.4069633
  13.4106960  18.8227310  57.5159988  11.5360785  18.6250496  58.4417152
  11.4746819  19.7020302  58.2853737  11.0615454  18.1448936  57.5859261
  10.8757734  18.1736031  59.7277985  11.2311516  17.1928692  60.0439682
  11.1260509  18.8331528  60.5587387   9.3416100  18.0965748  59.5719833
   8.9002371  19.0114784  59.1767082   9.2013998  17.4054527  58.7408447
   8.7135134  17.7074566  60.8151665   8.3815718  18.4711990  61.3866653
   8.1586695  16.5886784  61.1487274   8.4052877  15.5307121  60.4320831
   9.1367855  15.6944218  59.7551651   8.1366673  14.5942059  60.6983490
   7.4445658  16.4979515  62.2393761   7.0606194  15.5908241  62.4625511
   7.3467336  17.3318253  62.8007889  13.7190304  19.0521965  59.5993805
  13.8445845  18.4242115  60.6550827  14.2835608  20.2593765  59.3519135
  14.2666435  21.0014935  58.1002350  13.3149052  21.1095276  57.5800171
  15.0321112  20.5687656  57.4561005  14.6310740  22.4322395  58.5430984
  13.7396250  23.0190144  58.7647095  15.0540867  22.8954086  57.6516762
  15.5694561  22.1759262  59.6862946  15.7277622  23.0167942  60.3615608
  16.5725365  21.9302349  59.3376350  15.0083742  21.0141697  60.4087105
  15.8642836  20.4871120  60.8302994  14.1509542  21.4677868  61.6366310
  14.6895123  21.5839901  62.7282906  12.8590355  21.6587906  61.4975700
  12.3804016  21.5983677  60.6102409  12.0092354  22.0714111  62.6144676
  12.5390959  22.9321518  63.0224800  10.7025204  22.7158260  62.1598930
  10.1000586  21.8838043  61.7953644  10.2202835  23.0576630  63.0756950
  10.7561331  23.8044376  61.1229782   9.7583370  23.9925518  60.4221268
  11.8319693  24.5080986  61.0785179  11.7380581  21.0610371  63.7007637
  11.3383570  21.4398537  64.8160706  11.8125715  19.7563305  63.3323708
  12.1410913  19.4958344  62.4135056  11.7046013  18.7515182  64.3562088
  10.9778442  19.1141567  65.0831299  11.0462551  17.4844627  63.8064880
  10.0061350  17.7364941  63.5997734  11.4876900  17.2950039  62.8280487
  10.9446363  16.1726360  64.6230011  11.8875723  16.0326023  65.1515503
   9.9125471  16.1932087  65.7205353   9.9391012  15.3305826  66.3863220
   9.8365355  17.1544304  66.2288361   8.9577169  16.1062164  65.2020416
  10.7695770  14.9747314  63.7285538  10.6729984  14.1241093  64.4032516
   9.8773899  15.0838881  63.1119614  11.6532679  14.7199535  63.1435051
  13.0393667  18.4349861  65.0348206  12.9735689  17.9776554  66.1444397
  14.1285248  18.7966766  64.3220291  14.1057892  19.2325668  63.4112129
  15.5387774  18.6972313  64.9411621  15.6337624  17.6692886  65.2910309
  16.6489792  19.0430164  63.9233017  16.7090588  18.3312435  63.0999718
  16.4220066  20.0282135  63.5159073  17.8682671  19.0788689  64.6789703
  18.6522083  18.8855133  64.1596909  15.6953735  19.7559872  66.0413895
  16.0432339  19.5289211  67.2185593  15.2270327  20.9416599  65.7245102
  15.2317286  21.1606808  64.7385559  15.0465822  22.0722237  66.6101761
  16.0315495  22.1333656  67.0729980  14.8126411  23.3857937  65.8389740
  13.9631262  23.2647533  65.1668320  14.4686222  24.1636963  66.5206146
  16.1425152  23.9729156  65.2728348  16.7565327  23.1930199  64.8224487
  16.0155296  25.1828632  64.3475037  15.7862740  26.1380806  64.8198395
  16.9395733  25.2140503  63.7702103  15.1955090  25.0574036  63.6404457
  16.8505039  24.6456871  66.4744263  17.3229485  23.9539719  67.1718674
  17.6898994  25.2299137  66.0973282  16.1115360  25.2999783  66.9369507
  13.9568949  21.8291225  67.6691895  14.1561413  22.2582550  68.8147278
  12.9264927  20.9997959  67.4097214  12.9721508  20.5261955  66.5188065
  11.9745531  20.6295033  68.5162735  11.7184000  21.5254650  69.0817337
  10.7398071  20.1199512  67.8392639  11.0297661  19.3398705  67.1353531
   9.6814518  19.5442543  68.7700195  10.0427999  18.6664677  69.3057556
   9.2968254  20.2907505  69.4649353   8.8012848  19.1771736  68.2421341
  10.0743341  21.1193657  67.0862350  10.5492077  21.1963959  66.2554779
  12.5280876  19.7453518  69.5564499  12.4072123  20.0223083  70.7252808
  13.3864632  18.8002853  69.1877747  13.4311848  18.5568485  68.2085724
  14.3791361  18.0158234  69.9917450  13.7938862  17.5492802  70.7841568
  14.8142071  16.7938156  69.1473541  15.3205719  17.1487198  68.2497253
  15.6338596  16.2794266  69.6490250  13.7226372  15.7521648  68.8053589
  13.4660072  15.3645954  69.7912827  12.8796520  16.3408127  68.4434662
  14.2812395  14.6363153  67.9163132  14.4943209  14.9878979  66.9068146
  15.1484718  14.2376146  68.4426651  13.1670265  13.6447458  67.5323944
  12.3170538  14.1848402  67.1153259  13.6034527  12.9839630  66.7834015
  12.7995939  12.9399271  68.7315292  12.1913128  12.2004013  68.4102859
  13.6019964  12.4752274  69.1319122  12.4556227  13.5053663  69.4944611
  15.5554905  18.6526432  70.6827774  16.0991669  18.0293713  71.5132294
  15.6894159  19.9561043  70.5777969  15.1542969  20.4098473  69.8512573
  16.5348701  20.7897682  71.4084549  17.3396683  20.1738815  71.8098068
  17.2913837  21.8666515  70.5973663  16.5321732  22.4416199  70.0671616
  17.8047009  22.4887733  71.3305588  18.3383827  21.2786961  69.6544037
  18.2765465  20.2169666  69.0751114  19.3332233  22.0700760  69.3510284
  19.3252563  22.9951553  69.7563248  19.7888355  21.7881317  68.4948578
  15.7480774  21.3924351  72.6604538  16.3671837  21.9663734  73.6179962
  14.4085007  21.3191700  72.6771774  13.9491100  20.9970684  71.8373489
  13.5526972  21.6393833  73.8200226  14.1789608  22.1452732  74.5548477
  12.5273495  22.6386127  73.5061035  12.0449800  22.8160286  74.4673309
  13.1036472  23.9335747  72.8421326  12.3278217  24.6970711  72.7849579
  13.8667688  24.3029518  73.5271912  13.5566511  23.7802391  71.8626556
  11.4927788  22.3363838  72.6238251  11.6864204  22.7664433  71.7876740
  13.0094662  20.2847328  74.4308777  13.3171892  19.9629211  75.5955276
  12.2779388  19.5352345  73.5956421  12.0837116  19.8441124  72.6538544
  11.8241673  18.2061882  73.8862000  11.1477003  18.3469372  74.7292252
  10.9486551  17.6304970  72.7027512  11.4842834  17.7522888  71.7612762
  10.6112833  16.6101265  72.8847504   9.6910105  18.4483280  72.5740356
   9.9161263  19.4761410  72.2893906   9.0231667  18.0746288  71.7978668
   8.8196001  18.5739136  73.8135986   8.0990362  19.5112495  73.9910660
   8.7258091  17.6846008  74.6591568  12.9099245  17.1437359  74.1415176
  13.8750629  16.9226818  73.4161224  12.6828508  16.4288998  75.2650299
  11.8765917  16.6021252  75.8481522  13.7731304  15.5211258  75.8819504
  14.7794495  15.8615990  75.6380234  13.5506983  15.4600019  77.3856583
  12.5800219  15.0096178  77.5931244  14.2304449  14.7789764  77.8977661
  13.7574854  16.8476696  78.0471268  12.9842424  17.5113525  77.6601868
  13.5169439  16.7256718  79.5232925  14.3254004  16.2625179  80.0889587
  13.4058418  17.6991882  80.0008087  12.5928926  16.1677094  79.6746445
  15.2418299  17.3714294  77.9635468  15.3895226  18.2831097  78.5424500
  15.9387999  16.6112232  78.3162766  15.4597073  17.6293144  76.9271469
  13.8158121  14.1406431  75.2939301  14.8909407  13.6925755  74.8764114
  12.7788677  13.4702358  75.1813660  24.5667171  12.6137972  31.7689323
  24.2565575  11.5759811  31.6676159  25.5276909  12.7896156  32.2476196
  23.9210033  13.5927753  31.1540260  24.4698410  14.9487057  31.1119251
  23.8059063  15.8784866  30.5706596  25.5208187  15.1962194  31.6490154
  22.7857418  13.3700504  30.4189167  21.4808311  13.1752148  31.0651989
  21.6723843  12.4198608  31.8371696  20.6430721  12.5018148  30.0024166
  21.1278458  11.8853998  29.2483921  19.3008938  12.5501795  30.1164761
  18.7127419  13.4553719  31.1742764  17.6721840  13.2643290  31.4295063
  19.4058132  14.2719088  32.0249672  18.8705864  14.8435030  32.7801743
  20.9009895  14.4509106  31.7921791  21.1894665  15.3393888  31.2172203
  21.4859562  14.6597309  33.1113014  21.7040997  13.7902050  33.4895401
  18.4210548  11.8408995  29.0967693  18.9406528  11.2345381  28.1461487
  17.1900616  11.8653851  29.1926384  43.4969406  16.5348110  46.8098106
  43.7138138  15.6324072  46.2422218  44.1405067  17.3987103  46.6580582
  42.2543373  16.4788189  47.4207153  41.6837845  17.5854015  48.2193832
  42.1306763  18.6866093  48.0231628  40.7348976  17.4378738  48.9289589
  41.5388985  15.3458548  47.3221550  40.7369308  15.0623131  46.0847931
  40.3071938  14.0614767  46.2145653  41.6622658  14.8846245  44.9546776
  42.1845322  13.9309082  44.9892235  41.9704285  15.9420624  44.0864563
  41.0602760  17.1302395  44.1247253  41.3136406  17.9201260  43.4202499
  39.9796486  17.1668167  44.9402542  39.4260178  18.1003075  44.8652954
  39.6184654  16.1317310  45.8821678  39.4288025  16.5921249  46.8595390
  38.4102402  15.6087637  45.4443207  38.0324097  15.1774559  46.2304153
  43.1765633  15.8314323  43.1810417  43.9578705  14.9683571  43.3271027
  43.4297676  16.7712383  42.4451981  18.9016647  15.7377415  58.6229134
  18.6996632  16.7004566  59.0875664  18.9204941  14.9167852  59.3365021
  19.3334541  15.6083126  57.3325539  19.3354244  16.7885990  56.3137817
  19.4339333  17.9169369  56.7609177  19.5946274  16.5156479  55.1448212
  19.6818810  14.3941460  56.8800812  20.8480606  13.7130041  57.3070488
  20.7276020  12.7675886  56.7640305  20.8392467  13.1445694  58.7480583
  19.9283180  12.5562811  58.8355370  21.6886387  13.3252449  59.7439651
  22.8116474  14.2246933  59.3911133  23.4873142  14.4381256  60.2171402
  23.0203876  14.8022137  58.2066879  23.8625622  15.4767590  58.0679207
  22.2055511  14.4875832  57.0280151  21.7408791  15.4078226  56.6532745
  22.9125690  13.7679443  56.0624237  22.9453602  12.9130535  56.5259056
  21.4591846  12.8241663  61.1158943  22.2939224  13.1875544  61.9847336
  20.6607246  11.9685183  61.3748131  16.8577957  13.7262669  73.7278290
  80.3455734  54.8215370  29.7813072  85.1120834  38.9204483  38.1021957
  82.5729294   5.0833774  55.4940872  82.8718338  56.2994614  57.3987846
  59.6884727  29.9818077  62.7110214  58.9883041  41.7821617   1.7149261
  80.8940735  21.6595287  40.0284271  58.7661972  50.2515717  31.0565262
  30.4842911  13.0861540  16.5683002  31.0056934  12.5210066  17.1383686
  29.7502022  12.5369606  16.2931061  55.7516136  14.3381071   4.5927863
  56.5488167  13.9935627   4.9952693  55.2803650  13.5612955   4.2915883
  13.6538248  36.8312950  88.6446533  12.8460560  37.0540504  89.1073914
  14.0778217  37.6742134  88.4835815  14.1254263  46.7966347  17.9711399
  13.3815212  47.2184029  17.5410843  14.7926540  46.7331009  17.2877655
  72.4465637  56.4132652  41.6072121  72.3514786  55.4679260  41.7234840
  72.5201416  56.5319099  40.6602478  72.7270126  67.8711472  61.7329559
  73.1464157  67.8224258  62.5920067  73.1869202  67.2188339  61.2045555
  54.4870834  56.2310524  20.3141632  55.2631493  56.6432076  20.6937389
  54.0349350  55.8384399  21.0609245  18.4337330  30.8806057  12.5592813
  19.3532410  31.0624504  12.7533703  18.4600849  30.1672440  11.9215879
  53.3612518  68.5717545  32.2161827  52.9918480  68.4330597  33.0882683
  52.9962463  67.8632889  31.6860104   2.7540150  54.1018181  33.1209335
   2.8916476  54.4528236  34.0007553   1.8026806  54.0443153  33.0321198
   3.4226470  32.9536781  19.8837128   3.6385357  32.0258675  19.9774551
   2.6603036  33.0804558  20.4485054  10.7302408  50.8805733  47.5634117
  11.5482502  51.2430458  47.2232552  10.6821232  50.0023193  47.1858025
  38.5119247  62.4410744  67.4326782  37.7876396  62.5035629  68.0553665
  38.6206970  63.3325653  67.1015549  67.5063782  23.0692215   7.0648761
  68.3994293  23.1749420   7.3927612  67.4366913  22.1377354   6.8558125
   3.9945347  67.5330811  56.1526680   3.5489991  67.2940674  56.9654427
   3.2863343  67.7472382  55.5453644  66.2536621  55.4690018  47.8008690
  66.2735291  56.2851334  47.3011055  65.5857391  54.9384155  47.3665924
  79.2437363  36.9084549  36.1172447  78.8156815  36.3097992  36.7293053
  78.6155167  37.0094833  35.4021416   2.3299432  30.3874931  57.4765816
   2.8921306  30.1410942  58.2110634   2.9133413  30.8455830  56.8715744
  12.9632759  48.7764397  50.3441696  13.5768566  49.0574265  49.6653519
  12.1608009  49.2640381  50.1583862  10.1389952  29.1168385  60.6641960
  10.6434202  29.7911549  61.1192589  10.6245327  28.9602108  59.8542862
  54.4471436  10.8871384  43.6001167  54.9467316  11.6670485  43.8417473
  54.8736191  10.5661631  42.8055573  22.5991535  30.7005291  60.6195412
  23.0404549  30.8414040  61.4571838  22.2174988  31.5514297  60.4038086
  86.3176270  10.7662401  65.6172562  86.0211945  10.4759073  66.4798508
  85.5537796  11.1974878  65.2341309  64.8711243  26.4303665  62.6608276
  65.1669464  26.5450382  61.7577362  64.0072937  26.0259418  62.5803795
   8.8586922  14.7788582  11.6664238   8.9741812  14.4793625  12.5681973
   9.6609716  14.5086422  11.2196999   9.9672289  71.8603516  70.5382004
   9.7137327  71.2268906  69.8668594   9.8109922  71.4068909  71.3665695
  73.6074905  41.4812584  78.0218506  73.2195511  41.5054970  77.1471176
  72.8573380  41.4686356  78.6162796   9.2090607  44.1239777  49.2186127
   8.5197115  44.3445625  49.8450089   9.4298782  43.2137833  49.4161491
  63.7412148  59.8069725  49.9858780  63.0047836  60.4151421  49.9224281
  63.9899902  59.8276558  50.9099541  64.0175247  39.7394753  78.5093155
  63.4944191  40.4379311  78.9026947  63.4576645  39.3793068  77.8215179
   0.8011488  62.1201897  57.9135818   1.5876423  61.6037331  58.0894661
   0.6484208  62.6072769  58.7233047  43.3852844   9.9170294  83.5627060
  42.8461037   9.5436153  82.8655167  43.0223503  10.7914314  83.7038879
  65.4835510  46.2890396  74.2502136  64.6402893  46.7391586  74.3005371
  65.8717957  46.5985451  73.4318619  76.6037292  23.3040600  75.0152435
  76.7777634  23.2004509  75.9507675  76.5163116  22.4090405  74.6873169
  12.1914129  45.8330345  72.6534271  11.3863459  45.4000435  72.9373550
  12.5192051  46.2688828  73.4400787  28.2777691  51.5101891  57.5200119
  27.5244026  51.7839813  58.0431824  29.0168743  51.9884338  57.8958282
  21.8671627  49.7711182  57.3327599  21.3589458  49.7493553  56.5219116
  21.6009922  50.5850220  57.7604828  15.2897329  69.0902405  88.8408051
  15.5423164  69.3646317  89.7223663  15.1860189  69.9088440  88.3556595
  67.1478119  69.3303909   9.9173212  67.7985840  69.8081665  10.4315748
  67.2696228  68.4146957  10.1681051  15.9697828  67.1895142  52.4956779
  16.7714214  66.7981033  52.1486855  15.9177828  68.0455780  52.0706024
  10.3624458  65.8544693  19.0145054   9.6632643  65.6779861  18.3850384
  10.9525576  66.4523239  18.5556297  45.5820198   7.1483517  54.1513634
  46.0260544   6.3511944  54.4405098  46.0270500   7.8540421  54.6205978
  41.7092628  19.5009766  78.7940216  41.1253853  18.7524662  78.9167099
  41.5635643  19.7723637  77.8877335  50.3629875  18.9013042  29.6933384
  50.8942413  19.4438076  29.1105118  50.6393585  19.1543407  30.5741463
  71.6024780  29.3324432  13.0078392  70.7045212  29.4067535  12.6847372
  72.1480255  29.5340729  12.2476072  12.4941940  32.0462837  21.1183167
  12.2765713  32.9703293  20.9957809  12.9124880  31.7877884  20.2970734
  38.6072960  51.8949165  20.6347561  37.8999214  51.6537094  21.2328110
  39.2048988  51.1475105  20.6568108  12.2194653  32.6662102  81.1538620
  13.1080952  32.5676956  80.8120117  11.6533785  32.5104408  80.3978806
  78.4324570  42.6423912  37.6158562  78.9669342  41.8774414  37.4027481
  78.8037186  42.9737053  38.4335480  64.7913971  28.2373371  80.5207367
  65.2091141  28.1293888  79.6662750  64.1975784  27.4900990  80.5931473
   0.4591660  10.5586910  16.7104206   0.3809403  11.3543844  17.2367134
   0.8766114  10.8481979  15.8991518  68.1222229  10.4730520  20.7826996
  68.7974396  10.9693680  21.2452908  68.4623871   9.5789347  20.7498913
  52.6774139  21.5719242  23.5092030  53.4263802  21.2278385  23.9959087
  52.9916153  21.6477108  22.6082230  53.8600197  50.0114937  41.7979851
  53.6883850  49.2402840  42.3383636  53.1535568  50.0134468  41.1521263
  16.8117332  53.6319122  66.6091995  16.6413860  54.4623985  67.0536270
  16.9275665  52.9999275  67.3187180  35.7981644  34.6413269  32.7428894
  36.2279205  35.0591660  33.4891853  34.8915520  34.9450951  32.7876930
  74.6261978  23.8905525  41.4757309  74.7891541  24.8337612  41.4817238
  73.8651581  23.7825947  40.9052963  68.2251511  21.8738327  28.7698479
  68.7166214  22.6213894  28.4294853  68.7148514  21.5979691  29.5446510
   2.6217568  62.8751488  40.7257233   3.0895605  63.3411751  41.4186974
   1.7046022  62.8978691  40.9987488  79.6521759  52.8064041  30.9827557
  80.2542801  52.3745995  31.5887604  79.7708664  52.3409157  30.1548290
  55.6533775  47.1791916  51.9172287  54.8938446  46.6722145  51.6303215
  55.7467613  47.8654289  51.2564812  58.4049950  32.5465088  39.9135017
  57.7120171  31.9943428  40.2756157  59.2176933  32.1209984  40.1868095
  48.6016083  58.9323730  56.7881393  48.7376022  59.7560349  56.3198242
  47.6558685  58.8907280  56.9298134  60.7795029  35.2829590  36.1488113
  59.9030571  35.1277733  36.5009308  60.6270409  35.6082039  35.2615662
  28.3630066   5.4962120  13.2794762  29.1310883   5.8522372  12.8327894
  28.2445984   6.0635304  14.0412903  45.1497993  21.1585751  18.6419563
  45.2119484  21.5242901  17.7595615  46.0025444  21.3400879  19.0370655
  62.5496712  36.4026566  85.0596237  62.1329155  35.5522156  85.1985474
  63.2330360  36.4466057  85.7284393   9.5381279  68.1248245  36.9714851
   9.1696320  68.6210098  37.7024040   9.5950785  67.2262955  37.2965050
  40.6478119   1.8069698  62.8819656  40.3818779   1.4214112  63.7167435
  40.6852036   2.7478740  63.0538139  15.2543468  38.6777802  14.4110689
  15.5153818  39.0927124  15.2332134  16.0010605  38.8119392  13.8274155
   9.1195869  23.6160355  67.0424576   9.3511953  22.7031422  67.2133865
   8.2436485  23.7147980  67.4155655  86.3805237   6.2664733  68.7715607
  85.6018143   6.7946067  68.5957108  86.1535873   5.7567391  69.5493164
  12.3694067  63.6637840  17.6306610  13.2773418  63.7826996  17.9094887
  11.8514910  64.0921326  18.3122139  37.6986618   2.3507113  70.0005493
  36.8488274   2.2639012  69.5687180  37.4855728   2.4815106  70.9245148
  18.7842064  69.6298828  60.6058006  18.3276806  70.0259628  59.8635483
  18.1001606  69.4894791  61.2604752   1.3055035   0.9046996  81.9834824
   1.5395167   0.4424841  82.7883606   0.3769864   1.1124927  82.0879364
  41.6805878  28.2073631  83.8304062  41.9068069  28.3916435  82.9187622
  41.0162125  27.5202637  83.7781296  25.2081985  41.7987747  53.8189812
  25.2751999  40.9332657  54.2222672  25.4866409  42.4050407  54.5053787
  73.5538177  18.4861412  57.8336334  73.4031982  17.9579220  58.6175499
  73.2921600  19.3712502  58.0873032  41.2002525  30.9791622  84.5661621
  41.1797409  30.1152153  84.1545715  42.0295258  30.9972515  85.0438766
  62.7026711  44.4103012  51.0762558  61.7510681  44.3250427  51.1346817
  62.9106445  44.1609726  50.1758041  84.2028580  38.1637917   5.2681832
  83.3278885  38.4490128   5.0049224  84.0461731  37.4897537   5.9295120
  61.2009048  26.3439121  59.5741310  60.2938461  26.4259987  59.2796211
  61.6953773  26.1542492  58.7767868  74.0108490   2.2043035  63.5861359
  73.8116074   2.8684824  62.9262886  73.3116302   2.2928219  64.2338181
  56.6909409  36.7005539  84.2594604  56.6656570  36.5053215  85.1961975
  55.9546051  36.2110481  83.8928223  52.0735397  53.2432518  76.2236252
  52.7952919  53.4020004  75.6152573  52.2951317  53.7600784  76.9982300
  35.2688255  58.1799240  57.3833237  34.5908890  57.7123795  56.8954315
  35.1790771  59.0912437  57.1046181  35.7847672  68.2049103  52.0174332
  35.8794098  67.7816315  51.1641388  35.8480453  69.1411819  51.8286896
  78.8194351  13.0211182  72.3135223  79.5290756  12.9384756  72.9505539
  78.3363571  12.1978540  72.3849716  41.3585014  17.6216793  18.5466824
  41.4789047  16.6733513  18.4975643  42.1420746  17.9396877  18.9951420
  78.9417419  30.2246685  26.0827465  78.9472885  30.5132256  26.9953995
  79.3314362  29.3506832  26.1055069  78.7144852   2.8895350  43.0794830
  79.3073273   3.5689156  42.7582130  78.0910721   2.7582574  42.3650932
   1.9255298  16.5663872  65.3415527   2.5639384  17.1501503  64.9318161
   2.2908440  15.6898327  65.2214279  71.1486130  13.3219147   1.8661572
  72.0153809  13.1467705   1.4997286  70.5693588  12.7076139   1.4152389
  76.5930481  10.6185331  43.3366814  76.7450790  10.9090557  42.4373932
  75.7816391  10.1127977  43.2910614  36.4479980   0.8398083  53.8671417
  36.3593979   0.3469583  53.0513725  36.8687668   1.6593729  53.6073380
  76.9454498  32.6325531   5.7310576  77.1252594  33.1308975   4.9338431
  77.7389374  32.7286949   6.2577066  42.8390121  25.7735500  13.1932144
  43.7076797  25.6931591  13.5871487  42.7907867  26.6845760  12.9034948
  80.3812561  60.0643997  84.7739944  80.8021851  60.7809830  85.2489243
  79.4638901  60.1041412  85.0443726   0.3401372   8.2117243  34.6169968
   0.6599290   7.5838923  35.2649117   0.8844221   8.0573206  33.8448906
  29.2609520  28.9036655  83.0354843  29.3245811  28.1197166  82.4899521
  29.8518467  28.7335835  83.7690735  76.7399139  65.6264954  72.4712524
  76.1568222  65.1396713  71.8888092  77.2051086  66.2314911  71.8934937
  42.8277321  15.2041321   6.7236471  43.5360718  15.3654003   7.3469310
  42.5577011  14.3021450   6.8960819  61.7910194  33.7929420  82.0083694
  62.5373726  33.2606010  81.7330627  61.1462669  33.1581306  82.3206863
  64.0142212  14.5452776  65.6326752  64.1399460  13.6842041  66.0313950
  63.9939156  15.1514578  66.3731918  19.2616119  54.5017853  72.0715637
  19.7657661  53.8633308  72.5759811  19.7928429  55.2977409  72.0935669
  43.1967392   9.4485874  79.7371368  43.8808823   9.2554121  79.0961533
  43.2594490  10.3934374  79.8769913  20.2670860  67.8978882  74.2911224
  20.5870628  67.9047470  73.3890152  19.3728485  68.2339096  74.2306290
  62.5986633  47.2762108  74.4129028  62.6639633  48.2039223  74.1863632
  62.3256035  46.8499298  73.6005325  81.5219193   9.4270477  28.6382484
  80.8122253   8.8995705  28.2717304  82.0925293   8.7925920  29.0719509
  47.1932602  69.4516602  56.2568588  48.0225143  69.1526260  56.6298866
  46.6323624  69.6100769  57.0161514  16.9115639   0.3120944   6.1053090
  17.8357639   0.3522046   6.3512325  16.4495850   0.7069906   6.8448114
  79.8394623  26.0349979  14.5367336  79.7567978  25.5064011  15.3304472
  79.7469482  25.4071770  13.8201351  69.8994217  21.1746330  13.6528749
  69.7186356  21.7732296  14.3776035  70.8524017  21.0849342  13.6483488
  66.0433273  46.9343910  67.2323227  65.2354279  47.2887268  66.8608704
  65.7510910  46.2398453  67.8226013  64.1379700   3.6178000  43.3395004
  63.2863846   3.3916619  43.7135201  64.1677246   4.5739722  43.3723869
  86.6345215   0.6234637  74.9997482  87.2265778   0.3621801  75.7050400
  86.4644012   1.5514708  75.1612854  53.8652725   0.2386374  47.3096809
  54.2858925   0.4948870  46.4889221  53.1093521  -0.2824306  47.0389366
   6.2393351  59.0662537  28.3418026   6.9784317  58.5595360  28.6782608
   6.3325539  59.9264717  28.7511520   1.8221425   2.9979956  36.4510117
   2.6660550   2.8698223  36.0178680   2.0099192   2.8774219  37.3818359
  14.1111898  62.2133865  56.2177505  14.6422358  61.5081444  55.8478088
  13.2287369  62.0481110  55.8857994  52.2220993  31.0869083  45.6835480
  51.5305405  30.7031212  46.2227020  51.8987312  31.9611340  45.4658508
  46.5121880  57.5973930  37.3808975  46.7471390  57.4594040  38.2984962
  46.8578186  56.8288116  36.9269676  26.9528351  -0.2835928  51.3267937
  27.1530056   0.2472264  50.5558243  26.9418049   0.3414611  52.0516510
  34.5119896  42.4848976   3.1555934  33.9273491  41.7322998   3.0660195
  35.1508713  42.3770790   2.4510109  86.7418442  37.9590759   3.9689350
  85.8439026  38.2085190   4.1873460  86.6467285  37.1923332   3.4038773
  76.2802887   5.9578557   7.7803073  77.0839615   6.4607320   7.6481991
  75.6274872   6.4033837   7.2403235  22.1464653  61.4401817  70.4490356
  21.3761463  60.9771309  70.1197510  21.8249912  61.9333687  71.2037888
   7.7225590  58.3691750  19.8198872   8.0385151  59.2629623  19.9523563
   7.5269117  58.0512009  20.7012749   1.7020515  42.7200241  33.0543137
   2.6351242  42.8294792  33.2376900   1.5010781  43.4057426  32.4174194
  34.7719193  40.3874969  -0.0617330  35.3175201  41.0716629  -0.4496348
  35.1304398  40.2648659   0.8172752  50.1099586  63.5845490  48.8571663
  49.9765205  63.9621048  49.7265778  49.5615807  64.1148682  48.2790031
  60.9225311  14.1516123  14.9929962  60.1272926  14.6466579  14.7961359
  60.7015724  13.2464113  14.7738619  57.4637642  19.2776890  13.7002773
  56.9976768  18.4445038  13.6310425  56.8270493  19.8766289  14.0902700
  17.9496574  37.5238991  72.6193008  18.0648270  36.6277962  72.9354706
  18.4911823  38.0552673  73.2029343  71.3028183  12.8944035  76.2006073
  70.5668106  12.6803007  75.6273041  71.8269501  13.5159960  75.6954880
  57.4055862  49.0635757  26.2951756  57.7748337  49.9289360  26.1190033
  57.8197670  48.4905548  25.6499348  58.7296295   2.2098143  73.2299881
  59.4759903   2.5730407  72.7532883  58.9542732   1.2885749  73.3606949
  77.4408646  53.7279816  48.2005882  76.5629883  54.0964775  48.1017151
  77.3153076  52.9540253  48.7496376  30.6224518  57.2166672  24.1903191
  29.9334755  57.7502136  23.7942505  30.5235901  56.3564377  23.7823162
  46.3753662  26.5305786  64.8231659  46.7922897  25.7552719  64.4472656
  47.0829124  26.9850979  65.2803650  64.5970459   4.4478455  50.4398537
  65.1894760   3.8986363  49.9264069  64.5179596   3.9950371  51.2794609
   0.6113958  17.9191933   3.9468825  -0.3258525  18.1112938   3.9169767
   0.9976275  18.5094185   3.2998199  21.0898762  52.8606186  29.2349606
  20.4222565  53.4696960  29.5504570  21.9132996  53.2105408  29.5751915
  48.4769592  37.0011139  63.3519707  48.3907013  37.9480019  63.2415543
  48.6581268  36.6727982  62.4712791  60.4073753  23.8946095  20.3251019
  60.3375740  23.9403801  21.2786560  59.6040916  24.3059692  20.0061264
  80.1187973  30.7311172  46.0998116  80.5026474  29.8557053  46.0493546
  80.7634964  31.2999458  45.6790619  71.4758606  27.7586498  33.5972176
  70.5756378  27.6917591  33.9155846  71.9490585  27.0749969  34.0714912
  78.9582901  52.0556335   5.6079316  79.4328079  51.5884247   6.2955236
  78.0400391  52.0042114   5.8732629   3.2210343  49.1745262  32.4245834
   2.8271191  48.3155518  32.5769730   3.8939233  49.2528229  33.1008415
  51.5810013  61.0918427   9.4955158  50.7228699  61.5130234   9.4460239
  51.4195099  60.1870651   9.2280626   7.2649465  45.3344307  35.9177818
   7.8458786  45.4130096  35.1610947   7.3579078  44.4237671  36.1975632
  10.2635670  29.9470730  80.0811920  10.3678036  29.1532593  80.6058121
   9.7374420  29.6708546  79.3307800   7.2378674  67.8927536  79.8977280
   7.0342379  66.9935684  80.1550751   6.4185424  68.2294464  79.5349960
  32.3258362  62.6981049  52.3030128  31.6265717  63.1274910  51.8101768
  31.9422684  62.5266914  53.1630859  69.0520477  53.0286446  29.7829533
  69.0209885  53.4341583  28.9164524  69.6025085  52.2544250  29.6654778
  56.5168571  33.8685150  14.4341793  57.0060310  34.6779785  14.5815182
  56.9196739  33.2339745  15.0269108  84.6931076  23.2839050  35.4926453
  85.5200348  23.6806870  35.2188263  84.7232437  22.3965206  35.1350479
  29.3559895  24.2738094  23.4943180  28.5414352  24.6165924  23.1265774
  29.2641716  24.3999634  24.4387150  53.8306961  38.5986633   2.5897942
  54.3101044  38.3629951   1.7955273  53.0670967  38.0214767   2.5887992
  53.3455200  24.6036758  14.2059631  53.3629570  24.5890102  15.1628914
  52.5974503  25.1598663  13.9885397  49.5035629  49.4942131   7.6259451
  49.7464142  48.6371269   7.9761686  48.7008553  49.3317871   7.1304541
  43.9231148   5.2405186  85.7474289  43.0644836   4.8790140  85.5276566
  43.7833099   6.1868896  85.7801132  46.9746742   4.1329212  61.9557610
  46.2650452   4.7227368  62.2102699  46.8198204   3.9585028  61.0274124
   3.9280932  14.2088966  58.4117126   3.0807123  13.8061371  58.6013489
   4.3212438  13.6395273  57.7502861  55.3502350  16.8934917  13.4413795
  55.0969658  15.9705505  13.4250984  54.7429085  17.2976246  14.0611057
  34.6611252  60.4757690  17.9712257  34.9218559  61.3441124  18.2782021
  34.8782692  60.4761162  17.0389805  67.7354279  44.5898933  59.1376648
  67.6558380  44.1698761  58.2812309  68.6731567  44.7538109  59.2378235
  81.9801712  68.3778229  35.1343994  81.6282730  68.7640305  34.3323784
  81.2257462  67.9606476  35.5503807  86.0474319  44.3654251  62.6036530
  86.4003448  44.0232086  61.7823296  86.6111603  43.9914436  63.2808380
   4.3117409  30.6948795  55.4482002   4.8709469  29.9248543  55.3453407
   4.8994904  31.4377918  55.3108444   8.1090240  40.7857056  70.0315704
   7.8220053  40.8599472  69.1214371   8.2392721  41.6902847  70.3161850
  24.9525070  41.3073730  66.6801529  25.7851524  41.4754524  66.2389297
  25.1880932  41.1932602  67.6008682  79.9360809  44.5656166  32.8257866
  79.5087051  44.1107292  33.5515022  80.5992203  43.9496269  32.5142899
   2.8387797  63.9818764  73.2467804   2.3995507  64.3672256  74.0049515
   2.1482091  63.5044632  72.7869797  39.7619972  45.8514824  22.4334602
  40.7061539  46.0079727  22.4159393  39.6749687  44.9020424  22.3484612
  57.0139771  62.8361092  66.5281830  56.7661552  62.2929306  65.7800064
  57.8253975  63.2641678  66.2550735  32.1391945  42.1650314  20.6560516
  32.3748474  41.9325066  21.5541782  31.9017658  43.0911369  20.7028522
  37.4226837  48.3122597  51.6413651  37.2291832  48.9949570  50.9989357
  37.4672012  47.5057526  51.1277580  86.5092163  42.9836082  87.9558716
  86.2108765  43.8699265  88.1599808  86.1360550  42.7977600  87.0942154
  30.5957222  51.5244865  76.7788773  30.7197723  52.4601974  76.9379120
  30.1703529  51.2009048  77.5729752  83.0172272  16.0889473  11.4114313
  82.9718018  15.1329126  11.4243813  82.1108932  16.3734093  11.5292349
  50.9935112  40.2709007  86.8078766  50.9312668  39.8881378  85.9327469
  50.1182556  40.1619568  87.1797562   7.5863080  36.6983032  49.1165123
   8.2819519  37.2938805  49.3950768   6.7787132  37.1179886  49.4129715
  57.5903397  45.7397270  23.9339104  57.9730759  46.5950737  24.1291580
  56.9103699  45.9238815  23.2858696  30.8790703  44.3259735  85.7009201
  31.4582195  44.9785576  85.3072815  31.1815662  43.4909096  85.3440018
  86.2185669  30.5405140  58.2645836  86.8297348  29.9259338  57.8583870
  86.7712936  31.1083221  58.8015327   2.5722923  37.0389214  77.9247360
   3.1861210  37.3322983  77.2514038   2.6411266  36.0842819  77.9120255
  85.3326416  55.7926140  53.8393974  86.1604080  55.3191452  53.7566032
  85.4872589  56.6251793  53.3931236  61.7599449  37.4593010  31.8136806
  61.4378357  36.7942123  31.2052917  62.0226936  36.9659538  32.5907288
   0.8579065  52.3504715  88.7435837   1.7486418  52.3058891  88.3959732
   0.5534245  51.4429970  88.7392807  31.0139809   5.5036926   4.0471425
  31.6860104   5.2016563   3.4360919  31.4972134   5.9971552   4.7098746
  12.5711145  64.1926575  44.4671211  12.6684265  64.7916183  45.2073975
  11.6375437  64.2205276  44.2575989  75.2437744  55.9096069  19.7651806
  75.3188019  56.4092979  20.5781441  75.6552887  56.4655304  19.1034927
  47.2912369  14.7464762  68.9191132  46.4289131  14.8730249  69.3148651
  47.1380577  14.8333359  67.9782562   8.3522749  67.4876328  55.3147430
   7.6860614  67.3918991  55.9953499   8.4050865  66.6227875  54.9079399
  71.2149887  57.7672005  31.2481136  71.7318420  56.9739151  31.1074390
  71.5887527  58.4071503  30.6423149  21.9336090  17.1528873  88.3070068
  21.5107574  16.3097515  88.4699478  22.3881989  17.3548603  89.1248016
  61.2475586  28.3525448  30.8594418  61.5806084  28.6702309  31.6987190
  60.8165321  27.5244255  31.0707855  34.2744637  51.6776581  41.9185715
  34.9922142  51.0999298  42.1779785  34.5874939  52.5575714  42.1283340
  52.7189140  71.0337448  86.6537628  53.6348534  70.7925720  86.5154877
  52.5601845  70.8505859  87.5797729  23.1559200  67.7905045   8.0711927
  23.2808495  67.5521851   7.1525908  22.6801987  68.6205597   8.0407276
  53.5575829  46.8266182  39.3663597  53.0696106  46.6559448  38.5607643
  54.4621010  46.9474869  39.0774498  48.5327263  38.5481796  33.1179352
  49.3681679  38.2243805  33.4547234  48.7321396  39.4224510  32.7830925
  45.0640450   8.0906839  77.6748962  44.5716209   7.4497771  78.1877213
  44.9935303   7.7802615  76.7721786  66.8592453  68.0685654  52.4517212
  66.4482346  68.5347672  53.1796989  67.0537109  67.1996613  52.8030357
  66.2433243   4.3037152  17.1443520  66.0064468   3.8491707  17.9527493
  66.1050491   3.6541648  16.4550076   3.9581778  66.7489471   1.5772973
   4.4698224  67.2622910   2.2025433   4.6125965  66.3389282   1.0117421
  70.6101608  51.6749153  46.1185341  71.0437622  51.3715477  45.3209190
  70.2268524  52.5180779  45.8769035  74.5337753  67.9505692  25.6377506
  74.0371552  67.2799301  26.1066265  73.9617233  68.2114258  24.9159870
  51.2169876  50.9678421  47.9114304  50.4096298  50.4577713  47.9764862
  51.1344223  51.4425125  47.0843277  35.8430061  43.4784279  42.8742561
  36.2729416  42.7974510  43.3916130  36.5010414  44.1688042  42.7929993
  60.2913895  37.8313751  63.8091774  60.2608833  37.2892418  63.0208931
  59.3733940  37.9551926  64.0503845  63.1629791  24.5017986  84.8486938
  63.7426262  23.7670383  84.6477737  62.3429947  24.2887611  84.4031982
  58.9238815  31.2116127  70.9961624  58.9543953  30.5846996  71.7188492
  58.5809593  32.0140572  71.3895035  29.0194149   3.2717643  69.3304520
  29.4420815   3.7142353  70.0665283  29.6815186   3.2711234  68.6391830
  44.8801231  38.5617027  25.5820122  45.6293869  38.5945244  26.1767864
  44.1423683  38.3145714  26.1395760  55.6716614  62.8659744  70.8950500
  56.6176491  63.0040970  70.9425430  55.4157181  63.2477455  70.0554276
  18.7650871  34.2910080  33.5862427  18.9592133  34.8980446  32.8720589
  17.9557610  33.8561668  33.3176613  32.7422676  34.9245262   5.9249859
  33.3904610  34.2233925   5.9919543  31.9161034  34.5117607   6.1766033
  22.2561245  47.3077621  38.2900505  22.6484585  47.4439850  37.4276428
  22.3258209  48.1590767  38.7220650  22.7713356  53.7460518  43.1882668
  22.3667297  54.6134720  43.1985168  23.5597324  53.8557777  42.6566429
  84.7083054   4.8835945  56.3614998  85.0353241   5.7252645  56.6791267
  84.8823090   4.2732100  57.0780106   8.3343897  47.1476059  48.5203056
   8.6670370  46.3277664  48.1550064   8.7234526  47.8292503  47.9723816
  37.5967979  44.7367134  77.6506348  37.6438828  45.6051941  78.0503235
  36.9757919  44.2549629  78.1969833  55.2626038  13.9430323  59.2920113
  54.4081039  14.0131168  59.7176247  55.0621033  13.6772738  58.3945694
  25.5336990  42.5743027  38.1987228  26.0526581  42.8369942  38.9589233
  24.7714405  43.1529541  38.2175484  40.7333298  58.3472557  52.3917770
  40.5374146  57.4566231  52.1008759  41.1554604  58.7582207  51.6373596
  74.7745667  62.0648689  38.1119308  74.2706146  61.5501213  37.4816132
  74.5946045  62.9749908  37.8762894   4.1667705  24.2811604  11.8241978
   5.1024642  24.2893524  12.0257969   3.9335485  25.2049179  11.7319250
  69.9083481  40.9191933  84.3139114  70.7982941  41.1229095  84.6015396
  69.9313583  39.9848137  84.1074295  43.6074791  59.0205040   6.4248247
  44.4155998  58.6521759   6.0677423  43.8814087  59.8348045   6.8468537
   8.4726858  49.9632721  58.1108971   7.5429821  50.1898499  58.1342659
   8.4847860  49.0115128  58.0097160  48.5553169  11.0916300  22.3295403
  48.9029846  10.2357283  22.5801239  47.6064835  10.9674177  22.3068123
  82.2974319  44.9882202   7.9132571  82.3675842  45.7397575   8.5019045
  82.7942963  44.2956467   8.3487968  44.8817024  13.0037222  67.7357712
  44.8502846  12.0493469  67.8021927  45.2654991  13.2890158  68.5649490
  47.5300407  53.0664864  27.1692924  48.2287292  53.5863495  26.7720394
  46.8408012  53.0445328  26.5054436  11.7197933  17.5840111  12.6558285
  11.3499136  17.3898201  11.7946024  11.0843449  18.1734467  13.0620356
  74.3405762   1.1369184  45.9283524  74.2101974   0.1900512  45.9800911
  74.4360657   1.4156560  46.8390770  13.4824333  65.1008453  66.4218750
  12.5587616  64.8869629  66.2902756  13.5360069  65.3787689  67.3362732
  37.0482788  49.3523483  45.5648308  37.5044823  48.5927658  45.2026901
  36.7753716  49.8559074  44.7979012  15.0210524   0.6966240  73.8206711
  15.3424940   0.5182991  74.7044754  14.0704842   0.6072446  73.8889618
   7.5662999  21.8072529  55.4649010   7.0661368  21.2781830  54.8434868
   7.3115640  21.4718208  56.3244514  45.0818062  54.3538475  -0.2420045
  44.2237320  54.7247391  -0.4478555  45.0360832  54.1481628   0.6917168
   3.2653983  48.2575912  45.6022720   3.1552970  48.5702667  44.7043076
   2.5661032  47.6145554  45.7194176   0.4195389   0.8894223  51.5870552
   0.2245088   0.2283314  50.9228630   0.1929713   1.7211313  51.1709328
  46.2543297  55.4538956  60.3939285  46.8100433  55.7442360  61.1171989
  45.7940140  54.6883812  60.7379227   4.7680693  71.1719208  53.7536278
   3.8198121  71.2816925  53.6829796   5.0772696  71.1713943  52.8477440
  51.9849129  33.6566467  35.4292641  51.8102684  34.3746185  36.0377464
  51.8142853  34.0290260  34.5641327  17.9191227  66.3347015  60.3872681
  17.5176067  66.8134995  59.6621666  17.9254303  66.9594193  61.1124687
  55.0978241   5.0816851  80.5936661  54.6671143   5.2901111  81.4226913
  55.6309586   4.3107967  80.7879181  67.4703598  58.8437119  82.7390137
  66.8813019  59.4649696  83.1671295  68.3435669  59.0955467  83.0395355
  82.4721603  59.1470108  50.9834061  82.5306168  59.7924652  50.2789879
  81.5462112  59.1403275  51.2259026  56.3025360  47.2752380  12.5310793
  55.3587532  47.3111839  12.3754702  56.5724449  46.4299583  12.1720781
  55.2598686  54.4836540  31.0390625  55.8718491  55.1677780  31.3105164
  54.9170761  54.7885284  30.1989555  74.5360947   4.8880143  55.6333122
  73.8000336   4.3623362  55.9465408  74.1461563   5.4956517  55.0048523
  48.7814674  14.1598988  30.5604019  48.7815170  14.5471497  31.4357700
  49.6845016  14.2534370  30.2570705  34.1051941  53.9662857  72.3027496
  34.5807114  53.1452827  72.1760025  33.6046791  53.8314095  73.1074371
  33.0832138  53.5403824  74.9664841  32.1663475  53.4673691  75.2315445
  33.4794235  52.7146111  75.2446136  69.8228378  48.0635910  69.9934082
  69.8284760  47.4196815  70.7016296  69.5110474  48.8695831  70.4049759
  86.6153488  37.4143600  87.3360443  86.0686111  38.1957512  87.2539902
  87.3899612  37.6074905  86.8079224  10.4752779  43.7069168  76.5768738
  10.3056297  42.8903008  77.0465393  10.3521328  44.3914642  77.2344894
  74.2284775  22.6683941  55.7795258  74.8448868  23.3705521  55.5715866
  73.9586716  22.3263378  54.9272156  47.6497040  31.1419945   5.7870111
  48.3776016  31.6639748   6.1245503  46.8751144  31.5054398   6.2161422
  29.6041298  42.0062027  16.5909138  29.9113598  41.4641190  17.3175411
  28.6730213  41.7980576  16.5138054  80.0850677  64.8671951  46.0489349
  80.8101730  65.1477509  46.6072731  79.3072739  64.9683456  46.5976028
  19.6015320  22.6552868  14.6455154  19.1822357  21.9091492  15.0741177
  19.2417698  23.4214668  15.0924740  13.6995106  56.6877670  58.4553757
  12.7963848  56.9903145  58.5505600  13.7266550  55.8600311  58.9353180
  68.5067673  20.2442799  33.6987343  69.3010788  20.5718727  34.1206169
  67.8805313  20.1402645  34.4151421  15.5406609  71.0232315  20.6589909
  16.3901157  70.6833344  20.9402905  15.5897036  71.9634018  20.8319073
  77.7425995  62.7914810  68.3667679  78.0621643  62.4476280  69.2009659
  77.4721756  62.0156097  67.8757248   3.4110599  58.3208656  81.7734985
   3.5862031  57.4276009  82.0695343   3.3008461  58.2418785  80.8259506
  21.6087017  24.6212349  68.8211212  20.9133186  24.5559635  69.4756546
  22.3501396  24.1593723  69.2125092  83.7493515  61.1421356  80.4444580
  84.3285828  60.8662224  81.1548080  84.0224762  60.6144180  79.6940308
  41.9843254  29.2975483  74.5182343  41.0681801  29.5746288  74.5066452
  42.3814240  29.7520370  73.7752762  71.8090897  38.5664635  75.5864563
  72.5238953  39.1895065  75.4556732  71.2668686  38.9636345  76.2679825
  48.0186806  39.6995125  85.1904297  47.4131012  39.4610825  84.4885330
  47.4878654  40.2105141  85.8014450  20.5054169  69.1408997  71.6720810
  19.6032829  68.9690094  71.4021912  20.5443821  70.0904312  71.7865448
  14.7935190  66.3261795  34.7716980  14.0325565  66.8462296  35.0299950
  15.5461102  66.8580780  35.0303841  59.3317413  19.6214867  73.5912323
  59.5167847  20.5132961  73.2968369  59.7650909  19.5553932  74.4421539
  18.9407406  59.1130257  78.9795456  18.9425354  59.9284019  79.4809341
  18.1386433  58.6667099  79.2509766  59.8383522  29.6500168  18.7654552
  59.6702843  29.7320862  17.8267078  59.3077507  28.9018707  19.0392647
  85.7715759  27.5045757  27.8746929  85.7040329  27.9566822  27.0337009
  86.7058334  27.3213043  27.9737396  58.2309837  56.2371521  39.1986656
  59.0420876  56.0715561  38.7181206  58.4782295  56.1588364  40.1200600
  50.4401207  59.6138153  37.7896767  49.9111061  60.0379333  37.1140327
  50.3459053  58.6774216  37.6149750   8.1683426  63.7487030  73.4738159
   8.3728781  64.6782379  73.5756226   7.2316351  63.6876640  73.6611252
  48.3844681  48.0377197  10.8353052  49.2975426  47.9127121  10.5766506
  48.4338226  48.4133110  11.7143545  18.1032581   3.4018431  85.3936234
  17.8232937   3.9965448  84.6977921  17.2875786   3.0535243  85.7535858
  25.8406849  48.0953865  21.4808235  26.7655087  48.2227859  21.6922493
  25.3983212  48.8444862  21.8800640  42.6665535  20.7305565  12.5367756
  42.2158318  20.9504910  11.7214775  42.9403992  19.8206844  12.4211388
  15.8996391  45.0011520  28.5344276  16.5115833  44.6368713  29.1740036
  15.0427294  44.6762772  28.8108215  55.1821442  16.6575756  24.8032455
  54.5039444  16.9230289  24.1821060  55.2097130  17.3668976  25.4453793
  -0.2088217  37.4827538  83.3606720   0.7021222  37.6799507  83.1426697
  -0.1690825  36.6434326  83.8191452  53.3996048  60.2219009  38.4101028
  52.6997795  60.0416260  37.7824249  53.0483704  59.9291649  39.2510376
  17.3011608  43.6713829  32.5352440  17.4909744  43.6396866  33.4729004
  18.1201401  43.9632149  32.1348190  52.8516388  38.8507423  29.7031879
  53.6209793  38.8709602  29.1340294  53.1557198  39.2244568  30.5302944
  60.1967773  32.4700661  59.4049301  60.8975563  33.0635414  59.6749840
  60.2202797  32.4913445  58.4482536  26.3509483  10.5135956   7.0818391
  25.6560326  11.0703964   7.4329743  27.1468582  11.0373888   7.1734886
  36.2347107  42.6626892   5.6113214  36.5746498  41.9012985   5.1412621
  35.5152588  42.9796791   5.0653009  52.1678543  30.9090881  35.4816208
  51.9855385  30.4298706  34.6733246  52.0356903  31.8283978  35.2500305
  39.4204941  45.4997139  63.1677246  40.1882591  45.0920792  63.5684738
  38.6764832  45.1217384  63.6365700  74.3014832  30.0663280  70.5645142
  73.6107483  30.7138519  70.4236526  74.9083939  30.4914894  71.1704254
  20.8509350  61.7364235  30.0299187  20.0159111  61.3746452  30.3267078
  20.8972301  62.5999451  30.4403038  43.0917435   8.8119898  88.9145279
  43.9529152   8.4024363  88.9974976  42.7756615   8.5330477  88.0551605
  79.4046936  66.6447525  30.6001396  79.3047638  66.8746796  31.5239258
  78.8284454  67.2535934  30.1380939  29.0611362   3.3163974  33.1327705
  30.0063591   3.2705760  32.9889488  28.6877460   2.7582207  32.4506798
  70.6753311  51.7895203  54.3380203  69.9499512  52.3972778  54.1942215
  71.4613419  52.3157005  54.1912193  68.0828018  57.8974609  23.5339584
  67.5594788  57.1815529  23.1736317  67.9575729  58.6193008  22.9179249
  53.1313248  19.9507332  74.8817062  53.6026649  20.5576992  74.3110352
  52.5028687  19.5178032  74.3039093   8.2741985   7.8640265  62.7184830
   7.6004381   7.2267327  62.4815521   7.9859800   8.2152586  63.5609779
  84.7603302  61.9103203   1.3309427  83.8433228  62.1354637   1.4878824
  84.8257370  60.9874153   1.5762948  55.0898705   1.5242990  45.1877747
  55.8673820   1.5257382  45.7460785  55.0126610   2.4281654  44.8823280
  86.6485367  15.6106787  23.5202141  87.3124771  15.6288424  24.2094784
  86.1569977  16.4232998  23.6396637  53.6885262  45.2635078  74.1905518
  52.8796654  44.8594093  73.8764114  54.2321053  44.5264244  74.4688721
  70.2983017  57.7565079  -0.0664643  69.9829330  57.5107269   0.8032283
  71.1260071  57.2855339  -0.1630359  75.5836334  49.3126373  85.7231216
  75.2968292  48.4373932  85.9837494  76.5125809  49.3384781  85.9525223
  37.4998055  63.7052689  69.9653778  36.7617874  64.3144836  69.9857788
  38.2564507  64.2526016  69.7552643  82.0893173  31.8056183  83.8214111
  82.7671738  32.4046364  83.5084915  81.5673752  31.6073704  83.0439072
  17.9163074  11.5401077  62.3458481  17.8706264  12.4490471  62.0492401
  18.3784866  11.0820322  61.6438599  28.2922287  48.3946075  50.7371063
  28.7041206  47.6011848  51.0792465  28.9138508  48.7270317  50.0895653
  68.1211853  18.0163765  43.4601593  67.4428253  18.4256039  42.9229469
  67.7316132  17.9553547  44.3323631  72.0730438  68.1572037  76.4968185
  71.3925095  67.4925461  76.6032562  71.7915802  68.6688690  75.7383881
  61.8129425   2.4671004  18.4161339  61.2927246   2.9159031  17.7496662
  61.7839584   3.0496895  19.1750679  64.7764053  50.8946381  23.6665974
  64.0308685  50.3670769  23.9530945  64.9360199  50.6142464  22.7654133
  43.8556976  38.2732124  85.8845673  43.7408943  37.6834259  86.6296844
  43.3072777  37.8981514  85.1955109  23.5406513  22.5052223  61.3697968
  23.9677010  21.7403755  60.9839630  23.9717979  23.2537365  60.9574013
  84.8054428  56.6154442  58.9078941  84.5757599  57.0912094  59.7060966
  85.7611465  56.5649796  58.9257584  58.4942245  43.1710091  11.4014015
  59.1267967  43.5081291  12.0357790  59.0255966  42.6954651  10.7628603
  38.2746887   3.8703086  85.1764679  37.4914169   4.4088941  85.2888947
  38.6945686   4.2193794  84.3902893  30.0233860  18.8081036  88.9430084
  29.2118073  18.8425865  89.4493484  29.7453060  18.5596313  88.0614319
  39.7157784  40.2001991  83.5641251  39.8659248  39.2736664  83.3764343
  40.4243202  40.6547508  83.1085129  27.9100285  16.0775757   4.1109257
  27.6294022  15.6850986   3.2842205  28.8560486  15.9337635   4.1353917
  17.1901836   2.9347279  16.3600216  17.5877247   2.7732444  15.5043840
  17.1489334   2.0715654  16.7717018  27.3995647  23.4922905  81.3416138
  27.2737789  22.5872536  81.6267776  26.9971619  24.0191002  82.0320969
  83.0859222  45.3300323  76.1616516  83.6273727  44.9855309  75.4514542
  83.7089539  45.7451897  76.7580643  59.8854408  49.8611794  73.6623306
  59.7866249  50.7508469  73.3232651  60.5429382  49.9399338  74.3535080
   2.2306271  28.3402042   2.9628685   1.9061892  28.4278717   3.8591309
   3.0072806  28.8989372   2.9335611  81.1882019  58.0629120  18.2208862
  80.9734192  58.4886589  19.0508518  82.0897446  57.7613144  18.3326683
   6.7692475  67.0113220  72.4058533   7.6323524  66.6097412  72.5059357
   6.9364967  67.8218079  71.9248428  62.6869354  48.1276398  52.9267082
  61.8056526  47.7540703  52.9227715  62.5905075  48.9640274  53.3821068
   4.3546982  13.5889559  27.1351891   4.9512615  13.8945389  27.8185349
   3.7731805  14.3321962  26.9749908  31.8579845  37.5837517  24.5546036
  32.1918869  37.1445618  23.7723923  31.2729492  36.9424820  24.9580154
  50.1401100  27.9032631  85.0792313  49.3264046  27.4969978  84.7807999
  50.5487328  27.2403145  85.6357956  44.2195015  25.9515629  78.2303848
  43.7213631  25.1478825  78.0814209  44.2270851  26.3898411  77.3794479
  34.8313065  51.0870094  72.4676743  34.2312927  50.9638405  73.2032318
  35.2227058  50.2242775  72.3308029  27.6150284  27.7928333  10.3915100
  28.4601688  28.1077271  10.0708685  27.8121777  26.9484158  10.7968779
   2.6084678  42.9778671  63.6116486   2.7368968  43.9157295  63.4696770
   2.3406103  42.9088135  64.5280075  60.1501389  19.0489082  55.9375381
  60.4893875  19.1622791  55.0496826  59.5129662  19.7554626  56.0425148
  48.1029510  66.4525986  36.6266174  47.4934845  67.0907440  36.2557411
  48.1461105  66.6750488  37.5566101  59.2842827  64.1888275  18.1843090
  58.8437996  64.1003418  19.0295162  58.9626656  63.4497108  17.6680698
  67.5605469  62.2240715  71.9482193  66.7369843  61.8336563  71.6557388
  67.5918045  62.0417900  72.8873825  21.6865482  33.5580406  15.0616522
  21.0394497  33.0281334  15.5271511  21.4282932  34.4623985  15.2396317
   8.6763706  56.2716713  18.1897697   8.3128939  56.9213028  18.7915134
   8.9028273  55.5280685  18.7483406  54.6318321  16.7149715  58.0581017
  54.2063637  17.5066986  57.7288933  53.9657326  16.0326614  57.9744492
  20.9380455  65.9911270  36.8616104  21.2815857  65.9580917  35.9687958
  21.1814613  65.1477203  37.2432632  40.8486290  58.6027641  12.2043257
  41.0262375  58.4637299  11.2740803  41.7148399  58.6602135  12.6075735
  51.0579033  56.0816536  71.2045441  50.7995529  55.9534225  72.1172562
  51.4556808  55.2493591  70.9490204  53.9460106  25.3451862  49.3736115
  54.6705170  24.9710388  49.8749466  53.1614952  24.9544659  49.7584610
   7.4046369  44.6036568  20.1965656   6.8141031  45.0435219  20.8081379
   6.8879805  43.8791313  19.8439159  29.8149223  16.9893589   8.2978907
  30.4024258  16.5368137   8.9030991  28.9697914  16.5554695   8.4150448
  25.3620358  33.0326729   9.9721651  26.0234356  32.3921356  10.2338820
  25.7591324  33.5004425   9.2374973  79.2982941  46.0613594  79.5184708
  79.1575394  45.1189346  79.4275970  78.5992737  46.4590797  78.9994125
  71.9862518  13.0756531  30.8467693  71.4692001  12.4309530  30.3638058
  72.1376419  13.7810736  30.2177277  11.0395432  61.1471748  50.6206589
  10.3451862  60.5816574  50.2825928  11.7683125  61.0210152  50.0130310
  20.3033504  14.2752209  15.8446035  21.0103970  14.0139809  16.4345798
  20.3337650  15.2319365  15.8431921  74.1171112  65.0806274  58.2169495
  75.0583344  64.9221115  58.1447754  73.7310028  64.2068405  58.2772903
  73.9004517  63.7088242   6.4788599  74.1215515  64.5296555   6.9188471
  74.7458115  63.2943192   6.3062811  70.0832214  67.9591599  14.2749920
  70.0801544  68.7767258  14.7727985  70.9726334  67.6202469  14.3765383
  41.7021713  43.7398491  46.2718353  40.9264793  43.1894722  46.3796425
  42.3207169  43.4125519  46.9249153  62.3261719  60.8329086  39.6029205
  62.4571228  61.7535477  39.3759727  62.2398605  60.8311615  40.5562210
  67.8992233  70.3299789  18.6047764  67.1015854  70.6131210  18.1577549
  67.6819229  69.4678116  18.9592896  69.9402542  22.3674927  23.0209217
  70.0588837  21.6027546  22.4575958  70.3713303  22.1295052  23.8417549
  50.7957497  38.5758286  35.8818169  50.1314468  38.7138138  36.5570145
  51.4956207  39.1893349  36.1054764  82.9203491  69.0091476  83.2025757
  83.2348785  69.6629333  82.5781860  83.1204376  68.1686783  82.7904968
  82.9703064  42.2216949   3.5627358  82.8225098  41.3939629   3.1052969
  83.9181824  42.3498001   3.5258484  26.3111610  55.7612228  79.5357819
  25.9226589  56.5985947  79.7889709  26.3482761  55.2586021  80.3495560
  60.9512596  18.5321484  60.3114052  60.9420395  19.4868526  60.2429390
  61.0583992  18.2284050  59.4100189  69.0863800  24.0560837  85.0634308
  69.9033813  24.5527058  85.0175629  69.3637009  23.1517544  85.2100906
  24.1457748  61.6019516   7.4437299  23.4712067  61.0514526   7.0460596
  23.7274323  62.4567223   7.5466022  44.0831680  34.2430420  71.3313828
  44.1385841  33.6561470  70.5772552  44.9831848  34.3084259  71.6506424
  71.3663330   8.0996714  75.3954544  71.4606857   8.7876358  76.0542679
  70.8242416   8.4947109  74.7125854   2.4094129  42.9090157  18.0163383
   1.4933985  42.6883087  17.8477039   2.8927205  42.4825706  17.3086720
  25.8734741  49.2458305  51.5644226  26.6154442  48.6469879  51.4801674
  25.1364059  48.7691498  51.1826706  58.8218918  14.3170967  20.7960644
  57.9221497  14.0324736  20.6358070  59.1805916  13.6555777  21.3876381
  59.7945366  30.4451580  41.2339020  59.8766518  30.3466511  42.1824722
  59.7239723  29.5489216  40.9052467  15.3021193  69.0219116  23.5138988
  14.7845583  68.4458160  24.0764618  14.6653748  69.3991394  22.9068680
  17.6919022  59.0759659  29.5160923  18.1321602  59.7793541  29.9932213
  16.7628002  59.3020325  29.5596294   1.1002762  20.4378223  49.8092995
   0.8510071  19.9599590  50.6003380   1.1493819  21.3524017  50.0874481
  69.6175995  17.4037781  12.5103970  69.5624161  16.5982437  11.9962950
  69.5786285  17.1101437  13.4206123  65.3646393  29.0549355  45.7707214
  65.5836868  29.6216717  46.5103569  64.5356522  28.6461315  46.0195122
   4.4236679  25.7839546  36.5771446   4.0650768  25.8134861  35.6901436
   3.7385473  25.3657951  37.0986671  71.7323914  57.5293770  55.4905777
  71.7652893  58.3475342  54.9948273  72.6491394  57.2727394  55.5903244
  27.0405540  45.7944260  54.8830032  26.5147705  46.1361046  55.6062164
  27.5307407  46.5523071  54.5643082   6.3929706  28.6277370   6.1642451
   6.3698978  27.9553299   5.4833870   5.9590559  28.2230339   6.9153538
  53.8563881  18.9116039  31.3807583  54.0724525  18.3313160  32.1106987
  53.1557732  19.4699097  31.7179031  17.4757843   2.0951531  73.3944702
  16.6959171   1.5868309  73.6172867  17.2408428   2.9988825  73.6049576
  87.0146408  60.0693207  64.7520828  86.5096207  60.8361473  65.0225754
  86.3628540  59.4684410  64.3910522   6.8628211   5.5049815  45.4087753
   6.1312208   5.0032096  45.7682419   6.6175094   5.6669583  44.4978294
  24.5850868  18.8443298  84.4658203  24.7804794  19.6727676  84.9037018
  23.6359272  18.8565731  84.3426208  52.0224648  11.3958874  86.9692383
  51.3884430  10.8555527  86.4977646  52.5849953  11.7576275  86.2844467
   1.8132012  36.2390404  20.9627953   1.6931537  37.1029434  20.5684681
   2.5418100  36.3534126  21.5729446  34.1191216  64.3519897  62.3582344
  33.4341736  63.9131355  61.8537674  33.8107185  65.2537918  62.4469223
  15.1798820   4.2260680   6.9255576  14.7377062   3.4172342   7.1834321
  16.0728550   4.1265674   7.2556067  49.5496025   0.9903172   4.0316772
  49.8233986   0.9360844   4.9472780  50.0990868   0.3504419   3.5790663
  18.9403000  59.9966240  66.0224075  19.1352482  59.3765678  65.3197250
  19.0792255  59.4977531  66.8274231  40.0535507  43.4100571  31.5715485
  40.1515732  42.5792694  32.0367546  40.1353073  44.0772514  32.2530174
  48.3762665  35.2333450  79.0666122  48.2028465  34.3044205  79.2191086
  47.6962090  35.5059853  78.4506378  68.0253067   7.0441494  69.7223129
  67.9680786   6.8736358  70.6624603  68.8803940   7.4582019  69.6055984
  62.3870049  16.0653381  17.3330326  62.5896034  15.1463642  17.5081673
  61.4328423  16.1154099  17.3905220  32.8277969   6.4699488  46.0951996
  32.6819687   6.6549420  45.1674385  33.2662811   7.2524238  46.4294128
  81.4122925  52.3041420  72.0944519  81.5014114  52.7339897  71.2438507
  80.4673691  52.2474403  72.2363281  10.3572226  34.1331635  68.6261597
  11.3139963  34.1113319  68.6446075  10.1116142  33.3969727  68.0658646
  61.9196663  35.4111099  71.3053513  62.7492638  35.6356544  70.8839417
  61.3994980  36.2129059  71.2525940  70.3101044  59.0309334  46.3591919
  71.0099716  58.4734421  46.6992226  70.7665863  59.7699432  45.9570427
  84.5385895   7.1791005  22.4639626  84.7040787   8.1011572  22.2673454
  84.5317001   7.1355906  23.4201469  54.0509911  34.1197319  41.7186165
  53.1601906  34.3870277  41.9450150  54.2392311  33.3897552  42.3084717
  40.2952271  46.7951202  77.9599915  40.3241386  45.8648376  77.7364426
  40.7423363  46.8525429  78.8044052  23.1878548  52.7239609  31.8675880
  23.4048710  52.1112137  31.1649647  23.6410580  53.5325279  31.6287212
  55.3990517  51.8598480  57.4701004  55.1849442  52.7666397  57.6894531
  55.5815048  51.4460297  58.3137245  38.4721870   0.6408576  84.0244904
  38.2390213  -0.2170953  84.3791504  38.1714973   1.2634393  84.6864624
  67.2628403  37.4272957  35.0192184  67.7074661  37.1458359  35.8187904
  67.8113785  37.0927696  34.3096924  27.0563221  37.6605530  86.8521042
  27.6129665  37.3243256  86.1497269  26.1887569  37.7360878  86.4547882
  18.3346481  53.3686485  77.0685730  17.8141975  53.4411583  76.2685013
  18.2155037  52.4616814  77.3504333  47.1104774  43.8069305  89.0129166
  47.2109833  43.8964119  88.0652237  46.7016754  42.9494438  89.1305161
  51.4248123  22.7033405  32.7487717  50.7618599  23.1684418  33.2590675
  52.1703682  22.6207409  33.3433723  17.0245781   7.1731515  65.3856812
  17.2522316   7.2794728  64.4620438  17.2137451   6.2540703  65.5747223
   0.7733324  56.2177505  58.9615288   1.3054315  56.2172012  58.1658516
   1.3485454  56.5825005  59.6340752  72.5990448  55.9013748  52.5179367
  73.1102448  56.2604256  53.2431908  71.7474213  56.3326302  52.5885963
   4.4637747  47.1147537  71.1051636   4.4144306  47.6141777  70.2900696
   3.6299293  47.2870522  71.5424805  34.7150574  52.1926651  20.0881367
  35.0691032  52.6385803  19.3186932  34.9849586  52.7385559  20.8266411
  60.9342804  63.5045357  40.1724586  60.4820862  63.2770309  40.9848557
  60.8678589  64.4580002  40.1202888  11.3954039  63.5341873  54.5816231
  11.7474499  63.5926666  53.6934357  11.3508339  64.4419937  54.8818474
  29.7096405  69.3551865  53.6349869  29.0447369  69.9592438  53.9655266
  30.2687016  69.1771774  54.3912926  70.7357864  16.6455231  51.9867172
  70.2589035  15.8701172  52.2826233  71.4553833  16.2976418  51.4600410
  67.3791275  46.2530289  78.1969910  66.9946671  47.1287498  78.1577454
  68.2397156  46.3868446  78.5941238  16.8465672  66.4282074  38.8546715
  17.2619896  65.6520462  38.4788666  17.4174061  67.1528320  38.5991440
  85.4583054  48.9754105  61.5799255  84.5841141  49.0751648  61.2030220
  85.6870651  49.8517799  61.8895645  69.0236511  57.3565445   2.3556762
  68.1093521  57.0744171   2.3820436  68.9785614  58.3120651   2.3213177
  29.9487190   5.9654412  84.9420166  30.5159855   6.7364082  84.9349442
  30.5026608   5.2636251  85.2838211  67.5541534  29.1215057  30.3908653
  66.7269363  29.2561092  30.8532772  67.3013763  29.0154381  29.4737568
  71.5460358  18.9011040  32.6839409  71.1298294  18.9455948  31.8231144
  71.9055328  18.0152092  32.7306633  51.3764687  18.3751926  15.5144939
  51.0232353  18.4410381  16.4016933  52.0008736  19.0979156  15.4510508
  85.5396729  66.0870819   9.1028805  84.9377594  65.4628296   9.5081472
  85.9528198  65.5952530   8.3931990   4.2385569  31.5406837  11.5839701
   4.1231074  31.3151245  12.5070229   5.1716809  31.7369061  11.5002565
  76.6595001  42.3999481  70.6071625  76.8460388  43.3370056  70.6651459
  77.1253586  42.1111069  69.8224487  33.6355705  40.1732178  15.7322350
  33.5671120  39.5621147  16.4657860  32.7363815  40.4619904  15.5763521
  21.9362011  43.2710915  30.9125366  22.7034893  43.5957756  31.3837891
  22.2959404  42.7001190  30.2337093  17.8685932  59.2056656   9.3906784
  18.0627823  59.3405495   8.4631386  17.2923908  59.9338150   9.6231031
  26.3848095  23.6141415  71.2560196  26.3281975  22.6587238  71.2702789
  27.2750092  23.8057556  71.5510788  50.1878471   7.3352957  56.6413078
  50.2084160   6.5330157  56.1196251  50.6646042   7.9762216  56.1139107
  75.9148331  68.0171204  22.2874203  75.3620605  67.5089417  22.8810730
  75.3340530  68.6939468  21.9398117  30.5243435  66.9200134  72.9308472
  31.2524891  67.5403290  72.8955994  30.0465260  67.1564713  73.7258377
  21.2847366  43.6386948   3.1409764  20.5146408  43.7405968   3.7002604
  22.0273457  43.7853241   3.7268636  52.1878433  57.8427086  73.6643524
  51.5972137  58.2686615  74.2855988  52.0456924  56.9062233  73.8022614
  38.0498161  39.2515678  80.9475479  38.5099983  39.7471237  80.2701340
  37.1505814  39.1849136  80.6263504  47.4165115  55.0516243  36.3643227
  47.5532036  54.6323814  37.2139015  46.5166092  54.8265686  36.1282005
  50.4287834  68.5575638  16.0905495  50.7227554  68.3597031  16.9797421
  49.5850449  68.9938736  16.2087517  59.0585632  67.3888168  28.8835678
  58.9655037  67.6263123  27.9609814  60.0037727  67.3794479  29.0343151
  28.1869698  18.7885075  20.8951054  28.4610577  19.5229225  21.4444141
  28.9780464  18.2600250  20.7895889  65.1951675  68.0979767  76.2866516
  64.9939194  67.7922134  75.4022064  66.1089478  68.3792648  76.2406921
  12.6306286  46.6614189  26.7639751  13.1857605  46.4195023  26.0226669
  13.2410660  46.9948807  27.4215469   5.5756202  26.2011299  58.0432434
   4.6977830  25.9275627  57.7771683   6.0283546  25.3838768  58.2514763
  73.6432724  54.4989815  15.3549089  74.0299606  55.3472023  15.5722218
  74.2706528  53.8573532  15.6879835  57.9746895   9.2375002  31.9231739
  57.7804642   8.9072227  31.0460052  57.7168846  10.1588888  31.8946953
  31.8477917  68.3310776  35.0184937  31.4951801  68.6324310  34.1811867
  31.2408409  67.6472778  35.3017921  30.0786743  64.6563034  60.3215141
  29.1818161  64.8789749  60.0719261  30.4976387  65.5006943  60.4879303
  65.5093307  55.5622368  79.2649536  66.3785553  55.4667282  79.6542587
  65.4585342  56.4850655  79.0158768  69.5281219  11.6186075  53.2287788
  70.3453217  12.0624771  53.4554749  68.8430099  12.1717396  53.6041451
  27.0911560  47.9643860  25.7805901  26.5340004  48.1121750  26.5447674
  26.9956398  48.7600212  25.2570686  14.8043880  54.7743912  77.3880386
  14.4115467  53.9283295  77.6027298  15.6819639  54.7343445  77.7681580
  52.2481537  11.2518806  28.2436218  53.0261879  11.7960796  28.3650417
  52.4326668  10.4556494  28.7418194  41.2159615  21.6851444  73.8298798
  40.2671013  21.7074680  73.9539871  41.4460869  22.5803204  73.5810165
  83.0172882   2.9476690  82.5935364  82.1113739   2.6415801  82.6367798
  83.0049362   3.6398308  81.9324799  34.5937080  16.9851036  79.0440903
  35.1753044  17.5460854  79.5571976  34.9386330  17.0342731  78.1525574
   2.1979144  12.2099037  79.3764267   2.5042696  11.4971027  78.8158035
   2.7462888  12.9565926  79.1356506   1.5253122  34.4979668  88.1020889
   1.6320454  35.0366364  88.8861008   0.8984764  34.9807129  87.5633240
  10.5279999  65.7080383  87.5497589   9.8511629  66.3676376  87.7015839
  10.7271910  65.7797241  86.6162643  59.8536148  27.0517025  26.0950165
  60.2975807  26.6409321  25.3531322  58.9658241  27.2203369  25.7793903
  61.7026291   3.4077344  41.8940125  61.5504875   2.5109732  42.1921806
  62.3370438   3.3192596  41.1827316  80.8876572  55.1611366  16.5832500
  81.1199493  55.1522026  15.6547070  79.9410934  55.3031540  16.5919895
  29.9268494  69.9689941  83.7749634  29.9317036  70.1099701  84.7217178
  29.1229496  69.4761810  83.6103134  50.7956009   3.6567090  22.7084122
  50.2367897   4.1235213  23.3297386  50.2051201   3.4028072  21.9991169
  81.9463730  13.6699057  56.1223221  82.3793716  13.9819145  55.3277206
  81.2105255  14.2696009  56.2453346  51.7110214  43.2697906  85.6863861
  51.3141975  43.0465164  86.5283585  51.3595810  42.6211662  85.0764618
  74.6156082   2.6923304  78.5651550  73.9989700   2.8251607  79.2851105
  74.3828888   1.8364220  78.2053070   7.2543621  47.4165268  52.2019730
   8.0230236  47.4589424  52.7708244   7.3219972  48.1952553  51.6494904
  76.8943024  41.2936401  75.2688141  76.7933578  40.7955589  74.4576645
  77.8007736  41.6005554  75.2501831  35.5602150  57.7927742  19.7463379
  35.7140045  57.6699715  20.6830864  34.6112556  57.8925476  19.6704712
  56.3895874  49.0139008   4.6895075  55.5841522  49.1793938   5.1795282
  56.3142586  48.1029167   4.4054971  41.3370628  68.9550781  73.9820404
  41.7472572  68.1985474  74.4011154  41.7268066  68.9854355  73.1083069
  12.0676613  58.1923714  50.5237923  11.2955399  58.0467072  49.9771309
  12.6089859  57.4151115  50.3857040  51.6074142  69.6415710  21.1743565
  51.6803665  69.5525436  22.1246109  51.3799133  70.5610962  21.0367088
  76.1104965  27.2702618  36.6196747  77.0145798  27.3326778  36.9278526
  75.8290482  26.3929234  36.8790970   6.8611016  62.8905678  17.4437084
   7.3119364  62.3711243  18.1094093   6.0579023  62.4024734  17.2624130
  65.3860321   2.7409921  46.0225945  65.0411987   3.3274460  46.6959419
  65.0340805   3.0855124  45.2018204  69.4629898  35.2794609  59.4119873
  69.6718140  36.2087479  59.3168449  69.7549286  35.0576820  60.2961922
   5.4084506  65.2926025  18.1704502   4.5219936  65.0932770  18.4716110
   5.6482868  64.5462646  17.6211853  68.4678040  21.8907642  47.1683731
  68.5602112  22.7087803  47.6567802  68.4040833  22.1640911  46.2532425
  83.3380508  42.0986786  88.7639771  83.9173813  42.4503937  89.4399261
  82.7527161  42.8247986  88.5486603   5.4209962  25.8972206  71.1631317
   5.2656398  25.0200672  70.8128510   5.4470658  26.4623241  70.3909836
  69.7684402   8.7425175  50.3513908  69.3360977   8.8738184  51.1952362
  69.0848694   8.9119587  49.7031174   3.9761178  53.4500694  79.9765778
   4.8576279  53.0791092  80.0160675   3.4171593  52.7134972  79.7290802
  17.2377758   2.2765119  20.7135220  18.0763416   2.7337248  20.7767429
  17.2805595   1.8122005  19.8775711  12.7388153  51.0121002   0.2739265
  12.0209475  51.6319733   0.1448710  13.3929873  51.5033112   0.7709214
  70.7013626  27.3940392   2.0590115  70.9505539  28.0336227   2.7261462
  69.7474594  27.3434029   2.1202142  13.1168394   8.2204227  75.7149429
  13.2152424   9.1058731  75.3649063  12.1999865   7.9989614  75.5519485
  44.9818344  64.1902237  32.9418068  45.4921341  63.8777428  33.6889229
  44.1937103  64.5686493  33.3315315  44.5860405  17.2374382  79.9152298
  45.4907417  16.9561977  80.0518036  44.0574532  16.4981537  80.2157059
  53.8476143  48.4302559  56.4541245  54.1467285  49.3041344  56.2029305
  53.7624359  47.9588547  55.6254158   9.2323370  53.1465950  46.5081978
   9.2487545  52.4790459  45.8223839  10.1535645  53.2898369  46.7251167
  40.9091225  60.9809494  16.3129730  40.8032417  60.9993019  17.2641220
  41.3242760  60.1371460  16.1344357  76.6564026  55.5738907  86.1828308
  76.7465210  55.0387535  85.3943253  77.5070496  56.0018005  86.2803879
  46.0331497  55.0689583  63.4249077  46.8111992  55.4468002  63.8349152
  45.3156204  55.2992744  64.0151138  84.1938019  63.1085968  28.0970783
  83.3697968  62.7673416  27.7495174  84.4274521  63.8215904  27.5027065
  29.9038086  44.7007713  29.5373421  29.4053822  43.9167099  29.7676735
  29.8130608  44.7717133  28.5870991  47.2852249  25.8161545  67.9521027
  47.6942558  24.9742069  68.1522369  46.4244995  25.7692184  68.3682556
   6.0721660  -0.2127382  11.4482260   6.2790923   0.5986015  11.9120598
   5.8284554   0.0706284  10.5670109  66.6531372  14.7937555  41.6365738
  66.0344009  15.3712482  41.1894798  66.3018875  13.9140062  41.4991264
  81.5168457  48.0154037  27.9722652  81.3111420  48.6960831  28.6130352
  81.7017365  47.2381668  28.4994774  58.6373634  31.9041843  80.0720673
  59.0338287  31.7503071  80.9296036  57.7665062  32.2490921  80.2692337
  13.6376657  66.7076111  15.2520237  14.3299284  67.1782913  14.7878437
  13.2377815  66.1502762  14.5844145  22.7928219  40.9517670  75.9376526
  22.6375904  40.1276665  76.3991699  21.9829617  41.4483070  76.0551529
  71.5096664  66.1288757  72.8377380  71.3369217  66.1098175  71.8964462
  70.6720352  65.8985596  73.2396851  76.1292801  27.3475628  56.6461029
  75.2793732  27.7308254  56.8628845  76.7288284  28.0932999  56.6206779
  24.2931347  14.2404795  78.8953705  23.8605804  15.0358162  79.2061234
  24.1114960  14.2205524  77.9557724  39.3982468  13.5495367  19.3845158
  38.5771103  13.4534092  19.8669319  39.1888695  13.2624874  18.4956970
   4.1341448  42.9302559  49.8289452   4.3360233  43.3497658  50.6652985
   4.2020788  43.6350975  49.1848831  63.5553932  56.4343948  61.9666214
  63.1594963  57.0100784  62.6209068  64.1336823  55.8614960  62.4702110
  59.2849998  21.8647022  55.8143234  58.9238167  22.5955029  56.3160248
  59.0335579  22.0481396  54.9091377  79.6067047  62.1319885  46.9706993
  80.2420807  62.6407471  47.4743729  79.2909775  62.7386627  46.3010025
  19.0883369  10.1401110  15.2207403  18.6243916  10.9226456  14.9230356
  18.7560749   9.9866314  16.1052055  24.5774364  34.9781456  18.4243851
  25.1106167  34.8367195  19.2066574  24.7349796  35.8925438  18.1892509
   1.9943494  60.2391357  79.2666397   2.3378406  59.3702888  79.0584335
   2.7330544  60.8300629  79.1205063  52.3310738  69.8446426  49.6789322
  52.0802460  69.7590179  50.5987091  51.5070839  70.0085602  49.2202301
  83.8105850   3.8451598   6.0437589  84.5321426   3.7659454   5.4198074
  84.2383041   3.9963446   6.8866282  57.5469589  40.6315727  83.0004196
  57.8501892  41.5037346  83.2526398  58.3151398  40.0706406  83.1075897
  52.0716362  16.0187168  75.7317276  52.7172928  16.6284637  75.3745575
  52.2627411  15.1867237  75.2987213  16.5119190  59.2158737  48.6526871
  15.9935417  59.8897514  49.0924644  16.3773289  58.4282150  49.1796684
  21.6181812  69.5507736  49.1250534  21.2806587  68.7267227  49.4761200
  21.1021786  70.2272034  49.5636978  46.2748260  43.1138000  55.6340027
  46.1853943  43.0459213  56.5845947  45.7517471  42.3888512  55.2918472
  55.0735474  40.9701424   6.5894198  55.9870644  40.6842957   6.5930653
  54.6236115  40.3272667   6.0412388   4.4424796  55.2866974  34.8394318
   5.1965384  54.9533195  35.3257294   4.8235211  55.8299828  34.1495895
  42.7189560  62.5229568  63.9817085  42.3099174  61.6818352  64.1852493
  42.6760063  62.5855103  63.0275192  35.9273987   8.8972187  80.3095245
  35.1351471   9.4292669  80.3836517  35.6362114   8.0924492  79.8808212
  61.6100616   7.7060776   0.1837946  62.2758560   7.0245137   0.2755541
  62.0471420   8.4036608  -0.3046413  23.9253445  71.4017258   8.4419327
  24.4387207  71.3598328   7.6351352  24.4199734  70.8732681   9.0682735
  22.1644096  16.1698723  62.1560783  21.4321728  16.6186352  62.5787735
  21.7669163  15.4086180  61.7333221  42.5821228  66.7613678  75.1007690
  42.9804535  66.1928940  74.4416809  42.5919762  66.2405319  75.9038010
  79.8697052  67.2258148  25.5038052  79.1422348  67.6630783  25.9463062
  79.8590164  67.5825348  24.6156216  11.6717892  18.1023979  16.6184654
  12.0681591  17.3834171  16.1263390  11.3018322  18.6764088  15.9477377
  84.7440109  43.4185944  38.4305267  84.4562225  43.6920738  37.5595398
  84.4070435  44.0953789  39.0175896  20.7466450  43.8818703  49.0595932
  20.3206253  43.0530052  49.2780457  20.0318756  44.5177994  49.0290680
  83.4236526  21.0724411  21.0546665  83.7983322  21.7265549  21.6445675
  84.1825333  20.6272945  20.6776142  33.5442543  30.5859280  11.0551043
  32.7627449  31.1305389  10.9609156  33.2047195  29.7058182  11.2174549
  72.9958878   4.7268114  36.4702454  72.8104172   5.6326623  36.7177696
  72.6033325   4.6304374  35.6025810   0.8212638  17.4450779  55.6764107
   1.2996203  17.3010635  54.8599167  -0.0829353  17.5958443  55.4008675
  85.6502762  66.5704803  30.6456242  86.4802933  66.8565292  30.2641945
  85.6941071  65.6145096  30.6251545   5.3075213   9.8688250  59.4818954
   6.2519088   9.7284479  59.4136391   4.9204473   9.0557337  59.1574135
   3.1198347  51.2903366  54.2235031   4.0655737  51.3163910  54.0781403
   2.7568982  51.8542099  53.5404549  33.7066498  70.5056534  26.4320011
  33.1702042  70.3726273  27.2135124  33.1397705  70.9903336  25.8320274
  78.0626602  42.9229851  21.9474659  77.1318436  42.7810860  21.7751923
  78.1836319  42.6434174  22.8549004  54.4356918  25.6544762  23.0134830
  55.2717476  25.4687347  22.5860004  54.3010445  24.9159412  23.6073399
  68.4649048  57.5047493  18.1617031  68.1905212  56.6036072  18.3316689
  68.3284454  57.6234245  17.2217426  69.7695999  65.9884491  43.9832268
  68.8564453  66.2723999  43.9413986  70.0839844  66.3162155  44.8258171
   1.0455008  15.2786474  80.9784851   0.2678009  15.7663527  80.7072678
   1.7457993  15.9311075  80.9889755  50.4060287  17.9565277   3.7673824
  49.8497734  17.6955719   3.0334096  50.8947868  17.1644592   3.9909365
  31.9384727   4.9679799  26.1462040  32.8775253   5.0091166  25.9653168
  31.8568268   5.2561970  27.0553226   3.1934967   6.7859898  26.6423168
   3.0568562   6.3801088  25.7862663   2.9287341   7.6976919  26.5201206
  11.3702345  58.7823486  26.1328983  10.6627464  58.1888313  26.3847561
  11.7298975  58.4001961  25.3323784  49.4977455  61.0348663   2.4508612
  49.9671173  61.7450981   2.0132651  50.1357002  60.3232384   2.5040572
  44.4851913  34.3292580  35.5482521  44.7815857  35.1311493  35.9787788
  43.5301208  34.3699989  35.5973701  38.8237152  56.2832375  48.6237411
  39.3922653  56.3324203  47.8552628  37.9372177  56.3610687  48.2711830
  13.1328821  13.1437731  13.0164776  12.5741863  13.4756155  13.7193089
  12.6944618  12.3469496  12.7179937  83.5821991   7.9140730  71.3725586
  83.6139145   7.6590137  72.2946091  84.3107758   8.5260448  71.2681427
  24.4214916  69.8910141  42.1340637  23.5076389  69.6064911  42.1216354
  24.8400440  69.3241425  42.7819099  82.4461212  28.3795242  54.7459564
  83.0387955  27.6917362  55.0491371  83.0233994  29.0463638  54.3740616
  60.9117966  33.4942856  54.0323601  60.7769661  34.0928459  53.2976646
  61.8625908  33.4043388  54.0966377  72.8832474  31.4201813  75.8788605
  72.2901764  31.6198540  76.6031647  73.6550369  31.9614258  76.0450821
  85.7061310  57.8224106  63.8307571  86.6269836  57.5990639  63.6952019
  85.2418060  56.9904709  63.7384949  53.5240364  70.4614410  68.6589432
  54.1240349  69.7369461  68.8359756  53.0972481  70.2233276  67.8359070
  26.0446053  55.8121986  85.3770370  25.8888302  54.9480362  85.7580719
  26.2780437  56.3644295  86.1232147   9.1175985  49.0638618  15.4507561
   9.6403732  49.8651428  15.4805984   9.0499725  48.7878227  16.3647919
  10.9308109  50.6671333  37.5623932  11.5992813  50.5096550  36.8956261
  10.1006317  50.5263748  37.1071777  64.3719254  53.3764420  42.5021362
  65.0613174  52.9538803  43.0143890  64.7520905  54.2125664  42.2326775
  77.7691269  48.6226616  75.3664856  78.6648331  48.5397263  75.6936951
  77.6100998  49.5661964  75.3403244   9.8657389  50.9183884   1.5541571
   9.9823456  51.6077156   0.9003497   9.8896427  51.3778725   2.3935223
  43.9799652  40.3091087  58.5958748  44.4315300  39.4656639  58.6262398
  44.5870781  40.9209480  59.0121651  37.1597672  37.8960800  55.7540207
  37.2874947  37.0358772  56.1539803  38.0096054  38.3282738  55.8389359
   4.3376708  14.2879744  67.5819473   3.8744538  14.4353409  66.7573547
   5.2036929  13.9772568  67.3179550  75.9381638  64.0967407  75.5171661
  76.1390076  63.5811882  74.7360840  75.1199951  64.5455475  75.3040695
  18.0215225  61.5487671  42.7777328  17.4635906  61.2030907  42.0809898
  17.6480732  62.4065247  42.9802704  36.7305450  60.8208160  61.5082932
  36.9583778  59.9673042  61.8768539  35.7964706  60.9196701  61.6925964
  34.2840767  55.5876770  51.7809105  34.9235268  54.9965973  51.3834686
  34.0763779  55.1841660  52.6236839  85.3913116   3.8381679  61.0208359
  85.1128235   3.0248868  61.4418449  85.4837952   3.6096041  60.0959358
  46.2985306  31.5845909  69.7082748  46.8592949  31.2396221  69.0134583
  45.4312172  31.6456509  69.3079376  58.1324615  59.8961563  57.9014549
  57.7666016  59.5336380  57.0946350  58.9616394  59.4323540  58.0180016
  44.8916969   8.6427937  23.0546703  44.7973709   9.2493219  23.7891464
  45.0491600   7.7924438  23.4649658  85.8736267  68.5692902  76.6427689
  86.4071503  69.3629150  76.6844864  86.2033844  68.0213013  77.3549423
  65.5314407   3.9507911  62.6869240  64.5814896   4.0655332  62.6611824
  65.7940903   4.3167262  63.5315170  76.1952896  69.8151398  64.3761597
  75.6758881  69.0206680  64.4997330  75.7353516  70.4834290  64.8841782
   4.2780347  27.5165634  79.2256622   4.2426596  26.9079285  79.9635925
   3.7556679  28.2669964  79.5088882  77.0740051  38.1572075  34.5844460
  77.8836823  38.4275360  34.1513443  76.3793182  38.4283524  33.9843369
   3.8924391  32.7687836  37.0828667   4.1272931  33.2421036  37.8810158
   4.5707965  32.0994759  36.9929352  24.6845055  41.2470245   7.8949823
  24.1865444  41.4134216   7.0946207  24.5150757  40.3265190   8.0954666
  29.8745766  55.8852539  35.8671417  29.6273079  55.7986717  34.9464912
  30.7249832  56.3241310  35.8464851  28.9349442  30.9731808  27.0813332
  29.3089714  30.1552467  27.4089298  29.2032661  31.6324883  27.7212925
  18.6066895  52.5848083  10.6792545  18.6106071  53.5167160  10.8978071
  18.9352970  52.1525421  11.4675417   4.8837790  62.5117645  50.3753662
   5.2115307  62.1785011  49.5400543   3.9497778  62.3024788  50.3668518
  84.9043045  28.3002319   2.2620964  84.2964401  29.0052586   2.0392396
  85.6231842  28.7387352   2.7172439  15.1292677  36.5151863  44.0031738
  15.2271233  36.1124611  43.1403503  15.9733467  36.3722305  44.4313393
  74.4064178  16.4982738  73.8195496  73.6627960  15.9050226  73.7132034
  74.0206299  17.3086586  74.1522293  69.9088593   7.3846178  46.9731293
  70.8478165   7.5626721  46.9193764  69.4995346   8.2496634  46.9535789
  26.5510902   3.3989832  72.7938156  27.3663654   3.5248313  73.2793274
  26.1699696   2.6044362  73.1675491  66.5727005  48.0050163  44.7992706
  66.7073975  47.1309662  45.1655006  67.4563217  48.3363762  44.6391182
  41.9075546  40.2751312  27.4825535  42.5534935  40.8409157  27.0596085
  42.4147453  39.5277367  27.7993965   7.3002234  52.5441895  87.7256317
   7.1048541  52.9472313  86.8796921   7.1397877  53.2386436  88.3645630
  47.0238647  50.4186134  86.7067490  47.7702293  51.0020981  86.5699310
  46.3323174  50.9889984  87.0423965  34.0881271   0.1373920  49.5557518
  33.5371628   0.4949521  50.2520447  34.1480370   0.8428886  48.9116135
  71.5977783  15.9217806  85.9656525  71.0222397  16.3030834  86.6286697
  71.8286057  15.0611076  86.3152161  48.8317108  48.4445152  13.7196751
  48.6281471  49.3678398  13.8688927  48.0776215  47.9728127  14.0733404
  67.3388443  59.2503815  62.8163033  67.2365265  58.3761787  62.4400978
  68.2847824  59.3602943  62.9130249  60.8510361   2.3843217  34.5107460
  60.2456703   2.9602320  34.9777489  60.4600906   1.5138862  34.5864792
   8.6662035   2.2802932  31.4481544   9.3505821   2.2364721  32.1159401
   7.9087133   2.6458161  31.9051380  29.0405807  57.6408157   4.5998235
  29.8718719  57.4676056   4.1580286  28.7401733  58.4702568   4.2283130
  24.4679546  49.8240128  85.2008667  25.2580700  49.3087158  85.0383224
  24.5113506  50.5365944  84.5632401  60.3588295   5.8987212  77.9133301
  60.8022385   6.6149049  78.3679733  59.5034561   5.8381867  78.3386612
  68.8516083  43.9624443  53.4670906  68.6637115  43.6757126  52.5733833
  68.0370483  44.3674088  53.7649536  31.1138268  16.8017864  76.7130814
  30.4164944  16.3615360  77.1990280  30.8899479  17.7311497  76.7620087
   9.0981035  16.7019615  24.5253124   8.8932343  17.2315617  23.7547398
   8.8463879  15.8121290  24.2781906   3.8882661  29.6733551  59.6434555
   3.2177973  29.0806484  59.9831619   4.7146230  29.2182732  59.8055191
   0.1767012  20.7054710  87.4678955   0.6086852  19.9231014  87.1250839
   0.7687393  21.4235115  87.2439728  83.2332840  70.6411896  62.8846550
  83.6976395  70.6570358  62.0477829  83.9022369  70.8584976  63.5338936
  42.6846924  39.6338081  18.9243145  42.5188789  39.8494034  18.0065689
  42.4411392  40.4254646  19.4040985  10.7730789   5.9804697  30.2335205
  11.2663507   6.2440872  29.4567184  11.0061359   5.0613961  30.3647480
  32.4237595  68.4757996  55.0201035  32.8209000  67.6107941  54.9186897
  32.4651680  68.6496048  55.9604797  42.3464088  47.2758942  26.9273834
  42.4578133  46.7719879  27.7335472  41.7193565  47.9613190  27.1580868
   4.7401423  45.3606300  39.7813683   5.4072785  45.5175400  40.4496040
   4.3307490  46.2152596  39.6463242  69.9391556  27.0338135  56.5247307
  70.4539490  27.2995071  57.2867203  69.8247833  26.0893688  56.6304398
  35.0446587  70.3512726  82.3505478  34.7738190  70.9779510  81.6796112
  34.3034019  70.3121033  82.9548950   5.9669394  51.3008652  72.8001404
   5.9385595  52.1782913  72.4186401   6.8604069  51.2128105  73.1320953
  49.5943298  57.9542160  34.8852844  50.3399506  57.8914299  34.2883453
  49.8163033  57.3675346  35.6083107  46.2922287  28.3687363  67.5011520
  45.4370155  28.1425591  67.1355286  46.9222336  28.0168800  66.8722458
  13.6726665  11.6739922   1.1243211  12.9451408  11.3679056   1.6658456
  14.4540892  11.4843807   1.6436079  73.7924423   2.2386937  13.3838758
  74.6191940   2.5157564  13.7787809  73.2045670   2.9832008  13.5117273
  50.6599770   2.2873490  88.6908264  51.0216293   3.1558430  88.5143127
  49.8980026   2.4534707  89.2458267  49.9344330  64.8313293  51.7790108
  50.7138596  65.3227921  52.0382309  50.0164719  63.9939804  52.2354622
  74.5150223   0.8646426  87.2090836  74.1528549   0.5864020  86.3678665
  75.4448318   0.6439744  87.1542969  52.8831787   1.4131913  73.6600800
  52.1757278   0.9295918  74.0865479  52.4734993   1.8075551  72.8900909
  24.8367386  40.0095596  44.5921783  24.8351345  40.8339882  44.1058197
  24.1700096  40.1291580  45.2684937  31.8603268  30.4120426  17.1749439
  31.9394474  29.7057190  17.8160992  32.3339691  31.1456203  17.5670624
  52.9147339  38.3270721  78.5343628  53.4031982  37.6241989  78.9628525
  52.0149040  38.0032005  78.4938354   8.9155264  66.5950089  52.3371353
   9.1054201  65.8308716  52.8814354   8.1404524  66.9881668  52.7382851
  66.8699799  42.7779961   2.9550242  66.4512100  43.5269012   3.3792994
  67.7391129  43.0961800   2.7108786  24.1696930  54.3789177  39.0424767
  24.3910561  53.7212105  38.3831978  23.2515659  54.5892677  38.8721008
  36.2953873  55.5800705  68.7264709  35.3609886  55.4558868  68.8929214
  36.7295341  55.1352425  69.4543991  76.0902863  33.1246605  59.6795082
  75.8474274  32.3248444  59.2130852  76.5851974  32.8179665  60.4392662
  48.7853088  49.0349731  17.0378876  49.2144547  48.1930962  17.1905727
  48.1554070  49.1160851  17.7540417   9.6711063  57.1962204  74.1324615
  10.4151878  57.4544182  73.5884857  10.0640240  56.9212456  74.9608536
  51.3366432  59.1321869   2.8226049  51.9852448  59.4527893   3.4493129
  51.7726631  58.4057655   2.3771496   6.2376418  61.0557289  41.4333000
   7.0614629  60.5718117  41.4913788   6.2503643  61.6419487  42.1898842
  55.5798950  47.1199722   9.4311438  54.8309288  46.6222801   9.1031456
  55.9148712  46.5966568  10.1592665  50.8728638  36.4271393  44.3505898
  50.1163788  36.5970039  44.9119301  51.6068344  36.8387909  44.8067322
   9.6342268   6.0816770   0.6740623   8.8122559   6.5353303   0.4875326
   9.3808756   5.3470907   1.2330145  10.8906298  37.5844955  44.0719833
  10.9843664  38.0717392  43.2534256  10.5189896  36.7426834  43.8084183
  67.2209244  20.9055958  73.0231094  66.9598694  21.3671761  72.2262268
  66.8577347  20.0259666  72.9202805   1.4461271  31.0194073  61.0573120
   1.6532021  31.6688309  60.3852997   2.1785507  31.0685215  61.6716232
  35.4692764  59.0639076  88.3907166  36.3997383  59.2599983  88.2810898
  35.0261612  59.8906059  88.1997910  81.4453354  44.3481483   2.9360797
  81.1266174  44.1824646   2.0488389  82.1863556  43.7511749   3.0397618
  46.8250465  46.9637070  83.2550812  46.2604866  47.6057053  83.6855927
  47.6887245  47.3761063  83.2401657  38.7511406  57.1942062   6.1133709
  39.1754799  56.4597931   5.6697450  39.4736252  57.7623672   6.3806567
  23.6485233  15.9289684  13.5410252  23.7223587  14.9911222  13.3643188
  23.8628540  16.3473988  12.7072315  75.4136200  26.2526627  79.7593079
  75.7900391  27.1277790  79.6659698  76.0409622  25.7791023  80.3055725
  39.5902672  52.1935349   8.2340908  40.2297668  51.6726036   7.7483902
  38.7532234  51.9992638   7.8123722  67.6537704  42.8287468   9.2893181
  68.3626938  42.6903648   8.6612206  66.8835831  42.4456711   8.8694305
  74.5599213  67.4055481  36.4546661  74.4869461  67.8921509  37.2757149
  75.4024734  66.9555893  36.5170021  44.6638718  58.1994171  20.3782139
  45.4789200  57.8090172  20.6936798  44.3786240  57.6201515  19.6715889
  38.5710144  64.3560104  27.6285992  39.0752411  65.0019836  27.1339207
  38.2418327  63.7498436  26.9649525  42.4169388  12.4665794  83.9696884
  42.8220062  13.1933641  84.4429092  41.8162537  12.8867121  83.3541412
   2.4053741  54.5813828  46.7567101   1.8832848  53.7882500  46.6358795
   2.9234140  54.6515884  45.9548759  55.5729256  41.3694077  40.2386665
  55.2135887  42.1572990  39.8308182  55.2858086  41.4194450  41.1504173
  81.2459259  65.4876556  34.0063705  81.8861694  66.1700439  33.8047066
  81.6530685  64.6783600  33.6973190  80.6871185  33.7901192  24.6783085
  79.9303818  34.3210831  24.9266376  80.5289307  33.5612450  23.7624340
  34.3273277  68.6403198  69.3607712  34.8909340  69.3352814  69.0207520
  34.7385445  68.3802490  70.1850891   7.3562884  31.7735481  27.1181583
   6.9512382  31.8370514  27.9831066   8.2249327  31.4084625  27.2866879
  49.9505196  54.8135796  15.1556578  49.5173225  54.6432304  15.9920521
  49.3676224  55.4238396  14.7039442  71.6957550  19.3844738  37.8613853
  70.8707886  18.9376907  38.0512543  72.0143967  18.9687824  37.0601959
  13.2767420   1.5121839  61.4954681  13.6455278   0.7304409  61.9066925
  14.0367527   1.9871062  61.1592178  21.1109238  32.3418579  80.7366257
  20.7084923  33.1859627  80.9409943  20.4026089  31.8257561  80.3517151
  27.9036236  64.0670776  41.4171600  28.2883377  63.1918678  41.4644814
  28.6004009  64.6158447  41.0571785  84.0307922  16.6500244  33.3678207
  83.7352905  16.7329273  34.2744827  84.9495850  16.9175453  33.3899574
  32.3042221  51.1907272  63.7819099  32.9708786  51.6121445  63.2394981
  32.7668800  50.9465599  64.5835114  53.8657494   6.3516960  54.7828217
  54.5540543   5.7091789  54.6106644  53.6080399   6.1893024  55.6902618
  57.2099266  68.6937180  41.1000710  57.7996292  68.7557068  41.8514977
  57.4956589  67.9070206  40.6356354  54.9891357  20.6933365  53.1003876
  54.2896690  20.2067680  53.5365372  55.0926895  20.2574310  52.2545166
  26.2078247  68.1735611  16.4776917  26.1771183  68.8477249  15.7988739
  27.1332340  68.1147385  16.7151508  70.8421707   1.0435443  88.7070847
  70.3108597   0.3352583  89.0707855  70.6159439   1.0594044  87.7771378
  65.9891663  31.8038540  50.0884590  65.6096420  32.6744843  50.2076035
  66.2857361  31.5501995  50.9624901   2.6668606  20.8487110  14.6003418
   3.0662184  20.7167549  13.7404966   1.7679100  21.1157417  14.4084711
  18.2637634   7.2698588  15.1093655  18.7097759   8.1034966  15.2588778
  17.4218521   7.5142145  14.7250376  14.3881760   0.9470659  79.2597046
  13.6713820   0.4122870  78.9184570  14.0102091   1.8212488  79.3554993
  85.8577805  49.1229630  25.1814785  85.3437881  48.5898514  24.5749798
  85.5606842  48.8514290  26.0499439  63.2255249  12.8844624  41.2875061
  63.0286217  13.1403017  42.1886177  63.8192711  12.1387281  41.3745499
  51.4520760  62.9946442   3.8088646  52.1972694  63.5845795   3.9224114
  51.6795921  62.4658165   3.0441358  19.6768970   8.5126152  54.6127625
  19.2643070   7.7813897  54.1530762  20.4521503   8.7173548  54.0899849
  82.9762344  63.9138641  14.4755993  82.7500839  63.7057838  13.5690737
  83.7717896  63.4095192  14.6457939  60.1615410  70.3498230  10.7273436
  60.2054634  69.4092865  10.8996611  60.2356606  70.4227066   9.7758055
  68.4897003  43.6449928  87.2521896  68.8895645  43.9911613  88.0500031
  67.8707886  44.3229141  86.9808807  32.6656570  54.8043060  17.8090992
  33.2498093  55.0039558  17.0775681  31.8357086  55.2185287  17.5728016
  69.7727661  40.5073318  63.0917702  68.8588104  40.2295799  63.1530952
  69.8552856  40.8661385  62.2082100   4.2131095  45.2756844  19.0218849
   3.5906994  44.7755318  18.4939785   4.4603462  44.6799202  19.7291126
  85.4760284  14.5502930  64.8271866  86.3375626  14.4754829  64.4168243
  85.2322617  15.4680710  64.7067871  21.5806580  70.6222076  74.9757690
  21.4484100  69.7064133  74.7307053  21.0839119  71.1183853  74.3251648
  65.9800110  16.3657856  87.5642014  66.6992416  15.7477379  87.4340210
  66.0208282  16.9445858  86.8029175  16.0862923  58.2899895   5.2944880
  15.1913824  58.1324615   4.9935660  16.5658588  57.5005493   5.0434232
   4.5538263  51.5710793  50.8292732   5.2281766  52.1163635  51.2344246
   3.9155397  52.1958122  50.4849854  68.6302338  70.2581406  85.4507523
  68.2464676  70.5042191  84.6090851  67.9041824  70.3178787  86.0716553
  75.1696701  55.5483284  30.9421005  75.5552750  55.7191963  31.8013706
  74.2846756  55.2382317  31.1341038  58.0453873  54.1160622  79.8181763
  57.1633530  54.1930656  80.1819305  57.9541512  53.4910088  79.0989990
  24.7464790  18.8099041  69.6734695  24.3966618  17.9582672  69.9353333
  25.4460144  18.6013737  69.0542831  59.0276489  48.2769394   5.1035480
  58.9046021  47.5799675   4.4590945  58.1495361  48.6311340   5.2438936
  70.9969940   0.5094400  47.4965820  71.7798996  -0.0407853  47.4732857
  70.7701263   0.5639913  48.4249077  82.0280380  28.5487881  88.3770370
  82.2570496  29.3032703  87.8343124  81.4519196  28.0216179  87.8234940
  75.9864883  11.8834419  10.3249006  75.8669586  12.4116011   9.5356016
  75.2498856  12.1230574  10.8872480  25.3622837  26.3477001  70.6180649
  25.9326897  25.7996426  70.0790863  25.5184040  26.0478210  71.5135727
  19.3399258  42.0715599   6.8120437  18.9297047  42.5544128   6.0945444
  19.3743820  41.1663780   6.5027127  82.7714157   9.6036072  13.0336180
  82.6821213  10.5236626  12.7851114  82.1155396   9.4758930  13.7190008
  57.9686127  65.0986328  52.0347366  57.4878349  64.2760544  52.1266289
  58.7961121  64.8478241  51.6241608  10.6634932  34.2808418   5.1028533
  10.8976927  33.4012451   5.3989782  11.2764711  34.8580017   5.5582371
  14.7107677  58.7020226  19.7766151  15.4666643  58.5223694  20.3357010
  14.3223915  57.8421478  19.6153355  85.6602249  14.4163475   4.8975539
  85.9956512  14.8333750   5.6911597  84.7085800  14.4833250   4.9756961
   0.6521725  32.9014473  59.2317238   0.0132849  33.4240875  59.7163887
   0.9973555  33.4994812  58.5688248  76.2639847  56.3137817  33.4693832
  77.1815491  56.0641556  33.5788651  75.8312759  55.9877777  34.2585068
  18.7863770  68.0088806  19.4598694  19.6045723  67.7493515  19.8834629
  18.2504444  68.3618622  20.1700897   9.1269684  60.5417023  70.8127365
   9.1361322  61.4834023  70.9840469   8.3765926  60.2152138  71.3092957
  76.3509903   8.8191481  50.7698669  76.9170837   9.5030518  50.4120255
  75.8420792   8.5124989  50.0193939  70.8100586  33.0051918  31.5853481
  70.5374832  33.2351837  32.4736252  70.0525970  32.5550652  31.2113609
  51.7712669  48.3078384  82.8348846  52.2007484  49.0275345  82.3724899
  51.7212029  48.6032486  83.7439880  35.7701683  22.8902664  81.0657730
  35.2631073  22.6412716  80.2930374  36.5031891  23.3980579  80.7178345
  79.4106674  27.6576595  17.1784191  79.9076233  26.9489117  16.7698364
  79.5212555  27.5166206  18.1186905   3.9678991  49.9415741  27.4249935
   4.8566098  50.1269035  27.7284374   3.4967504  49.6726189  28.2136078
  86.2647858  21.7132893  40.6895409  85.6069107  21.4657326  40.0398064
  86.4355087  22.6391582  40.5167618  70.2024841   7.1803045  84.0699158
  70.2117157   7.4754057  83.1593857  70.5795135   7.9096942  84.5619202
   1.9683419  43.3927307  22.4578838   2.8253033  43.7898788  22.3025761
   1.7715043  43.5976448  23.3719387  17.2920322   4.9733915  25.7892742
  18.2367706   5.0175304  25.6417770  17.1325397   4.0664859  26.0506458
   0.8119290  55.4618340   4.4819584  -0.0399901  55.2918015   4.8838964
   1.2615246  56.0319710   5.1056895  59.3397865  62.8841019  55.2791862
  59.1902542  62.0678558  54.8020935  58.6463737  63.4697266  54.9751205
  41.1801300  47.1494408  89.1615524  40.3591881  47.3349838  89.6174698
  41.1007347  47.6121750  88.3274078  53.4800186   6.9404960   4.8548856
  54.4358521   6.9690151   4.8124843  53.1946144   7.1423321   3.9637973
  76.1310501  65.3060150  42.3202896  75.2234955  65.0656586  42.5068550
  76.1472092  65.4664764  41.3767738  45.4244232  58.4546051   2.1651039
  46.3288460  58.7680511   2.1632640  45.4587440  57.6269684   2.6447659
  81.3092728  67.3573914  62.9912834  82.0418625  67.6757889  63.5186920
  80.5695419  67.3338547  63.5983124  73.1121292  22.1032619   3.1514025
  73.8491058  21.8893490   2.5792630  72.5289917  21.3472252   3.0836415
  43.2535820  45.6631927  13.6152983  44.1990700  45.5718803  13.7333946
  42.9289818  44.7635193  13.5771275  35.7071838   6.6074810  41.4166527
  35.9532013   7.0705433  40.6158524  36.5412331   6.3688164  41.8211632
  24.4235592  47.2072144  17.7186184  24.7037525  46.9486771  18.5966167
  23.7493362  46.5692596  17.4848099  33.2127686  60.8036652  72.7555161
  33.5378761  60.6532478  71.8678741  32.8760567  61.6995277  72.7386627
   4.9181738  58.7658653  65.6670914   3.9646997  58.7182999  65.7367859
   5.1820230  59.3446999  66.3823318  54.3112106  46.1262627  60.5273094
  53.5233574  45.7024155  60.8677139  54.0681381  46.4116478  59.6465683
  73.2406540  44.5924301  76.3203430  74.1325226  44.4047737  76.0277863
  72.7780380  43.7595558  76.2279282  53.6873131  20.9348755  64.4022369
  54.0765953  21.6958332  63.9713860  54.2658234  20.2076569  64.1726456
  15.4426165  47.1193657  43.0135651  15.2841682  47.1900597  42.0722237
  15.5458059  48.0243874  43.3077126  45.6621666  67.7632446   3.7811391
  44.8486214  68.2675552   3.7749367  45.3846626  66.8591614   3.6333156
  51.6415367  67.7014847  38.2196770  51.1495819  68.3864746  37.7669144
  51.6960068  68.0048904  39.1258812  57.4272118  70.8724594  32.5917473
  57.0828438  70.3111725  31.8970585  58.0056801  71.4862366  32.1390991
   7.6147881   4.0647812  73.9903030   7.0379267   4.3296642  74.7067490
   7.1996593   3.2835078  73.6249084  20.6000309  42.2244606  64.1872177
  19.9815826  41.5556602  63.8931770  20.4677200  42.9551544  63.5832253
  40.9790306  70.3562851  76.2211151  41.4505005  71.1846924  76.1334229
  41.1632957  69.8884430  75.4066238  21.2238808  56.8394661  30.0077667
  21.3071556  57.6535721  29.5112495  21.1998367  56.1534500  29.3406563
  34.3074265  22.5226631   1.5784026  33.5471153  21.9866085   1.8037993
  34.1588440  23.3520527   2.0325687  82.7755966  39.1217537  75.5196228
  82.7028198  39.6180534  76.3348618  81.8916321  38.7905273  75.3611298
  49.9153595  59.3764420  52.1793289  49.6880608  59.6114311  51.2796898
  50.4906082  58.6165695  52.0903435  10.1025209  13.5642080  87.2818832
  10.1966076  13.6930094  86.3380661  10.9949980  13.4130926  87.5931396
  40.1951103  24.4420929  13.5434332  39.9670105  23.6690445  13.0271034
  41.1359711  24.5526218  13.4063263  48.0711555  59.1351929  23.8020077
  48.6718712  58.4229813  23.5826435  47.9366112  59.5982857  22.9751606
   9.5484285   3.7571187   2.1951776   8.7682800   3.4588048   1.7276217
   9.2701445   3.8215153   3.1087654  81.9573517  14.6633739  59.8942604
  81.1895294  15.1949291  60.1043358  81.7138748  13.7760725  60.1581650
  20.6369743  69.9784470  67.3914795  21.2667542  69.6836472  68.0492783
  19.7886314  69.6846542  67.7234879  24.0783043   5.8086371  86.6782150
  24.8586426   5.4968009  87.1365356  23.3483105   5.3975177  87.1411591
  80.7030258  51.8187218  45.9426193  79.9335403  52.3604889  45.7676735
  80.4455566  50.9398956  45.6640511  27.6806984  47.9136200  64.8102722
  28.0110264  47.2029419  64.2606812  27.9533291  48.7122726  64.3585434
  59.5744896  66.9462357  23.5140705  59.9155426  66.0617294  23.3815384
  59.8368187  67.4244461  22.7274742   3.4490373  18.8414822   0.7575698
   3.8737905  19.6984768   0.7946762   3.5146422  18.5027885   1.6504389
  64.9101944  19.2314930  28.9120960  64.3247681  19.4488335  28.1866550
  65.7271729  18.9666138  28.4894657  80.8189011  39.5562248  32.9667320
  81.0062027  39.0490074  33.7565918  79.8730316  39.4718170  32.8465691
  50.3099785  67.9257584  85.2308884  50.8243942  67.5312424  85.9351349
  49.4001732  67.7536392  85.4734879  26.0823841  33.6143646   2.2088192
  26.2069283  34.4380379   1.7373564  25.2478943  33.7232552   2.6648922
  66.8548508  21.3199730  79.5519638  66.6639175  21.8090515  78.7516022
  66.0356445  21.3409195  80.0466385  24.6324005  60.4522285   4.3782663
  23.9626369  60.9762802   4.8176079  24.6346321  60.7735214   3.4766018
  77.8085480  21.6033802  32.4333687  76.9771652  21.8008766  32.8646774
  78.1721191  22.4602776  32.2102547  83.0392761  44.6333008   5.3322453
  82.6966476  45.0461044   6.1249847  82.2598419  44.3936424   4.8309689
   8.5176229  14.0242147  24.1851578   8.1981983  13.5142298  24.9295483
   7.8449149  13.9142170  23.5131493  39.9788513  22.8810692  69.6205673
  40.7421188  22.3474979  69.8418274  39.3421173  22.6848812  70.3078232
  70.3487473   0.5732600  41.6529312  69.5781097   0.0745084  41.9242096
  70.4709549   0.3431253  40.7318802  55.9023399  58.0470276  66.7088470
  55.5057755  58.0265388  67.5797882  55.1625328  58.1560326  66.1113205
   0.7322527   4.8169627  41.1930580   1.6179186   4.5782485  41.4666328
   0.1601971   4.3695464  41.8165970  17.7795544  69.8964462  14.2375488
  18.4376411  70.5913391  14.2208166  18.2661572  69.1005325  14.0231466
  44.9537468  55.4282494  50.3601799  44.6385765  55.3617973  51.2615585
  44.1575394  55.4695549  49.8304825   2.2814636  58.9900475  33.0185509
   3.2224374  58.8189240  32.9796066   2.0497160  59.2578392  32.1292725
  86.2963257  15.3633661   7.7452059  87.2173843  15.2115326   7.5334892
  86.2945251  15.5545902   8.6831083  12.1464157  67.1935425  70.0492325
  12.5413990  68.0564651  69.9244003  12.1618662  67.0578461  70.9966431
   4.1134281  28.4864159  23.5060196   4.3592162  28.0986099  24.3459167
   4.8966050  28.9573898  23.2213287  72.6578598  42.6834068  72.7633667
  73.2887115  43.3832512  72.5946198  72.9214172  41.9762650  72.1745377
  80.0098190  27.7812767  83.5025253  80.8087921  27.5606651  83.0237808
  79.4625931  26.9994278  83.4284210  80.8789825  41.3146362  70.0090790
  80.7735977  41.6882210  69.1341095  80.6252823  42.0209351  70.6032257
  22.0980740  52.3646011  24.6291523  22.7021523  53.0887375  24.7933025
  22.5658131  51.5881157  24.9366035  77.0930252  31.4912796  33.6963234
  76.9088821  32.4280624  33.7653160  77.7848740  31.3352032  34.3391457
  56.7465477  66.1974335  23.4012756  56.9702301  65.4628143  23.9727116
  57.5489426  66.7172241  23.3542118  60.4929428  58.3256340  83.6217117
  60.8291702  58.2593193  82.7279663  60.3873482  59.2655602  83.7687607
  27.2104645  55.2205009  48.1191063  26.5205173  54.5635948  48.0259590
  27.5950222  55.0438614  48.9776764  20.8358269  50.3279190  31.7797165
  20.3712883  51.1437874  31.5931835  21.2739677  50.1083946  30.9574795
  72.3715210  32.4482117  36.9778137  73.2967987  32.4144478  36.7350159
  72.1268997  31.5333328  37.1170502  51.9666748  41.2741013  26.4107761
  52.6289978  41.8554611  26.0371742  51.2289543  41.3298988  25.8034134
  50.0685501  40.4614296  71.8419189  50.2817459  40.4222412  70.9095917
  49.8611145  39.5573883  72.0783844  10.0816431  30.9385414  12.3008022
  10.7339077  30.7444534  12.9739389   9.6154642  31.7056580  12.6331253
  78.6116409   3.8333242  26.5471096  77.8740921   3.3330610  26.1978474
  78.3885498   4.7465043  26.3666592   6.8735476  58.6442261  11.1324053
   6.7996349  58.9734116  12.0281763   5.9737954  58.4405441  10.8770781
   1.1288117   2.4092855  85.5489273   1.6474373   1.6068463  85.6068115
   0.2437761   2.1081514  85.3433456   0.3516857  14.7045221  76.2505569
   0.4314884  14.2731390  77.1013031  -0.5415893  15.0482693  76.2391663
  86.1377487   8.2611799  38.7955322  86.5738297   7.4095831  38.7663574
  85.6299820   8.2981491  37.9849548  76.3584824   5.7526832  33.8039207
  77.3088913   5.8604665  33.8405457  76.1987839   5.3185763  32.9659004
  67.1649933  32.8436165  33.3173866  66.8938217  33.5934525  32.7878151
  68.0851822  32.7101288  33.0901108  38.6380005  66.7819061  69.3346024
  38.6295280  66.6126099  68.3925323  38.5132065  67.7280045  69.4090652
  73.1566772  26.0830994  85.2125702  73.5894165  25.5069275  84.5824890
  72.8137054  26.8027668  84.6827774  69.4894333  70.2147369  30.7654934
  69.6325226  70.0461655  31.6968060  69.4626312  71.1690521  30.6961765
  41.2390594  53.9406929  43.3437653  41.1786804  54.8955841  43.3161392
  40.6358223  53.6427650  42.6628990  74.1107941  38.4814148   5.9975452
  74.4861984  39.0588455   5.3328052  74.8497467  38.2532997   6.5615892
  52.6459198  53.1933212  29.6765728  52.1019897  53.9187469  29.3697662
  52.0269012  52.5818977  30.0755844  35.2078819  58.3167992  52.1302719
  34.7946358  57.4533997  52.1291847  36.0688629  58.1707420  51.7383461
  78.5396423   8.5742598  23.8598442  78.3936539   8.0825300  23.0516872
  77.8487396   9.2367220  23.8652592  70.8799515   8.5242825  54.4351006
  71.3969116   9.3273287  54.4991379  71.2073975   8.0908489  53.6469727
  56.8906822  38.9379654  26.6659317  57.3342323  38.0899315  26.6842499
  56.0155792  38.7433510  26.3304348  85.6707382  23.0780277  55.7514725
  84.8778992  22.8190899  55.2818069  86.0235825  23.8074188  55.2418480
  27.9334621  46.8181915  83.3709183  27.5924606  46.4018478  82.5793304
  28.1086540  46.0906296  83.9677353  58.8157387  59.0933228  49.6402092
  58.0700645  59.6136360  49.9393463  58.5235443  58.7091827  48.8135948
  60.7980347  34.8889542  48.1910400  61.4802399  34.2265663  48.3008919
  61.1678467  35.6807251  48.5816422  20.2765865  25.0979176  78.3755493
  20.2146797  24.1804943  78.6415100  20.9654617  25.4624290  78.9312592
  43.9676132  52.4253998  14.6661882  44.6444016  52.2687798  14.0076599
  43.3170738  52.9653549  14.2173300  32.9440079  35.0899925  32.6813583
  32.5277977  35.2203598  33.5334167  32.9950638  35.9677277  32.3029366
  59.5702705  42.5945091  83.6587830  59.2985573  43.4737816  83.9220047
  60.4139214  42.4647942  84.0919800  45.1367226  28.6251335  24.5917969
  44.8188667  28.5844326  25.4937630  44.5287056  28.0744858  24.0985050
  42.7251167  51.9606171  75.5359344  43.2753220  52.6529732  75.1696701
  42.2342262  51.6232185  74.7866516  69.9899826  62.4016418  68.5052185
  69.9027939  62.5761948  67.5681152  70.3735733  61.5258598  68.5510406
  36.7957687  34.1900024  18.6943474  36.6885452  33.2640610  18.9119778
  37.6809654  34.4043121  18.9888535  41.3829155  63.8847504  15.8550568
  40.8005791  63.1252174  15.8700018  41.4170990  64.1782990  16.7654934
  58.6135864  61.4203720  13.9454174  58.5589294  60.5143585  13.6414719
  59.0424500  61.3611488  14.7991152  18.3546238  34.2019005  87.1194458
  18.3131638  33.3388176  87.5312729  17.7268410  34.7319946  87.6104889
  66.1535339  21.9257011   2.3844154  66.8200302  22.0832176   1.7156793
  65.5661774  21.2809772   1.9899920  63.3729744  60.4909592  27.6554775
  63.4435997  60.9203568  26.8029175  62.4633636  60.1963425  27.7006493
  59.8037910  12.6722040  17.5055618  59.6247673  13.4946671  17.9613419
  58.9521713  12.3955412  17.1672878  42.7356071  54.7531548   7.7389808
  43.2678642  55.5451355   7.6635022  41.9262581  54.9632034   7.2730742
  49.6359138   8.5939121  72.3684921  49.6276016   7.7126093  71.9950409
  49.7882233   8.4564266  73.3034439   7.2261391  69.9390793  85.0412750
   8.0654716  70.3945694  85.1067352   6.6908870  70.3221970  85.7362289
  27.4211140  27.0393124  72.9695969  27.8400116  26.4998512  72.2989731
  27.3134727  26.4513283  73.7172089   8.6496363  11.5095215  75.0273666
   8.4072304  11.2261353  75.9089355   9.2234268  12.2628040  75.1672287
  33.9107056  14.4398298  18.1243687  34.2269325  14.9318104  18.8821201
  34.1901360  13.5393982  18.2898197  78.5982895  38.1638794  39.6649857
  79.3113632  38.1271057  39.0274849  78.4047012  37.2471695  39.8609505
  28.9702282  46.8527946   6.9141865  29.8115807  47.1124268   7.2896171
  28.3185215  47.2057457   7.5199380  84.1150208  64.1937637  58.5433769
  83.2783051  64.5511322  58.8407173  84.6573105  64.1660461  59.3316574
  77.7018433  61.0962105  21.4604034  77.4870529  61.7510262  20.7960930
  77.5328064  61.5359612  22.2936382  63.3905640  55.8984489  66.6181030
  64.0425797  56.0988121  67.2896347  63.1273994  56.7532845  66.2771683
  77.1202164  14.4289036  23.0762482  76.5344162  14.2891722  23.8202534
  76.8425903  15.2672253  22.7069588  33.2649879  49.8402481   4.6929622
  33.0180702  49.3842201   3.8884108  34.1798401  50.0869713   4.5573030
  26.8030682  63.7619781  75.6070709  26.9746761  64.2625351  74.8094330
  25.8607216  63.5951958  75.5870895   9.9375916  59.2478142   5.9308677
  10.0873995  59.7433319   5.1257257  10.8142986  59.0872307   6.2799058
   8.5252514  42.1891785  86.3777237   8.3928528  42.8711166  87.0362549
   8.9565563  42.6385803  85.6509171  10.8239002  39.5549927  42.2061043
  11.5149794  39.7975082  41.5898018  10.0389271  39.4709663  41.6648178
   6.8486252  33.4366875  17.9936581   6.3007693  33.8656502  18.6509819
   7.6186562  33.1412621  18.4794655   2.5994771  66.7060776  80.0171051
   2.6409528  66.2214966  80.8415375   3.5015664  66.7118835  79.6970520
  54.3731880  37.1838760   8.6015816  54.9494133  36.5525208   8.1707840
  54.6815300  37.2103653   9.5073709  54.5093231  61.2513542   1.4357156
  54.4902000  60.5257797   0.8116892  55.3815651  61.6321449   1.3336227
  27.0021477  42.0577507  18.6023140  27.5746002  41.2946091  18.5239182
  26.1221676  41.7138557  18.4486904  23.4659100  48.9215355  60.8143082
  22.5646667  48.7079697  60.5726852  23.9648209  48.1336212  60.5986328
  68.5553360  54.0510674  66.6821823  68.4111710  53.4848824  65.9239731
  68.2220078  53.5468826  67.4244232  51.5813103  69.4304047  42.8357277
  52.0243874  69.9567566  43.5012093  52.1433716  68.6637955  42.7233429
  58.7417564  29.8922043   8.7223978  58.4226952  29.7751293   7.8275657
  58.4022675  29.1345482   9.1987782  45.2429886  61.9531059  81.8352509
  44.3771477  61.5607872  81.9476624  45.2918930  62.1622772  80.9024658
  66.3349762  52.1996460  47.1026268  66.9759140  52.1976585  47.8135605
  65.7894669  51.4310760  47.2697983  82.2340164  43.0932083  62.3821487
  81.2774887  43.0730362  62.4117889  82.4917984  43.4707642  63.2231216
  57.3364487  19.7812405  62.1186104  56.9548492  20.5420418  61.6806679
  57.8687973  20.1520481  62.8224144  49.1765976  23.4576988  83.5871277
  48.6674995  23.9904270  82.9761887  50.0842133  23.7217598  83.4363251
  36.5010643  55.2923088  45.2134361  36.6673203  55.6121750  44.3267136
  37.1515083  54.6025085  45.3451080  66.3266830  41.1189499  37.9065208
  67.2429276  40.9811478  37.6662292  65.8548126  41.0968513  37.0740051
  33.9875984  20.4993000  19.5140667  33.3169975  20.0512333  20.0295849
  34.3111343  19.8313122  18.9096260  11.8741169  28.2343407  25.8952179
  10.9283895  28.3505402  25.8039494  12.1989222  29.0998554  26.1434479
  83.2202911  12.4814329  39.2345428  83.8192902  11.7460632  39.3636322
  82.3478012  12.0987043  39.3268242  12.3527880  43.5873528  85.7674103
  12.2492676  44.4149551  86.2370834  13.1428165  43.7081108  85.2406235
  31.4801331  35.5473595  71.4834595  30.8833694  35.4101562  70.7477417
  32.0297699  36.2825584  71.2121353  45.5317688  70.5795135  23.2448959
  45.9141541  71.4381638  23.4258137  44.7335968  70.7716599  22.7527256
   0.4309751  39.8481979  38.3245163   0.6246063  40.1492729  39.2122612
   1.1838790  40.1317329  37.8058891  11.6116190  46.8846931  42.8084145
  11.2156725  47.6977348  43.1221352  11.7201653  46.3516693  43.5960274
  46.6481819  16.0367527   4.8521271  46.2412834  16.8245926   5.2126431
  47.0172997  16.3192921   4.0153747  78.1237030  33.9587440   0.9576703
  77.8419418  34.3560791   0.1336770  79.0508499  34.1859512   1.0284297
  49.5795898  69.2123260  81.0184860  50.1241989  69.0647430  80.2452774
  50.1870041  69.1466904  81.7553558  21.5345592  19.2541561  78.4816589
  21.0788403  20.0776081  78.6562500  20.8404083  18.5953102  78.4640732
  42.1476746  27.1399403   8.9506712  41.7847252  26.7568989   9.7492819
  41.5707741  27.8784351   8.7556181  84.9781036  22.3765831  43.4916420
  84.0917511  22.0247116  43.5740852  85.2812271  22.0647736  42.6389275
  80.3678207  19.8170967  51.0596886  80.1159668  20.1964378  50.2177238
  81.1577148  20.2956200  51.3112984  84.2173233  61.3389206  51.2919960
  83.9728928  60.4981232  50.9052773  84.6496582  61.8127060  50.5814743
  11.3514967  69.8985519  34.6623039  11.7189531  70.6900177  34.2688675
  10.4594460  69.8520508  34.3183365  56.0686607   0.0003550  17.5724049
  55.1876869  -0.2709001  17.3144455  55.9660149   0.3298378  18.4652309
  55.6767921  70.6283264  64.6517029  55.3231964  69.8291550  65.0422516
  55.4117317  71.3256073  65.2515182  79.3959427   2.0816166  85.9857941
  79.7280655   2.9687541  85.8482742  80.1458893   1.5145764  85.8061523
  65.5075684  26.9119072  39.4844742  65.0135574  27.4591351  38.8739548
  64.8402023  26.3988037  39.9400864  77.9784622  43.3773804  40.4600105
  77.1083527  43.6452560  40.1643867  77.9611359  42.4211731  40.4200439
  73.5757294  67.8578873  56.0467987  73.5608444  67.1902542  56.7325706
  72.7882309  68.3791504  56.2028732  45.3590164  58.0551796  26.2748775
  45.1030350  58.8769646  26.6936531  45.1989136  58.2014275  25.3425636
  21.5324612  25.9038658  11.9537001  21.0407124  26.4067802  12.6029234
  21.1862793  25.0144978  12.0272970  62.3813629  18.4788361   9.9604797
  62.2224045  18.3748970  10.8986492  62.0805016  19.3658981   9.7634096
  21.5746422  48.3689270   6.2168360  22.4157600  47.9576683   6.0177894
  21.7413330  49.3077850   6.1332159  74.5267334  29.2020969  75.8970108
  74.3007431  28.5799580  75.2055588  74.0305862  29.9915085  75.6804504
  68.4954758  33.9335480  42.0513000  67.7081223  33.4370689  42.2744827
  68.4465714  34.7182884  42.5972137   8.6590757  25.2454681  86.7186279
   8.9421301  26.1085091  86.4165192   9.2123747  25.0643253  87.4784164
  76.7487411  23.0473061  77.9227371  77.3401337  22.7624531  78.6194077
  75.9110794  23.1904488  78.3632660   5.3336210   8.6380653  13.9424887
   5.8001890   9.4646206  13.8185835   4.9563251   8.7051582  14.8196306
  18.5077820  46.6291199  72.5860596  19.1133289  47.2901764  72.9215393
  17.8205776  47.1330414  72.1501160  76.9802094  65.2400589  28.9992943
  77.8155136  64.8076553  28.8217468  77.1758347  65.8594818  29.7023468
  45.0210762  30.6897182  88.2264481  44.5303535  30.1027851  88.8017120
  45.9182701  30.3572941  88.2540894  61.5590591  69.1015091  18.5491657
  61.3112755  68.3799667  17.9710560  60.9203033  69.7891846  18.3612175
  26.3045654  53.1206779   2.9568553  25.6716423  53.5055809   2.3506467
  26.7178555  53.8726807   3.3810151  20.0494289  53.5736427  63.3283043
  20.9866428  53.5774651  63.1337624  19.6914082  52.8847237  62.7684402
  49.8157768  41.0314941  32.4281082  49.2020378  41.5303459  31.8889427
  49.6935654  41.3771973  33.3122940  67.7147827  58.6991196  45.6505089
  68.5822601  58.6448364  46.0514641  67.8160782  58.2691002  44.8013573
  21.8490620  40.6453018  35.7812653  21.3534317  41.4073868  36.0809479
  21.1820717  39.9860191  35.5896950  79.6766357  71.3986053  67.0300903
  79.4832993  71.5239792  66.1010437  78.9691315  71.8548050  67.4856644
  47.7864265  31.4666786  59.4514618  46.9307709  31.2459030  59.8193588
  48.0255508  32.2894440  59.8782005  14.1452017  51.3572426  60.8916550
  14.9240417  51.6045380  61.3901367  14.3743429  50.5194664  60.4893379
  84.2477570  32.3933411  52.8529282  84.4926529  31.8307476  52.1182556
  83.6372986  31.8643990  53.3665428  31.0209713  46.0937958   9.5230732
  31.5497513  45.6238670   8.8782578  30.4305954  45.4295044   9.8786068
  51.2449951  28.3996506  72.3014297  50.6949883  27.6787224  71.9948578
  51.4885139  28.8707428  71.5045624  54.2271729  57.9873734  41.8725357
  54.4712410  58.5317726  42.6210632  53.7400894  58.5766068  41.2965279
  56.0956688  11.5273466   7.5514460  56.4856758  12.3695087   7.3171639
  55.1523399  11.6894560   7.5423818  50.1909103   6.2290444  38.9028397
  49.6326790   5.5828681  39.3353500  49.5822945   6.7806773  38.4113922
  65.5220795  19.9428062  22.5132580  66.2934875  19.4558964  22.2232990
  65.3804550  19.6526604  23.4143620  77.1672287  31.3235760  82.7071152
  76.3778076  31.8617668  82.6488266  77.7286758  31.6446991  82.0015030
  55.2212601  67.2099686  21.2040062  55.5881538  66.7256393  21.9436302
  55.8611870  67.0952454  20.5014687  61.5245743  36.3884850  27.8639908
  61.1635704  36.3428764  28.7493305  62.4730835  36.3983917  27.9923115
   8.7262688  23.2371330  84.7071304   9.2877741  22.5306435  85.0262222
   8.4446440  23.6954155  85.4989014  19.0007248  28.7920856  55.5567818
  18.3883591  29.1030903  56.2235031  19.8258286  28.6718216  56.0268555
  15.2859344   4.3872547  14.4856291  15.1111221   4.4121294  15.4264021
  15.8254843   3.6062031  14.3628445  79.3592529  45.1691628  38.8094406
  78.9902420  44.6587257  39.5302162  80.1880646  45.5033836  39.1523743
  78.7596588  38.1734962  81.1777344  78.7016602  39.1053123  80.9665833
  79.3723755  38.1319695  81.9119568  85.4215546  23.3316536  76.2436829
  85.2107773  22.9664650  75.3843613  85.8503799  22.6142120  76.7101822
  26.3939590  16.6994610  79.7583618  26.8544922  16.2936687  80.4928513
  25.6048698  16.1690121  79.6479263  56.7479553  32.9615822  44.2957382
  56.8350677  32.8442726  45.2417183  55.9295921  32.5175095  44.0736771
  84.8008652   7.3817821  57.3292351  84.2051926   8.0579929  57.0065193
  85.5344925   7.8683648  57.7050819  83.2800751  41.7387810   6.3148293
  83.3556061  42.5179520   5.7639952  82.3439636  41.5390244   6.3201137
  43.5510864   4.7934775  78.4949265  43.6416969   5.3742781  79.2503662
  43.8657799   3.9447701  78.8062057   6.1080666  44.4250793  43.4606743
   5.5713959  44.9613800  44.0442772   6.8478394  44.9875183  43.2312622
   5.0917225  57.7845993  57.6286163   4.6306930  57.8718109  58.4629288
   5.5299144  56.9354401  57.6847229  45.7709656  24.0420704  65.6774521
  45.5362434  24.9582310  65.8250656  46.5287743  24.0800018  65.0939102
  42.4801140  54.5187073  22.5034370  41.5469055  54.4415970  22.7019672
  42.6990128  53.6994591  22.0594215  36.9045258  66.5785828  75.3332672
  37.4722328  67.2054062  74.8849030  36.0257683  66.9486923  75.2493591
  23.4455700  56.9518280  85.4019699  22.7750778  56.8895950  84.7216721
  24.1972141  56.4816284  85.0411682   8.3244667   6.9471321  58.3467522
   7.9035897   6.5149040  59.0899048   7.6499519   6.9671397  57.6678848
  19.9076195  58.6976013  46.7515793  19.9653893  59.6274109  46.5316963
  20.8181267  58.4136047  46.8325348  50.3434372  27.9008827  44.3442421
  50.1886978  28.5127621  43.6245956  49.5265465  27.4075985  44.4190483
  30.6026325  57.8236694  83.4870834  30.8796234  58.1872902  84.3280945
  29.9812660  57.1330643  83.7177277   1.9724718  46.1408501  11.0480719
   1.3437119  46.1947365  10.3283567   2.5626495  45.4300156  10.7978029
  82.9719009  32.0342255   0.4394123  83.5685577  32.4455948  -0.1858932
  82.3754501  32.7364655   0.6989085  31.9596386  53.1035194  60.7916336
  32.8290863  52.7333221  60.9440842  31.7550030  52.8693924  59.8863487
  76.1587982  48.8325424  36.9897118  76.4934387  48.2625046  37.6820297
  76.5044174  48.4551697  36.1807823  61.1119156  52.7349319  15.3991766
  60.3408089  52.7230911  14.8321772  61.4815254  51.8555984  15.3192253
  69.4906616  61.0872002  86.7672729  70.3924942  61.3411903  86.9632797
  68.9842834  61.8907356  86.8862152  85.6150970  46.3190804  47.7329102
  85.8459015  47.2480240  47.7287254  84.8039322  46.2715492  47.2269630
   3.2069657  60.7756538  58.7179642   3.6547637  60.5748940  57.8961334
   3.8938344  61.1247826  59.2859001  63.8746414  68.8431168  80.5297775
  64.1225510  68.2887192  79.7899017  64.2769547  69.6905518  80.3394470
  21.2055931  57.3226776  83.6628189  20.3777733  57.1776276  84.1209793
  20.9487801  57.6669579  82.8073959  65.5294342  63.7682915  10.2191801
  64.7630768  63.6031914  10.7684250  65.9870911  62.9281693  10.1877928
  16.2099438  36.6795006  77.8407745  16.0599384  36.4477768  78.7573090
  15.4229565  37.1596642  77.5832291   2.0864232  24.4542656  78.1678391
   1.2804347  24.9611549  78.2662125   2.7205734  25.0787029  77.8154755
  13.2700377  70.7755432  37.8964767  13.5346785  71.5257950  38.4287529
  12.7451620  71.1551056  37.1917267  49.2909927  34.4267540  11.8760004
  50.1623344  34.5999107  11.5196056  48.8194122  35.2526398  11.7675800
  78.4623108  25.6264782  65.7828598  78.6078949  25.4031410  66.7021790
  77.5921097  25.2792053  65.5869217  85.3338623  46.5614090  76.8065720
  85.3500061  47.3232651  76.2273102  85.4308624  46.9269905  77.6858749
  57.7549858  29.6954002   3.7717285  57.9200249  29.2671146   2.9317498
  57.7026291  30.6272507   3.5592489  30.8810673  60.5896072  77.1054077
  30.2231846  61.2646255  76.9387665  31.6452618  60.8705101  76.6020889
   3.7859540  29.2763519  51.1671333   3.6658225  28.9392853  50.2793350
   4.4071751  28.6705761  51.5713005  24.4402695  50.8620644  18.0048046
  24.7814560  51.6517334  17.5849838  25.1442242  50.2197380  17.9148026
  48.7807426  30.2494278  64.3521881  48.0152550  30.5062160  63.8380661
  49.5199280  30.3646278  63.7550545  41.1872482  61.2633934  67.2243500
  41.4220009  60.9207458  66.3619614  40.3005257  61.6061401  67.1126328
  51.9558296  28.7158260  77.3325729  52.2759857  28.8019962  78.2305222
  51.6252823  27.8189812  77.2811813  47.0020828  69.1171188  64.7651367
  46.0956497  69.0401535  65.0629272  47.4979744  68.5535507  65.3590317
  44.9250412  33.9825554  61.0466919  44.9907990  33.1085129  60.6620331
  44.2865868  33.8858604  61.7532730  63.2743874  49.0606422  72.1978683
  63.5622673  48.6332817  71.3911896  63.0447960  49.9501266  71.9289093
  85.4894867  37.2354774  39.5779572  86.2764969  36.7003365  39.6802788
  85.0350876  37.1559944  40.4166718  83.4247131   2.3327866  28.2099648
  82.7653275   1.6400472  28.1705074  83.7255020   2.4288912  27.3063488
   4.4545074  52.1623840   2.4807394   4.3447638  52.8575439   1.8319418
   5.3146515  52.3284187   2.8665075  84.7312088  19.1162891  15.3194065
  84.4871902  18.3135853  15.7802296  84.0523224  19.7466011  15.5603657
  73.3878937  62.2094574   3.0069664  73.1515198  61.7540588   3.8150322
  72.5565720  62.5395164   2.6660867   1.3352348  29.3530540  50.6977844
   2.2537596  29.5509682  50.8804703   1.3483207  28.9233704  49.8425484
  57.9326019   8.4239283  29.0938549  58.4704399   8.1466246  28.3521919
  57.1583900   7.8626609  29.0513840  60.1821785  18.9301167  76.7547989
  59.8843803  18.0966587  77.1193466  60.9896355  19.1247807  77.2305603
  71.7282486  27.2228794  30.9035015  71.2923660  26.3796406  30.7802849
  71.3841705  27.5512409  31.7341747  84.7260666  54.2865829  45.7704201
  85.3743210  54.0750084  46.4421577  84.6990738  55.2433014  45.7565041
  80.5929718  47.0060883  82.1033707  80.6172791  47.9414330  81.9014435
  79.8955917  46.6590157  81.5471039  48.3106842  59.3626251  71.4215775
  49.2187767  59.2156410  71.1570053  47.8572884  59.5849457  70.6084137
  21.9446793  56.6330299  22.8277836  21.4491234  55.8485107  22.5928650
  21.7508373  56.7700310  23.7550850  13.0349350  51.8645821  80.8484116
  13.0741358  52.6241798  81.4295349  13.1209526  51.1113091  81.4327164
  21.5315857  49.7839165  46.2197838  21.6434059  49.1275749  46.9074898
  22.3798695  50.2244377  46.1689148   2.3388760  54.0839539  40.8538361
   2.0785723  54.9743500  41.0897827   1.8056169  53.5216827  41.4157219
   1.6643116  24.3102417  68.9186859   1.3377569  23.6079712  68.3561859
   1.0060257  24.3898640  69.6090164  30.6042728  20.4008217  70.9039078
  29.6822891  20.3102245  70.6631393  30.7677784  21.3435173  70.8752747
  30.1406574  58.6988335  26.5913124  30.8626480  58.6618233  27.2186794
  30.4743767  58.2486992  25.8152695  80.9031830  29.7133522  40.9168816
  81.2984543  30.4575424  40.4628220  80.0972214  29.5371952  40.4314651
  23.0911198  30.7306480  74.1986847  22.6874771  30.3390217  74.9732361
  23.1164894  31.6681995  74.3899536  83.7999268  33.2354698  26.4081860
  83.1479340  33.0094185  27.0715351  83.4872360  34.0601692  26.0362682
   8.9039392  28.8068104  39.4605103   8.0336418  28.6727562  39.8358040
   9.4563799  29.0287933  40.2100220  84.0193558  37.7725525  79.8759079
  83.1904449  37.9471779  80.3216019  84.2666855  38.6137505  79.4919281
  47.1692085  71.0433655  62.7700539  47.1117210  70.2255020  63.2640495
  48.0510063  71.0368195  62.3977394  68.2783356  33.7207527  78.4444122
  67.9452744  34.6181107  78.4372025  69.1808014  33.8027039  78.7527390
  77.6338959  36.5169525  17.4046211  76.7852173  36.3767738  16.9847069
  77.7556992  35.7477798  17.9611931  79.5084457  18.5996151   2.4832797
  80.3344421  19.0032940   2.7497399  79.2697220  19.0536022   1.6751082
  29.1754379  66.1256638  35.4409561  28.4030895  65.6952896  35.0742302
  28.9475861  67.0552368  35.4550667  67.1898727  40.5169220  77.8461456
  67.0643311  40.2043839  78.7421265  66.4352798  41.0824432  77.6818008
   6.6922727  12.5443068  67.1542206   6.2569342  11.6934853  67.1011658
   6.7706852  12.7151136  68.0927887  12.6464224  41.4381294  87.3243942
  12.3825150  41.9404602  86.5535202  12.9946756  42.0930786  87.9293594
  34.3077240  32.3063583  13.3463497  34.3907127  31.7126293  14.0925617
  33.8473358  31.7933884  12.6821690   3.8618848   0.5446585  47.9892044
   4.6125121   0.5283784  48.5829430   3.4013138  -0.2762913  48.1628342
  75.5362930   8.5078402  33.9352264  75.7830963   7.5867739  33.8518181
  76.3642273   8.9653254  34.0817490  85.5574875  37.6775322  60.1640930
  86.3277740  38.2407074  60.2398033  85.5440826  37.4124069  59.2444420
  17.3800697  28.8393307  74.9458237  17.5052738  29.3552036  75.7423325
  18.2281666  28.4219360  74.7950058  22.9701748  60.1900291  49.9544296
  22.7597656  61.0230560  50.3763580  23.7058201  59.8445168  50.4600754
  18.0794811  64.7002640  42.7077942  19.0155354  64.7120361  42.5080528
  17.9390602  65.4809723  43.2435265  60.0354233  66.9045563  62.3507118
  60.0791245  66.9788895  63.3040199  60.8350410  66.4366684  62.1100464
  77.6839905  49.6076012  82.4931030  77.6925354  48.7061501  82.1713104
  76.7789154  49.8956947  82.3744812  17.0261211  58.1018715  20.8652039
  16.9676571  58.6270638  21.6633186  17.8648300  58.3498383  20.4762154
   4.5829263  41.2652016  66.3818970   3.9538813  40.5473671  66.3094330
   4.2746243  41.9181747  65.7535629  64.6965027  17.8763142   8.5146818
  63.9609871  18.0809250   9.0920773  65.3912582  17.5858269   9.1055784
  23.5886059   6.0425782  62.7760811  23.4592991   5.7295594  61.8807983
  24.5086956   5.8572888  62.9640503  40.4141655  12.6712847  21.8864880
  39.6336021  12.1688108  22.1198883  40.2095337  13.0478649  21.0305977
  38.9640198  38.9635925   7.9540677  38.4290047  39.4752541   8.5608587
  38.3477211  38.3558922   7.5452757   7.0524092  49.3126945  19.0383568
   7.3178196  49.7464828  19.8492947   6.3827128  48.6852455  19.3104649
  41.4804192  71.6904221  30.0693245  41.2926178  70.9275284  30.6160927
  42.2332993  71.4265213  29.5404053  49.8184853  69.0334549   2.6189690
  49.5069160  68.3722534   3.2370121  50.5091476  68.5923767   2.1243281
  20.1483536   8.8633413  87.0411835  20.1275520   8.9844723  86.0919037
  19.3698807   9.3212929  87.3581848  26.8700523  18.2018299   8.1252985
  27.1743679  19.0797386   7.8952990  26.9139023  18.1759033   9.0811424
  57.8222961   8.7705336  56.9551582  58.0212402   9.2106438  56.1287460
  57.7197838   9.4822760  57.5869408  12.3665333  36.7305145  67.1071930
  12.8644552  37.5341339  67.2571945  12.4653635  36.2325249  67.9186478
   5.9645023  53.2170143  24.4551563   6.0813613  54.0102921  23.9323883
   6.8248849  52.7975578  24.4495316  37.5540962  41.2547226  32.0064468
  37.6507835  41.9391937  32.6685524  37.9857140  41.6102867  31.2295837
  31.1321220  58.3370972  68.8002853  31.9927635  58.6090736  69.1189651
  31.0139694  57.4550362  69.1527634  61.1953773  62.6191063  13.3275576
  60.2542877  62.7940025  13.3278713  61.2708855  61.7140236  13.6298113
  69.5307922  26.9579525  10.6752701  70.0479584  26.7134857   9.9078016
  69.2339325  27.8489265  10.4901438   2.2587795  15.1787529  50.1778259
   1.7486968  14.7357588  49.4997368   2.2135434  14.5923700  50.9330330
  35.2570801  68.6021652   3.6266849  34.9513626  67.8613281   3.1033006
  36.2117615  68.5500259   3.5808706  42.2166443  45.0801468  21.2098083
  42.1489449  46.0031929  20.9656029  43.1264839  44.9717598  21.4867096
  23.2877274   5.4815884  81.2903137  22.6483383   4.8067112  81.5182495
  23.7277794   5.6832800  82.1160889  77.5574493   2.5110734  45.4874153
  76.6857758   2.7474601  45.1703377  78.1302109   2.6389563  44.7312241
  51.3102798  21.8802872  26.1036530  51.7404175  21.3314629  26.7593994
  51.9981842  22.0776672  25.4679966  40.7843781  68.4357910  66.2820587
  40.0248070  68.5170441  65.7052765  41.3523026  67.8029633  65.8424988
  84.7440186  29.9641685  42.2624397  85.3433151  29.7424545  41.5497551
  84.3432312  30.7897167  41.9902802  43.4863396  51.4342041  69.5144348
  44.3913040  51.5767441  69.2370224  43.1123810  52.3134003  69.5727005
  51.1356583  31.0725956  16.3264580  51.3953171  31.9936428  16.3044682
  50.5820160  30.9613132  15.5535889  25.8315067  42.5593185  44.2255363
  26.3533916  42.3912010  43.4409332  24.9873981  42.8626099  43.8912811
   9.4882383  65.6969147  38.3636284   9.6006994  65.0668564  37.6518631
   8.5555096  65.6558304  38.5747261  65.0585022  60.4103928  47.7070045
  64.9253616  59.9840736  48.5536194  65.8004150  60.9983139  47.8489342
  60.6121216  43.4000854  69.5915527  60.0302315  44.1065102  69.3111954
  60.7161407  43.5350494  70.5334625  66.9149246  18.4827652  50.7158356
  66.7339630  18.0153580  49.9003525  67.8074188  18.8121815  50.6101074
  46.5235825  24.7800465   7.3804102  45.8043518  25.1878281   7.8627534
  46.1485023  23.9728966   7.0281954  54.1619110  23.6701870  46.6863098
  54.3279457  24.1347370  47.5065880  54.1391792  24.3585491  46.0215759
  43.5097160  56.0865097  53.8226624  42.7354164  56.2279739  54.3673439
  43.6550903  56.9278297  53.3899040  78.3652573  51.9866905   3.0134633
  78.6894226  52.0716438   3.9100835  77.5532684  51.4870338   3.0986817
  34.7801399  65.1840591  72.7755966  35.1389847  65.5757217  71.9793167
  34.5041428  65.9311218  73.3065948  27.4315643   8.7716980  86.8156891
  27.8811131   9.5995646  86.9853134  26.6482239   8.8076639  87.3646088
  43.0005188  13.8573170  78.3897095  43.8688545  13.5928812  78.0858994
  42.6298943  13.0637093  78.7757874  50.9558144  55.5241203  53.4133644
  50.0598679  55.5302200  53.7502213  51.4147835  54.8906364  53.9649773
  46.9018555  16.4488907  81.3645554  47.7027016  16.9024620  81.1015930
  47.1720619  15.8877478  82.0914230  23.5630188   8.5619678  64.3522491
  23.0928173   9.1707983  63.7826347  23.4659405   7.7108502  63.9251595
  45.7600212  10.5035839  68.8684692  46.4439125   9.8722239  68.6450729
  45.7636986  10.5321569  69.8252335  56.6508369   0.8332635  23.6975670
  55.9604912   0.1736600  23.7652416  56.4972305   1.2548543  22.8520508
  75.2752304   0.5367689  65.6745605  74.8277588   0.8876986  66.4445267
  75.4508820   1.3036662  65.1293564   8.3342819  70.6846466  13.7784700
   8.8328276  71.4681549  14.0104113   8.9968710  70.0536957  13.4971962
  82.9020844  62.6250687  63.7248650  82.6465988  62.7731285  62.8143501
  82.6735458  63.4393196  64.1731873  45.7091637   3.6352212  81.8482361
  45.6276321   4.5883055  81.8830948  46.4378433   3.4789789  81.2475357
  75.8320999  43.7363625  45.4243507  74.9715347  43.5039024  45.0756073
  75.7692871  43.5498085  46.3610916  52.8501320  66.2888336  54.0909691
  52.4337120  66.5474930  54.9131165  52.6196442  66.9853973  53.4762268
  78.2395477   6.2078047  64.0013580  77.3588943   6.3181190  64.3598480
  78.1487274   5.5087018  63.3538704  64.6193619  19.9470062  52.9585953
  65.0679779  19.9213829  52.1134186  65.2643509  19.6135445  53.5823174
  15.4693003  13.8743582  14.7576208  14.9437008  14.3549833  14.1181078
  14.8835135  13.1914597  15.0843239  67.1729813  33.0034294  53.4942703
  67.0339737  33.8956833  53.1767921  67.0045624  33.0550156  54.4351234
   7.5236263   3.2194288  65.6501007   8.1151304   2.5196381  65.3732529
   6.6489353   2.8882897  65.4464035  26.4021111  59.8985062  84.7314453
  27.3498650  59.8862076  84.8650208  26.0351009  59.8306808  85.6128845
  77.7746964  16.0393372  40.1599274  77.0044861  15.4989414  39.9838943
  77.4195404  16.8537827  40.5159836  69.8861389  40.4680977  76.3766632
  69.7158737  40.9799347  75.5859222  69.0208664  40.1772156  76.6646194
  20.6776638  37.4194145  77.7875748  21.0941677  38.0200806  78.4056015
  19.8425903  37.8359566  77.5745544  68.0909042  57.4167442  79.3285141
  68.2942963  57.5962944  80.2464600  67.8430099  58.2677727  78.9672241
  86.2373505  10.9950800  21.1452332  86.2775269  11.2757425  22.0594788
  86.8554535  11.5679979  20.6914272  54.0580292  11.6921453  85.0263214
  54.2039413  12.6332960  84.9305191  54.9367447  11.3125601  85.0287094
  27.0322495   9.8535700  33.9421806  27.7462902  10.1206484  34.5210152
  26.8567715   8.9437628  34.1823654  79.7835770  63.5352898  72.1885376
  79.9818039  64.0903320  72.9427719  79.7495880  64.1407547  71.4479446
   7.4682722   0.9197974   2.9205379   7.5705266   1.2304560   2.0209451
   8.3616886   0.7460735   3.2169473  43.9613686  41.7848015  45.3359909
  43.1445847  41.4759293  45.7280235  44.4843369  40.9920883  45.2162247
   5.1032472  40.9650955  59.9794464   5.0569859  41.3289146  60.8635979
   5.8397202  40.3544312  60.0099602  30.6159515  55.7014465  69.5553207
  30.5423946  55.1093674  70.3038254  29.7103481  55.8925896  69.3112335
  70.0177307  42.0618668  73.7089081  69.2254105  42.5662689  73.5244370
  70.7267532  42.5836258  73.3330231   9.8085117   7.6659560  24.7281208
  10.2843370   8.3535566  24.2622585   9.0403881   8.1086178  25.0890484
   0.2011202  45.1300240  81.8059998   0.1577538  44.7708664  80.9197998
   1.0498271  45.5709877  81.8444595   3.8978021   6.8288784   3.6661863
   3.9956219   6.7805557   4.6171479   3.8751547   7.7665339   3.4750795
  79.4244690  30.6869659   0.5398056  79.4483414  31.3442001  -0.1556836
  80.3224411  30.6546421   0.8697216  38.7616730  10.1303444  80.5853348
  38.6736794  11.0831566  80.6105804  37.9016762   9.8177519  80.3044052
  71.6228333  18.5412159  87.5122528  71.8746185  18.9324245  88.3487930
  72.4382629  18.4983902  87.0127869  44.5798988  68.1849747  53.0710754
  44.7554359  67.3142014  52.7144661  44.3440933  68.7130737  52.3083611
  82.9601440   7.7802753  29.9950447  83.7720490   7.2901530  30.1247158
  82.4429245   7.5988560  30.7797756  82.4459534   4.0824103  50.2020264
  81.7280273   4.6047950  49.8443642  83.2323761   4.5936112  50.0110970
  18.7944202  61.3023529  74.5217056  19.1158714  60.4969521  74.9269562
  18.1793938  61.6629257  75.1604233  40.3452148  46.2971306   4.0657492
  40.8976936  45.6687012   4.5305867  40.9334335  47.0216560   3.8529303
   8.3136635  29.7684612  66.2819138   8.4169912  30.4175987  66.9777374
   7.9637661  30.2643909  65.5417404  71.1146317  19.3692074  11.0146933
  70.4150696  18.8777962  11.4452343  71.0804825  19.0842896  10.1015186
  78.5365982  56.8496742  54.5924873  78.2872009  56.9283295  53.6717033
  78.5645905  57.7519035  54.9109650  47.5607376  11.9445772  29.4877033
  47.0876732  11.3539562  30.0738869  48.2355156  12.3399916  30.0395679
  59.6639023  58.0394440   7.7659211  59.2583733  57.2800102   7.3475480
  59.2791786  58.0641022   8.6420546  51.6900558  57.1557961  40.1244926
  52.1110497  56.6212463  39.4512558  51.8117752  56.6604424  40.9344559
  85.3692780  61.8049736  53.7008133  85.1193924  61.8300095  52.7771454
  85.2109528  60.8993530  53.9673042  74.4901962  41.0767975  11.5721846
  73.6559753  40.6767845  11.8177347  74.9833450  41.1242371  12.3912001
  32.3127022  44.6203041  74.0414429  31.6358414  44.7264023  73.3729858
  33.0123062  44.1390724  73.5996323   1.1130373  10.6872377  73.8890228
   0.2458965  10.7126083  74.2935638   1.4329102  11.5872421  73.9515076
  78.1511078  14.7362700  74.9035339  78.5292053  14.4003420  74.0908661
  77.5814896  15.4530697  74.6243210  50.9274750  69.1520462  10.6230087
  50.9109001  68.3665848  11.1698208  50.2960472  68.9723129   9.9264259
  60.0117188  41.7032509  81.0531540  59.4244041  42.2894821  80.5760498
  59.8936920  41.9421501  81.9725113  57.4767723  57.2007561  81.0606918
  58.2146530  56.8300858  80.5765762  57.1677322  56.4826698  81.6130371
  39.8442116  49.4981194  40.9748116  39.3883934  50.1158218  40.4030571
  40.7379150  49.4701920  40.6331329  75.5994949  66.6984406   5.2277551
  75.1555023  66.2739029   4.4936762  75.1646423  66.3485794   6.0054054
  66.1158676  62.5018234  13.9548445  66.0669250  63.2570610  14.5408888
  67.0201950  62.1975517  14.0312843  74.4392395  62.3233833  69.3203964
  73.5503540  62.6777077  69.3442764  74.6310959  62.2204704  68.3882828
  34.5746613   6.5847249  79.4613266  34.1241989   6.6262398  78.6177673
  33.9680939   6.1152000  80.0339127  63.8505745  65.3334732   4.6922131
  64.5602112  65.9625397   4.8223090  64.1530457  64.5374222   5.1293092
  80.4464035  48.0265045  31.4341946  80.7327652  48.2736893  32.3134727
  80.4666519  48.8441887  30.9369926  49.7932777  55.9315224  77.2519150
  50.1347847  55.4286575  77.9913330  48.8696671  55.6853790  77.2010422
  12.4634142  62.9605370  63.3770790  13.0552645  62.2337646  63.1827927
  11.5964880  62.6346397  63.1352921  47.8092041   8.8242455  54.9190140
  48.5834885   8.4688969  55.3554115  47.9468842   9.7714911  54.9207077
  13.5969944  36.2637062  10.6234131  13.0909214  36.6952438   9.9350100
  13.5008125  36.8350792  11.3853273  45.4759064  43.9037781  34.0233765
  45.7257004  43.0006485  33.8279533  45.2509232  43.8940926  34.9537086
  36.8936501  58.8083611  63.3450813  36.1322250  58.2639542  63.1448708
  36.6248589  59.3264008  64.1037750  76.6201324  54.3854065  61.0221176
  77.3946457  54.3817444  60.4596748  75.8884506  54.2367172  60.4231415
  33.0713463  41.0107841  23.1379547  33.9524651  41.1789284  23.4720116
  32.4928474  41.2242432  23.8700790  49.6097183  12.4573135  61.3718681
  48.7089767  12.6765423  61.6102638  49.7164612  11.5476608  61.6500206
  43.8450279  53.8120651  43.6933060  42.9418755  53.7780952  43.3780479
  43.7668762  54.0387268  44.6199913   0.4740742  40.9961815  64.4175720
   0.9140851  41.0581512  63.5697594  -0.4364456  41.2260399  64.2322311
  46.2631989   0.2327401  82.7113876  45.5540352   0.7131615  82.2841721
  45.8188858  -0.3710394  83.3065948  50.4800568  49.2550430  43.3113747
  50.0612907  48.5532036  43.8096619  50.6745415  48.8616867  42.4606819
  78.0553055  50.9658089  36.7450829  77.4020004  50.3086052  36.5052795
  77.7142181  51.7848206  36.3857651  20.9440937   1.8984510  78.7690125
  21.6884155   1.5468451  79.2574692  20.7998219   2.7669523  79.1446762
  49.8955841  41.5420113  83.9564133  49.6354485  41.0895996  83.1539841
  49.5279808  41.0093155  84.6616287   1.9434600  60.3495445  -0.2459438
   2.7560401  60.1868744   0.2331012   1.5888487  61.1467476   0.1476926
  55.6087189  23.4807472  17.3736267  54.6715584  23.5308132  17.1853333
  55.9739227  22.9839897  16.6414471  56.2464104  47.1786461  77.5745392
  56.5141144  46.8341293  76.7225571  55.2997284  47.2976875  77.4980316
  80.8713303  67.6938553  14.2387114  80.7353821  67.2397995  15.0703268
  81.8215408  67.7853928  14.1683378  58.9015579  31.3133087  65.1449203
  58.6993027  30.5359344  65.6655121  58.1881981  31.9221191  65.3364944
  86.4783401   3.4415691  58.1919174  86.6380539   2.7725389  57.5262413
  86.9024124   3.1015396  58.9798088  72.0490417  26.1108551  39.2484093
  72.9042816  26.5302143  39.3429527  72.0617905  25.3949471  39.8836632
  71.5526047   4.6482701  86.3700790  70.6855011   4.4100256  86.6981125
  71.8831558   5.2828989  87.0058517  50.9921379  59.7550697  65.3458481
  51.0819969  60.6434746  65.6906586  50.2206154  59.4028206  65.7895889
  85.4354935   1.2660455  78.1112518  84.7350159   1.8803819  77.8918152
  86.2098694   1.6194184  77.6734085  38.5867882  18.3226070   2.7707102
  38.9980850  17.4905128   2.5368564  38.7548676  18.8921890   2.0200062
  27.1891136   0.2538725  32.5890732  26.8592339   0.4027787  33.4752083
  26.4877758   0.5653363  32.0169296   5.5659652   1.2220585  29.9626789
   4.9645224   0.5712565  29.6008015   5.5546646   1.0602262  30.9060326
  64.5797958  36.6283569  87.0117722  64.9690247  37.3112259  86.4654999
  65.0686646  36.6713982  87.8335876   8.7165871  62.9429741  49.4947128
   9.5573864  62.9674797  49.0378876   8.6624889  62.0555649  49.8493996
  17.9185333  19.9133224  76.9440994  18.3631401  19.4825401  76.2140427
  17.9958801  19.2945843  77.6703262   2.5326166  28.5706177  15.0900049
   2.0653136  28.6997948  15.9153366   3.0797758  27.8001900  15.2426109
  68.3755722  57.4385147  87.3627472  69.0665283  57.6087685  88.0029297
  67.9241791  58.2773476  87.2687531  59.7623863   8.9349775  77.8328629
  60.3473549   9.3603182  77.2058640  59.4352837   9.6501751  78.3785095
  42.2657471  61.6647682  23.5214596  41.9257050  60.7726250  23.5898933
  43.1222534  61.5634422  23.1062927   1.4721874   2.5213437  12.5588064
   1.8480179   1.6610032  12.7453480   0.5327651   2.4089236  12.7039938
  25.2539082  53.3768349  55.6203079  24.4236355  53.6174812  56.0313644
  25.1347103  52.4646492  55.3558350  60.4915085  10.2483091  49.7516136
  60.4490204   9.9188414  50.6493225  59.7047768  10.7850981  49.6560020
  48.9135895  24.8507614  88.2868042  49.3886452  25.6182747  88.6053543
  49.5722466  24.3395042  87.8166733  66.6616592  27.9197998  56.3849983
  67.2933807  28.3895111  56.9295425  65.9002609  27.7981625  56.9521980
  83.8995895   6.5080914  19.7043972  84.2572250   7.2023082  19.1508732
  84.4204941   6.5489650  20.5064068  50.7724113  45.1689758  73.5971832
  50.3603706  46.0138741  73.4166260  50.0948410  44.5239105  73.3946457
  63.0476494  49.2408066  89.1069412  63.5597305  49.9656639  88.7483521
  62.2944260  49.1667442  88.5209427  43.5947075  69.7773895  21.1251984
  43.1437531  69.4293289  20.3559608  42.8907089  70.0114517  21.7300377
  33.3022423  42.0374298  35.7016907  33.7387085  41.1856651  35.7164764
  32.9286461  42.1303635  36.5780602  39.5405159  42.4555435  80.5114212
  39.0745049  41.9316063  79.8598404  40.2687721  41.8999252  80.7891998
  48.1229973  63.3873100  87.5898972  48.5652771  62.5523796  87.7432327
  47.2185173  63.1460686  87.3900223  13.0650768  66.4030609  42.2547455
  13.6489372  66.4191742  41.4964066  12.7396431  65.5034714  42.2873917
  77.5287933  31.0368290  20.6976910  77.1468964  31.1420975  19.8263073
  77.5683136  31.9256229  21.0508404  30.8941193  49.5625725   8.9664688
  31.2747746  48.9024544   8.3871784  30.7110291  49.0911255   9.7791481
  30.8464146  32.3198204  87.9445267  30.6199760  31.4501247  87.6150055
  30.0424061  32.6368713  88.3559723  26.4112873  70.5927887  59.0389175
  26.7687035  69.7053452  59.0083847  25.4853191  70.4709854  59.2486229
  71.2167587  42.9244843   9.8301468  70.7689285  42.0892906   9.6955090
  72.1327744  42.7415047   9.6211948  56.1085396   7.1038098  58.6268997
  56.3253212   7.6734781  57.8888512  55.1518288   7.1050191  58.6574631
  54.0866623  56.4704094  13.1558228  54.0538330  55.9683113  13.9701014
  54.1632957  55.8081284  12.4689875  82.9739227  53.8344841  24.1110287
  82.8483658  54.1300278  23.2092953  83.7865601  53.3292542  24.0865326
  42.8016739  23.0650883   7.8264976  42.3346710  23.9003620   7.8051004
  43.3178024  23.0585327   7.0203958  46.4310341   4.8317437  73.4009933
  47.2045479   4.3682075  73.0799866  45.6962624   4.2683911  73.1581345
  34.4528847  44.0987854  16.9218502  34.6194687  44.9235802  16.4655666
  33.5078430  43.9683952  16.8435764  22.4570293  48.1428795  27.8532963
  22.0224953  48.9217987  28.2007160  22.4786606  47.5320511  28.5899448
  24.8148689   3.4750724  67.8569412  25.5086765   3.3505173  68.5045090
  25.0972977   4.2337937  67.3462448  76.6659851  18.9334717  45.6601944
  75.9779587  19.5692921  45.8566437  76.2770081  18.3545437  45.0046196
  18.1062660  17.4347038  66.9725113  18.0928383  17.5597878  66.0236130
  17.6680298  18.2103577  67.3225708  83.6957092  17.1092224  64.1865082
  83.7348251  17.6130123  64.9994659  84.4379883  17.4265327  63.6721420
  72.0136948  59.5473137  40.6991425  72.5366745  59.0277748  40.0885582
  71.8474731  60.3674469  40.2344055  68.5871735  66.0976181  60.7073784
  69.2021866  65.9808426  59.9832535  69.0942841  66.5495224  61.3818054
  19.1126842  16.5085106  87.7907486  19.4331341  15.6172628  87.9293900
  18.1592274  16.4249535  87.8037643  44.4266243  37.3926582  81.3586426
  44.0412407  36.5503654  81.1172867  44.1138229  38.0000648  80.6882401
  83.0293808   4.5861249  -0.2686502  82.6965942   4.3144851   0.5867424
  83.8095474   5.1034713  -0.0688568  17.6628075  23.0109253   8.2303247
  18.3339043  23.6934242   8.2229481  16.8587532  23.4628658   7.9744358
  57.8934860  28.1211338  22.8137016  57.1247635  28.3656368  22.2984161
  57.6177979  28.2338486  23.7233849  69.6172943  56.3238602  83.6651459
  69.6050339  57.0835838  84.2472916  69.8713379  56.6789284  82.8133087
  33.4178810  31.8993912  19.1747990  33.0628967  31.4043465  19.9131413
  32.8467178  32.6640892  19.1023998  79.0433502  46.0853806  86.1116180
  79.5376434  45.6032829  85.4486771  78.8721313  46.9373245  85.7102432
   2.0516038   7.1238065  78.1751099   2.6415761   7.5396323  77.5464172
   1.4873194   6.5650597  77.6406784  37.9647827  50.5556564  88.8250580
  37.2259827  51.1225433  88.6036072  38.2422028  50.8514862  89.6921005
  73.6278992  63.6438370  25.9902363  72.9439545  64.0215912  26.5431786
  74.4341812  64.0689697  26.2824841  26.6254749   8.0711727   7.9400001
  26.6640816   8.9638519   7.5966845  26.5133018   8.1822882   8.8840885
  36.1775246  41.2548904  72.4011612  36.1871643  41.4658661  73.3347702
  35.9002304  42.0659866  71.9751663  63.1741867  34.6068115  44.9073830
  62.8473434  35.3492279  44.3992271  62.3864288  34.1296005  45.1680222
  71.7675323  42.0083313   0.5978351  72.1590347  42.8549995   0.8125597
  72.4937210  41.3873253   0.6547341  78.9890442  13.2356977   9.1978493
  78.3604202  12.8428297   8.5922718  78.6797791  14.1339960   9.3146868
  22.0923157  57.7474899  58.0045891  22.9949017  57.7635765  58.3228874
  21.6169777  58.3237534  58.6030922  12.3782187  29.5032387  14.0551891
  12.8474674  29.4100189  13.2261248  12.8165607  30.2298031  14.4981241
  75.5108490  34.7141685   6.8062711  74.9088058  34.9169350   6.0902658
  75.9699783  33.9256172   6.5171061  36.6844063  43.0937805  21.8859272
  36.1878738  42.3143196  21.6366730  36.7790947  43.5879745  21.0716572
  65.4017334  32.5216904  74.4919815  65.2061996  32.8527260  73.6153870
  66.2924652  32.1777039  74.4249191  18.1802845  11.3239851  23.4043827
  19.0315094  10.9103937  23.5478821  18.0262337  11.8365774  24.1979504
  64.5563202  28.0641689   6.9001613  64.3945312  27.8224373   5.9882288
  63.7873421  28.5752716   7.1525106  24.6447926  41.1025581   4.1182294
  25.4457932  40.6569748   4.3940611  24.9482498  41.8117561   3.5514960
   4.5790138  63.0564537  66.6228867   5.2083588  63.3645592  67.2749786
   3.8313894  62.7514610  67.1369553  45.4370575  48.8656158  75.7764206
  45.2102432  48.8727570  74.8465118  46.2575302  48.3744583  75.8190765
  59.8422737  70.7243881  57.5374298  59.7486115  70.9969864  56.6246567
  59.0682297  71.0798340  57.9741745  27.9271011  39.3780136  17.5708961
  28.3588600  38.5492172  17.7780514  27.8132782  39.3578377  16.6207008
  19.2597866  63.9809837  45.9450760  19.7285175  64.0558624  45.1138611
  19.5771751  64.7184296  46.4662971   6.0384169  20.4463577  18.3049927
   5.5991640  20.9931564  18.9563751   6.8834672  20.8733921  18.1644115
   8.9950943  66.5822525  78.0306168   8.2815447  66.6282730  77.3942490
   8.5933485  66.8408432  78.8600464  17.8835716  26.5996170  24.3952427
  17.5937595  25.7659130  24.0248661  18.2761230  27.0660019  23.6572590
  80.6015167  60.7069626  23.9619198  80.2372208  59.8220673  23.9399948
  80.0520248  61.1767159  24.5893173  66.7790070  57.5048599  43.3803864
  66.4352646  56.6127014  43.3343277  66.0029526  58.0632477  43.3337135
  39.2419968  69.0405731  12.6022816  38.8596153  68.2188416  12.2944212
  39.7740211  69.3471069  11.8679686  51.9611397  13.8515844  29.7551956
  51.6076469  12.9675713  29.8541527  52.8771896  13.7174110  29.5121231
  60.2719383  60.3845901  37.9514656  60.9544792  60.3118935  38.6186142
  60.0846825  61.3219681  37.9015427  23.2045746  59.7489433  38.9835434
  22.5837421  59.1274109  38.6034164  23.7957726  59.9678001  38.2632523
  32.0274506  43.2902031  61.6163902  31.7845802  44.0335579  61.0644226
  31.9024086  43.6055565  62.5114594  -0.2951033  18.0834179  36.1096382
  -0.0556715  17.2231216  36.4543037   0.3695241  18.6757545  36.4612617
   0.4500326  23.4820156  32.0588417   0.8380821  24.3371487  31.8733768
   0.6207119  23.3383484  32.9896812  79.0806122  60.5389328  63.2943001
  79.2279739  60.0493088  62.4851151  78.6106796  61.3251419  63.0163193
  46.6767159  63.4947662  65.9027786  46.0234337  62.8584976  65.6118851
  47.3369141  63.4941063  65.2096863  72.5341187  71.4555435  42.9107399
  71.6904907  71.5656204  42.4720917  72.3081436  71.1753464  43.7976761
  19.7117138   2.5577574  87.4767227  19.3425064   3.0621581  88.2016373
  19.3073559   2.9321067  86.6940460  19.7200394  41.0861511  40.2078552
  20.5067940  41.0244026  40.7495499  20.0396729  40.9959946  39.3101158
  22.4527378  22.2693405  15.7567072  22.3052559  21.5241470  15.1743259
  22.8493652  22.9363937  15.1963892  34.5533943  68.2661743  17.4602337
  33.6366310  68.2374725  17.7340069  34.6740952  67.4695282  16.9434891
  55.1378975  30.1423244  88.3087158  55.9185028  30.0654202  87.7601013
  55.3249397  29.5927563  89.0697784  84.6481094  19.0062008  19.4459248
  84.1378021  19.4995537  18.8037224  85.4862976  19.4663029  19.4903336
  73.3781815  53.5135765  57.0522156  72.9365387  53.7898941  56.2491989
  73.2845764  52.5610085  57.0614204  81.6061783  64.8706894  21.7629280
  82.0274124  64.1095657  22.1622772  82.1241455  65.0464096  20.9773979
   1.8248079  22.7141075  56.4190674   2.0226507  21.7920494  56.2550659
   0.8916428  22.7974186  56.2228661  26.0970821  43.6961136  85.7630997
  25.9277325  42.9645462  85.1694946  26.9506645  44.0329170  85.4907150
  27.6204796  67.7481308  58.2297630  26.8567429  67.6460342  57.6618576
  27.4251060  67.2055435  58.9937401  85.4695282  63.6371880  38.4968796
  84.9188538  63.1433029  39.1043854  84.8568573  63.9923859  37.8529091
  46.9623528  28.7698421  73.5865173  47.0264702  27.8595867  73.2974625
  46.9091644  28.7149620  74.5406647  54.0782280  46.7284508  87.1610870
  54.3801575  46.1208038  86.4859314  53.1363678  46.5692825  87.2227097
  38.5224724  47.0263100  44.9605637  38.0493164  46.4876175  44.3263969
  39.3973122  47.1255798  44.5850258  81.4518890   3.7407436  68.6441650
  81.3488159   4.2209826  69.4657364  82.2887115   4.0445490  68.2925110
  43.9843216  44.4305153  78.4735336  43.7339935  44.5047569  77.5526352
  44.0196648  45.3346634  78.7857666  78.7978439  45.2991676  68.1174927
  79.1401596  45.2585526  67.2245255  79.5717926  45.4318581  68.6648865
  37.0084839   5.2786593  77.5930634  37.2675362   5.3934541  78.5073700
  36.5320625   6.0801754  77.3766708  41.1198578  63.7515831  80.7669525
  41.5676765  62.9937935  81.1430435  40.4162178  63.3757515  80.2379303
  65.0204544  22.2517052  21.3324203  65.4579086  21.5370712  21.7952023
  65.7329025  22.7465534  20.9277267   3.4403274  39.9292488  45.6211090
   3.2832897  39.7185631  44.7006836   4.3855958  39.8274803  45.7322083
  85.0544281   7.0592308  53.5775490  84.4455414   7.0246153  52.8397903
  84.9365540   7.9354172  53.9444771  54.3693008  70.7688675  30.5252666
  54.5090332  70.0182648  31.1025867  54.4195480  71.5292130  31.1045589
  20.4431458   4.7017541  67.6082687  19.8302517   4.0637460  67.2428360
  19.8962269   5.2851753  68.1343231  39.9707565  40.8170090  29.3275642
  40.5681190  40.7913971  30.0750484  40.5450134  40.8125076  28.5617714
  79.9542465  49.5386887  63.3618736  80.7945023  49.8535652  63.0286179
  79.8872528  48.6420097  63.0336723  37.2972260  67.6873093   2.0579312
  38.1987686  67.7295456   1.7390854  37.1596489  66.7630768   2.2655227
  83.2527847  36.5714645  60.8552284  83.8885269  37.2802086  60.7565269
  82.4296646  36.9419708  60.5367355  78.6395035  66.4877319  50.9981728
  79.4991837  66.5903091  51.4064102  78.0186310  66.5802994  51.7207947
  49.2770996  57.2984543  43.6884956  48.7056847  58.0375328  43.8970146
  50.0009346  57.6865807  43.1969185  59.4183502  57.3516388  87.6217346
  59.4300041  56.7395821  88.3575897  59.6189613  56.8112679  86.8575439
  81.5855331  19.0329113  82.3152008  80.8337326  19.3136883  81.7934723
  82.2985535  19.6074467  82.0363770  54.5574608  18.7496319  19.7235565
  54.1296616  19.0399551  18.9179916  55.3216743  19.3198185  19.8078079
  26.6416893  48.1488419  37.1339188  26.2349358  48.9577713  37.4444275
  27.4409561  48.0675697  37.6543007  85.3130035  57.0419769  75.6708069
  84.7512970  56.2775002  75.7984619  85.6450043  56.9488258  74.7778778
   5.7401404  46.8006096  79.3884811   6.2478023  46.0887413  78.9989243
   4.8398242  46.4756775  79.3974991  75.6308823  25.1310902  38.2447586
  75.3040237  24.3269691  38.6482201  75.9338226  25.6624756  38.9810257
   0.6133538  44.6223030  65.6720963   1.4240615  44.2545547  66.0238724
   0.6876488  45.5630264  65.8325882  84.2159729  58.0282745   4.5141392
  84.0639420  57.5095062   3.7242041  84.7036285  57.4437180   5.0944080
   1.8436934  71.3051071  84.7358170   0.9435654  70.9958420  84.8375854
   2.3429246  70.8061447  85.3823700  37.2317085  39.9745789  19.5769253
  37.3416100  39.3607941  20.3031635  36.3667374  40.3596382  19.7175751
  72.2276306  23.6326160  68.2117767  71.7116394  23.3519173  68.9675522
  73.0103455  24.0321465  68.5912094  13.2575359   7.9815559  14.8885593
  12.9302568   7.3266730  15.5052032  13.6134233   8.6758976  15.4430552
   0.8457025  58.0448380  14.2120924   1.5610749  57.8538055  13.6054783
   1.2570195  58.5435181  14.9180450  48.9560509  26.8601627  58.5757980
  49.1297607  25.9188786  58.5820274  49.8223190  27.2639408  58.6284637
  41.6649895  60.6781387  87.9803925  42.4922218  60.3403168  88.3236084
  41.0455627  59.9576340  88.0961990  30.6644917  65.4485931  37.7855644
  31.0263462  66.3170624  37.9618034  30.0663967  65.5830002  37.0504112
  42.6656723  56.3076591  29.8200054  42.6373253  57.1046829  30.3493252
  43.5737572  56.2495880  29.5229511  55.8398819  54.7158394  55.1773567
  55.1696472  54.1947365  54.7352409  55.4987679  55.6100082  55.1591110
  58.3082809  22.9375629  33.2292786  58.1125870  22.1424255  32.7336044
  59.2574234  23.0377617  33.1563416   2.7919075  20.1603622  20.8544197
   3.6186762  20.0417690  21.3219891   2.8512671  19.5641727  20.1079178
  85.4754486   9.9258146  13.5682583  84.6121521   9.6822653  13.2341480
  85.3371582  10.7710810  13.9956131  25.5643387  23.2646675  46.0909882
  24.9776497  23.4991302  45.3719215  25.4812031  22.3141766  46.1677284
  33.9426765  34.6556053  55.4025764  33.3191948  35.0744820  54.8092422
  34.7791328  34.6967087  54.9390259  18.2864170  37.8288994  33.4729500
  18.1854992  37.5028381  32.5786743  17.4106083  37.7604790  33.8530960
  25.4565182  17.8997402  66.5505066  26.0787907  18.1057587  67.2480469
  25.8487396  18.2737026  65.7614899  84.9534378   9.7195511  24.7316837
  85.4674530   9.0103092  25.1176872  84.1338043   9.7178450  25.2260723
  45.8322296  10.7979136  47.9954147  45.5080986  10.2772875  47.2604866
  46.2444801  10.1597204  48.5776443  45.2236328  21.6366215  12.0816898
  45.1572189  22.3489170  11.4457207  44.4065666  21.1483440  11.9806290
  22.0519524   6.0705695  65.7926636  21.3456898   5.6668167  66.2970581
  22.4011002   5.3583345  65.2568970   8.6545362  44.2149696  17.3979454
   7.8854718  44.7798233  17.3223858   8.3666372  43.4916039  17.9548016
  55.0414619  23.9989758  42.1851387  55.2980614  23.9041977  41.2678604
  55.4118309  23.2298470  42.6181526  44.2196617   4.4422259  18.5469780
  44.3115158   4.6993685  17.6295509  43.4343491   3.8952415  18.5649338
  40.1692657  26.7740421  10.8844147  39.5041428  26.2429829  10.4464445
  39.7055931  27.1845207  11.6143093  74.8348007  41.2715073  27.3682194
  75.7855835  41.2092361  27.2767582  74.6176910  42.1391487  27.0271950
  74.2472229  21.9936466  24.9390850  73.3170319  21.8473434  25.1110573
  74.4869995  22.7170048  25.5183029  27.2406273  65.9047241  60.3236847
  26.3483086  66.2323990  60.2112999  27.1513901  65.1704102  60.9311752
  16.0725307  65.2601089  22.2438869  16.7771072  65.4274826  22.8698196
  16.5234451  65.0261612  21.4326077  76.3154831  10.3413858  46.7531967
  76.4281387   9.4142027  46.5437431  76.8830414  10.4866095  47.5101776
  32.4989090  51.1775513  24.1321316  32.1964340  52.0143661  24.4849529
  32.9550247  50.7603149  24.8629570  74.2038269  48.2831001  74.1897430
  74.2779236  48.7451820  75.0247421  73.2666550  48.1149788  74.0913849
  27.8901787  71.5752106  18.3307858  26.9580708  71.4152908  18.4785404
  28.2976570  70.7133636  18.4169521  48.4341812  47.7102165  37.1689148
  48.3674736  48.4807053  37.7329483  47.6530304  47.7490082  36.6170731
  74.7610321  62.6840019  45.4565125  75.1038513  61.7903748  45.4445915
  75.1035538  63.0826225  44.6565056  69.6300125  36.2526932  27.9582615
  70.4852753  35.9928436  28.3006668  69.5459137  35.7726021  27.1344452
  51.4992447  20.0610523  32.1253624  51.2006531  19.7568855  32.9824295
  51.3991699  21.0123539  32.1606140   8.4330454  45.6972542  40.1306152
   8.7767458  46.2541847  39.4320946   7.8109155  46.2551193  40.5974960
  56.8952217  62.3021812   1.5258818  57.2384338  62.7059517   2.3230042
  57.6642303  62.1795845   0.9692613  64.5236816  14.4363184  53.0183487
  64.5493088  15.2407913  52.5002785  64.4968033  14.7371311  53.9266548
  30.1357956  27.1785374  85.5117340  30.5479374  26.3826065  85.1757812
  29.5267830  26.8683567  86.1819000  31.1450825  65.8380585  27.5631351
  32.0935211  65.7089386  27.5680084  30.8286591  65.2630692  26.8663616
  64.9343338  39.2393570   9.4436922  65.1681442  38.3158836   9.3500957
  65.3169098  39.6623917   8.6749868  54.3881416  11.7810383  67.8639832
  53.8312454  12.4627962  68.2398834  55.1177406  12.2584858  67.4690628
  64.6474991   4.4851985  71.1444168  64.6471252   5.2169275  70.5273209
  64.3314209   4.8636284  71.9648514  45.5724716  22.8019352  85.4090881
  45.4460220  22.0657272  86.0076218  45.0752945  23.5188675  85.8028564
  43.4558182  28.7150517  45.9476280  43.9969025  28.9573650  46.6991234
  43.3347931  29.5332756  45.4658623  53.4203224  10.8122635  37.4344368
  53.6199989  11.6010218  37.9386406  53.2170906  10.1504869  38.0954819
  23.4774609  46.0844498  79.4662018  23.6703682  46.5647163  78.6609879
  23.6602535  46.7096367  80.1676025  18.4860058  21.1099968  33.6056404
  17.9599686  21.6252460  32.9940567  18.8486824  21.7554512  34.2123413
  66.1655273   2.3931184   4.2354236  66.3636246   1.9607191   3.4047480
  66.7680511   1.9938391   4.8629413  65.6560898  25.4317951  13.0444489
  65.8300095  24.6542282  12.5140028  64.7026138  25.4588909  13.1243200
   4.7850223  42.2255402  28.6375751   4.6862988  43.1389961  28.9060612
   5.0549269  42.2732925  27.7204590  65.3545914  65.8604736  23.5463085
  65.7573090  66.6761398  23.8441906  64.7336655  65.6332016  24.2384300
  41.0857582  56.7457848  67.2022476  41.4623833  56.5438232  68.0587540
  41.8359489  56.9992371  66.6644669  26.7034340  12.7671680   1.3109082
  25.7633362  12.6733103   1.1571616  27.0573711  11.8883495   1.1743833
  78.2480164  28.4537506   1.7502817  78.6920242  29.1303864   1.2391509
  77.5827789  28.9281349   2.2489309  18.8661137  60.3994904  31.8263397
  19.2546997  59.5896111  32.1569862  18.0091896  60.4445648  32.2504654
  41.9028282  50.3964653  67.6912537  42.5148659  50.6716614  68.3738251
  42.3743668  50.5468330  66.8719406  20.0350246  55.0137062  78.5841599
  20.3704338  55.6425896  77.9452286  19.6330624  54.3252602  78.0543518
   7.2308450  28.8729801  30.2399769   7.3067474  27.9422417  30.4502087
   7.5484719  29.3221397  31.0233040   6.6737065  35.0477600  80.7830276
   6.4264593  35.5815582  80.0279388   7.6289954  35.1010742  80.8115387
  22.7397728   7.5947361  79.6408234  22.6012802   6.8931561  80.2770920
  21.9761238   7.5504060  79.0653992  51.8753815  44.7898178  27.8164101
  52.5808640  44.4885368  27.2439117  51.4072533  45.4429359  27.2962894
  66.5051270  55.7255592  34.2842979  66.9758072  55.3136978  35.0089073
  66.7305603  55.1951981  33.5200157  75.9358902  34.6730309  33.8547287
  75.4940109  34.4415054  33.0377998  75.2364273  34.9980431  34.4216003
  22.4918442  25.5802078  79.7737656  23.1389675  26.1674461  80.1644211
  22.9459438  25.1841908  79.0299911  48.2169685   9.9364414  26.0629349
  47.5946236  10.0557461  26.7803497  48.9382210  10.5306253  26.2702332
  59.4036789  39.4493752  77.0962143  59.1281128  40.1853790  77.6426544
  59.1774445  38.6729698  77.6083221   3.9747829   1.1917009  16.2191353
   4.4763346   0.4410109  15.9011078   4.4475369   1.9542575  15.8856049
  77.5384674  59.6805573  29.0053043  76.8541946  59.8015823  28.3470135
  78.2393265  59.2229691  28.5409241  -0.1415494  24.6688461  81.9607239
  -0.1000909  25.3420124  81.2814865   0.3393120  23.9274540  81.5928345
  39.3646355  69.4756699  85.4998703  38.4554405  69.3331451  85.2366638
  39.7699127  69.8978043  84.7423859  19.6667080  24.3836269  71.1459198
  20.1363983  24.7796726  71.8799286  18.9409809  24.9836826  70.9742050
  58.7705421  53.5462151  56.1600800  58.8403625  54.0431862  56.9751701
  57.9383736  53.8265991  55.7791405  39.2084770  10.7235346   1.6837686
  39.4265289  10.1649885   2.4298997  38.5751228  10.2129574   1.1793835
  54.1083374  17.8275337  79.0656128  55.0005913  18.0907230  78.8401184
  54.0458260  16.9181290  78.7735367  17.4359245  67.3949127  49.2192497
  17.2688885  68.2058105  49.6996422  16.7222137  67.3417358  48.5836220
  61.9556122   8.6995077  64.7262115  62.7667770   9.0961704  64.4085541
  61.4602394   9.4304676  65.0957108   8.7004976  70.2285919  33.8315201
   7.8136797  70.0765610  34.1581268   8.9746275  71.0430908  34.2530365
  46.4051704  66.1331100  77.7811813  47.1357384  65.5167084  77.7306290
  46.1418419  66.1174774  78.7013168  38.4063797  27.9511929  86.2723465
  39.1160622  28.4032059  86.7287140  38.0953178  28.5849705  85.6259766
  42.5011482  68.2355957  71.5541534  42.9893303  67.4122467  71.5554428
  42.0813522  68.2637863  70.6943817  52.9110298  43.2627220   6.7193928
  53.3756104  43.7694550   7.3854399  53.4605141  42.4917145   6.5784941
  86.1178894  22.9219341  15.6721201  86.5997162  22.0972195  15.7347517
  86.4481049  23.3321400  14.8727951   7.3405080  51.0586891  52.5117531
   7.7394829  50.6675034  53.2889442   7.5955415  50.4789581  51.7940483
  76.9468994  66.2775269  15.5072937  76.7189255  67.2046127  15.4382725
  77.8984909  66.2719345  15.6106691   7.5339909   2.8188837   0.7999018
   6.6822162   3.2524519   0.7476507   7.5445685   2.2208285   0.0526066
  56.6098175  51.7392731   5.9709315  55.7000580  52.0051727   5.8372521
  56.8575897  51.3124657   5.1507626  64.4908447  29.0423870  63.8430252
  64.7370834  28.9537182  64.7637558  64.6965256  28.1909580  63.4570236
  78.6664276  45.7668343  54.9514656  78.0486984  45.0358047  54.9669228
  78.6175537  46.1403542  55.8314209   7.1607847  64.4613342  41.5014458
   6.6489749  63.7353554  41.8581505   7.3797822  64.1854324  40.6114159
  50.9098701  13.4857416  35.8538933  50.5001183  13.1039238  36.6301346
  51.1539154  14.3713312  36.1229744  76.8079300  36.9911766   2.9409282
  77.0408783  36.9224129   3.8667996  75.9698257  37.4535713   2.9385202
  37.2457695  51.3595428  15.9023895  37.7362251  51.8303909  15.2286005
  36.5895653  50.8603477  15.4161501  24.4273109  58.1908836  27.6053371
  25.2640018  57.9913330  28.0252876  23.9399128  58.6843796  28.2649879
  72.0733719  60.4427414  26.5192070  71.3255386  60.8589325  26.9478817
  71.7184601  60.0982513  25.6996975  36.2342873  56.6613503  22.2334270
  36.6530075  55.8586769  21.9225941  36.1593132  56.5412636  23.1800995
  23.9059029   8.9313812   3.6283443  24.7851276   9.2278519   3.8635042
  24.0220165   8.4745331   2.7952545  21.1392727  12.1339054  69.3273849
  21.8106575  12.1573524  70.0092392  21.0916615  13.0346594  69.0070572
  79.3050690  18.3694973  88.2296600  79.1490631  18.5579853  87.3042603
  80.1665344  18.7463055  88.4089203  55.9412460  16.8492336  28.5457096
  56.0701828  16.2130680  29.2491989  56.3162041  16.4294529  27.7714863
  19.0985718  37.2779503  15.6038990  18.2244530  37.0376282  15.2966671
  19.0788536  38.2333679  15.6588659  33.3394432  45.7894173   6.4007750
  33.9317780  45.4530029   7.0732298  33.8794975  45.8461609   5.6125174
  14.8023729   1.2659625   7.5221672  13.8498192   1.2339323   7.4335828
  14.9616852   1.1108742   8.4531879  60.8889198  21.7502346  42.7570724
  60.8660583  22.1611195  43.6212959  60.1197510  21.1806850  42.7422333
  56.9893913  65.0626221  31.8239479  56.8402290  64.7976456  32.7315636
  57.3476257  64.2815781  31.4022026  31.1855507  33.4182663   8.7063093
  30.7219238  34.1507645   8.3004408  31.3520508  33.7077217   9.6033745
  45.4203186  57.3140984  88.3931885  44.7613983  56.6222115  88.3352966
  44.9136505  58.1257820  88.4194717  39.0284081   1.9596418  15.5954409
  39.2507553   2.7637758  15.1262255  39.1833534   1.2608533  14.9598951
  37.9988976   1.0547043  57.5623245  37.3970718   0.3352191  57.7530556
  38.8482056   0.7468045  57.8787155  51.3203278   5.9913740  11.3950958
  50.8107910   6.1565771  10.6018047  52.2049599   6.2847781  11.1769896
  47.0906525  32.2431755  85.3508072  47.9635849  32.0998497  84.9851913
  46.5198593  31.6690388  84.8401260  28.4783154   5.0714655  79.6329269
  29.2545319   5.2132611  79.0910721  28.6417389   5.5844417  80.4243698
  58.1984940  21.1155834  87.1450272  57.4599342  20.5066872  87.1430740
  58.0932579  21.6171627  87.9534683  48.6352997   3.3535333  56.9751015
  48.9004707   3.1890857  57.8800163  49.4335670   3.6574023  56.5430527
  72.2144928  58.4575577  59.0409355  71.5379715  58.6105576  59.7005882
  72.5306549  57.5725899  59.2228889  44.3978119  25.2921200  74.4304504
  44.2486153  26.1079693  74.9083328  43.9128304  24.6321907  74.9259491
  65.9001007  14.6054564  30.8841877  65.2859955  15.3378754  30.9358463
  66.7237320  15.0029545  30.6015930  25.4979782  55.6711769   9.6568975
  25.2104855  55.2642212  10.4741898  26.4538631  55.6533012   9.7037306
  22.5903645  59.6751938  53.3535500  23.3105679  59.3996315  52.7864494
  21.9599648  58.9564362  53.3064804  43.5338898  13.4060278   1.6262442
  43.2777252  12.4981842   1.7888252  43.7357941  13.7569237   2.4936187
  52.8521004  32.8218079  38.0400467  52.6013641  32.9456940  37.1246109
  52.9698563  33.7094536  38.3783569  15.0839376  18.1647491  18.5822430
  15.0350828  17.8477859  17.6803665  14.1747398  18.1772747  18.8812962
  51.8641281  65.9400864  56.7155876  51.2334824  65.9632416  57.4352951
  51.6559448  65.1356049  56.2405052  11.7867231  70.1266403  19.0000687
  11.1210785  69.5845566  19.4235001  12.5994797  69.6314774  19.1023865
  33.1963768  54.4947090  82.0145645  32.9957085  54.3488388  82.9390564
  32.3428688  54.4942741  81.5812531  65.2430344  67.3857422  86.3344727
  65.3689575  67.3454132  87.2824936  65.2207031  68.3217545  86.1354218
  63.6158600  30.0985813  54.7435760  63.4225502  30.4415169  55.6160774
  63.9524536  29.2166367  54.9020348  71.9760132  56.0575714  38.8128548
  72.3207321  55.1830368  38.6323166  71.1465530  56.0911484  38.3363113
  23.7425575  57.3004112  18.6638145  24.2215557  58.0516243  18.3138542
  24.3867245  56.8316841  19.1944523  27.0240860   0.7451955  26.1799030
  26.5908585   0.7913356  25.3276024  27.7283840   0.1088337  26.0564461
  57.8569870  62.3175583  85.8594055  57.1176147  62.1535034  85.2740402
  57.6321068  61.8527298  86.6653748  84.4088974  26.5596695  60.0420418
  83.4864502  26.7305355  60.2321205  84.4577560  26.5449753  59.0862045
   3.8238802  34.0642471  27.4807720   3.0733850  33.5431862  27.1953201
   4.1198444  33.6374702  28.2848225  37.4498978  22.8623486  71.2048111
  36.8400192  22.2852554  70.7452011  37.1649094  23.7460403  70.9722137
   3.7892845  33.9639359  58.0982933   3.8564208  33.1304016  58.5640678
   4.5036840  34.4940033  58.4516983  51.1729431  43.8674965  35.0307617
  51.7551994  43.9249687  35.7883301  51.4998741  43.1176147  34.5337486
  19.5358791  14.7459087  18.7335720  19.5618172  13.7909946  18.6727486
  18.8074379  15.0022335  18.1679726  65.2858658   0.0927336  46.4548721
  65.4730530   1.0259714  46.3535881  64.3565292   0.0102633  46.2409325
  15.1580954  65.2425842  18.8901272  15.9388428  65.1488953  19.4359188
  14.4366217  64.9645691  19.4544106  65.8666611  22.1317787  14.4668589
  66.1970825  22.0415497  15.3606777  66.6395798  22.0201244  13.9133625
   8.5781956  69.7158051  50.7391167   9.3744650  69.5536957  51.2449913
   8.1621237  68.8569031  50.6656075  31.6020660  35.1249695  63.7647247
  31.9617615  34.6343689  64.5037537  32.0061913  34.7270317  62.9936485
  75.7579346  14.6214323  72.1611862  76.2340317  15.1614876  71.5303879
  75.2373047  15.2459269  72.6663437  50.0850754  49.7505798  21.3186245
  49.8908310  49.7697258  22.2557125  50.6842384  50.4846687  21.1831703
  50.7197571  54.4211617  37.6149178  50.2781372  53.9317703  36.9208717
  50.7283745  53.8225937  38.3618279  73.3101196  26.3560238  11.1486588
  72.9558105  27.0177898  10.5547218  73.9172974  26.8383446  11.7098522
  35.6680946  52.0871773  88.0548325  35.7088814  52.5917587  88.8672104
  35.4454918  52.7319565  87.3833160   5.8340888  -0.1635576  46.0867043
   5.7932396   0.2515299  45.2251549   5.0789800   0.1882952  46.5581284
   2.8513908  39.7657509  81.8984451   3.2287638  40.3615646  81.2512741
   3.5912583  39.5113373  82.4498978  60.5082359   4.9288311  74.6732483
  59.8432312   4.6605530  75.3073044  60.7119408   4.1297617  74.1872177
  79.9642258  43.0486679  48.8964653  79.0187073  42.9333305  48.8019447
  80.0719223  43.4448814  49.7611313  68.9209595   2.9466891  56.2652206
  68.3971939   2.7506254  55.4883957  69.3984070   3.7443368  56.0371094
  30.7689266  46.5042763  80.9953156  30.5363750  47.4204712  81.1461258
  31.7073536  46.4619827  81.1791611  78.3307495  14.9908400  67.2635880
  77.5886078  14.3935614  67.1702347  78.3043594  15.5309286  66.4737549
  30.9656391  48.0010109  86.4120102  31.1035995  48.7846718  86.9440536
  30.0185604  47.9664879  86.2775269  19.4397278  39.4037590  37.0387650
  20.1250610  39.5310860  37.6947670  18.6240406  39.5820732  37.5068321
  79.3210220  67.2712555  11.9907026  79.5354691  66.4715652  11.5103512
  79.7772369  67.1779404  12.8270016  79.6109543  69.4602127  17.6938992
  78.9096756  69.7504807  17.1106415  79.2200165  69.4810486  18.5673771
  57.0457344   0.3855211  79.1355896  56.4769211   0.8309128  78.5076523
  56.4903374  -0.2900848  79.5245972   3.3736515  50.9119377  82.8457870
   4.3045559  50.8751221  82.6260300   2.9334242  51.0311546  82.0042267
  24.5523834  41.2700119  63.7407684  25.4772243  41.3943405  63.5275879
  24.5376110  41.1675262  64.6923523  80.6521759  13.0511446  28.6186256
  80.2075043  13.7904291  29.0333118  79.9714737  12.3849268  28.5235691
  72.5740280  53.4094353  20.7535229  72.5888062  54.1509590  20.1484165
  72.1016769  53.7349625  21.5197792  62.5364647  47.0253487  63.4317780
  63.4327774  46.7388344  63.6071701  61.9914665  46.2867279  63.7031631
  11.2073259  25.6685390  13.7654390  11.5519485  25.4927769  12.8898964
  11.8725595  25.3202305  14.3590536  60.6342964  32.7214355  56.5449295
  60.6797791  32.9762917  55.6234016  61.4714088  32.2897797  56.7156525
  84.3014221  23.5713177  83.0006332  85.0435867  24.0893364  82.6890488
  84.6682663  23.0178795  83.6900940  85.4310379  28.3548794  74.7897110
  84.8704147  29.1183739  74.6518250  86.3224792  28.6974411  74.7247620
  55.3582802  50.5301323  70.6308060  56.2465897  50.7350998  70.3390427
  54.9859657  50.0107574  69.9181671  54.0981941  34.6968193  65.4309998
  54.4699211  35.2123260  64.7152481  53.3878250  35.2394905  65.7732239
   6.4710817   8.7119694  21.4627743   6.8702922   8.5492983  20.6081390
   6.4437590   7.8518801  21.8819771  72.7783737  29.3399849  50.6060181
  72.9614487  30.1091118  50.0664253  72.1543732  29.6506672  51.2620163
  70.2014389  52.2367058  62.3628998  69.4946060  52.3052254  63.0047150
  70.2171402  51.3104820  62.1218719  23.9185696  43.6937599  74.4388657
  24.2252808  44.5232201  74.0726013  24.5016708  43.5289497  75.1798553
  33.6301460  38.6481133  17.7813187  32.9340706  38.0004425  17.8919392
  34.2900848  38.4036446  18.4301262  38.5537567  56.5213737  60.9125748
  37.9569626  56.4415588  60.1684647  38.0753250  56.1345825  61.6458740
  22.2644444  44.0511932  76.8858109  23.1777439  43.7677307  76.8437805
  21.8851471  43.7609062  76.0562973  35.4999008  50.4671860  37.6232262
  34.9673233  51.2385559  37.8170776  35.4055328  50.3421249  36.6789360
  52.3680534  66.1067047  13.6352129  51.5729370  65.8757629  14.1155100
  52.9031372  65.3134918  13.6622982  26.4167442  45.0936623  81.2412415
  26.2431908  45.4408226  80.3662643  25.6778011  45.3954353  81.7695694
  12.5785198  70.6716232  24.4547424  11.6409798  70.8645020  24.4477940
  12.8104248  70.5769577  23.5308990  42.6703186  63.5945816  67.5991745
  42.1412277  62.7976494  67.5646362  42.1367149  64.2150040  68.0957413
   7.9459915  24.1708393  78.6242905   7.6385856  23.6188717  77.9052124
   7.3976326  23.9221916  79.3684006  31.2187443  45.4593544  25.9900208
  30.6242313  44.8482361  26.4251289  32.0830841  45.0581894  26.0806656
  30.0221291  14.0740538   5.6863937  30.2545815  14.7027655   6.3697090
  30.8212090  13.5659761   5.5465269   4.4509416  11.0690441  57.2703552
   4.9618845  10.9164143  58.0652618   3.5480254  11.1495113  57.5777626
  47.7507553  61.0148697  16.9685326  48.3071251  60.2828598  16.7023659
  46.8654633  60.7433243  16.7261467  85.5756683  22.1829090   4.2086339
  86.5128937  22.1904755   4.0142760  85.2722702  23.0558128   3.9591870
  64.1552048  67.1180573  78.5580521  64.5433426  67.5279617  77.7850266
  64.6371613  66.2975388  78.6615295  86.4838181  13.7952452  14.4086809
  87.4160156  13.9711494  14.2809916  86.1898346  14.4832525  15.0057154
  42.8252182  41.8882942  32.1175690  42.7896500  42.4759636  31.3628407
  43.6288795  41.3840218  31.9908047  75.9515457  46.1654320   8.1566401
  75.2330399  45.7889175   8.6648035  75.7312164  47.0939255   8.0819025
  22.6581955  68.7692490  18.6741676  22.1630459  68.5074921  19.4504051
  22.4498405  69.6963120  18.5585251   7.0358400  54.1683159  61.1976814
   6.2464199  54.1933594  61.7384415   7.6572571  54.7351189  61.6546364
  83.2069397  61.2667351  12.5279064  83.0474548  62.1498871  12.1949749
  84.1605682  61.1943054  12.5675840  19.5348949  62.5967331  85.2278595
  19.4179554  63.5219269  85.4436646  20.3722153  62.5626640  84.7652969
  80.8425064  42.1951790  84.8519592  81.1905136  42.1011124  83.9652328
  81.0044785  43.1113739  85.0768738  68.1747055  22.8394661  82.7305069
  68.5103912  23.4408798  83.3952255  67.3869858  23.2679825  82.3956985
  52.2290573  53.4936028  71.1472473  52.1072311  52.9558868  70.3647766
  52.0298576  52.9052811  71.8755493  40.0349045  28.0499516   7.5958977
  39.7064056  27.8415070   6.7213287  39.5765724  27.4412708   8.1752682
  47.8336983  62.4625931  78.1732712  48.5343552  61.8150253  78.0960312
  47.7519913  62.8330498  77.2944565  49.9578094  15.7864771  73.8601685
  50.2615891  15.4822025  74.7153702  50.7229919  16.2098064  73.4709091
   0.6335343  31.4097042  67.6870422   0.8029032  31.9666634  66.9272156
   1.3414652  30.7655716  67.6744232  54.6480980  15.4463806  37.7103500
  55.5989571  15.3384991  37.7318459  54.4069328  15.2649078  36.8019791
  71.7341385  17.4208183   8.2849636  71.7103806  16.6668358   8.8741817
  70.8494186  17.4697914   7.9228654  15.8326645   8.3478775  72.8100586
  14.9544449   8.1020174  72.5193481  16.2725315   8.6491528  72.0150909
  26.9504585  65.5452576  26.6755161  27.6900768  64.9869003  26.4358711
  26.9624653  65.5610275  27.6325111  23.9650497  47.9498634  81.1555786
  23.3229237  48.6480064  81.2840271  24.0485687  47.5398903  82.0164948
  72.5754700  19.3879375  82.7501831  71.8008347  19.7981968  83.1347046
  72.2327652  18.8533115  82.0339661  18.2642632  36.1059227  24.4039803
  18.0250416  35.6965752  25.2355099  17.5439548  35.8864822  23.8130207
  78.3783493  62.9366798  32.6113129  79.2616577  62.6576080  32.3702278
  77.8011780  62.3180084  32.1637077  82.7616348  24.0519791  48.4777832
  81.8625793  24.0479641  48.8063011  83.1422958  23.2397003  48.8117409
  83.2159119   2.7358248  71.3871384  82.6030579   2.4317617  72.0566025
  83.0341949   3.6718848  71.3034744  47.4927330  44.2296219  66.6839676
  46.7597084  44.8237267  66.8450470  47.5457802  43.6944771  67.4758224
  28.6530037  58.7539444  77.2186356  29.5391502  59.0379829  76.9943542
  28.5084801  59.0947037  78.1013718  41.1678925  55.8356133  60.7088699
  40.3527908  56.2870750  60.9280205  40.8895874  54.9687309  60.4134216
  25.2324467  56.6501846  65.4090271  25.9480095  56.5112762  66.0294342
  25.5155258  57.3959770  64.8799744  56.5535851  42.6682816  28.9326630
  57.4217415  43.0661545  28.8676033  55.9980354  43.3623009  29.2875366
   9.6010876  68.2805634   4.0192895  10.4104481  68.2097549   4.5254054
   9.4102850  69.2184067   4.0026360  62.5955734   4.7100611  81.4418259
  61.9784355   5.1424704  82.0320740  63.4378853   5.1233912  81.6313019
   9.4638653  22.2295074  80.4231491   8.8562832  22.5348701  81.0968170
   9.6401377  23.0049210  79.8903351  81.9699936  27.9422207  74.8562927
  82.1243744  26.9992847  74.7991180  82.4369583  28.2138920  75.6464691
  55.8710365  51.8375969  82.0037079  56.7698975  51.6293259  81.7489471
  55.8236809  51.6009598  82.9299850  37.2594566  28.6299553   8.9072952
  36.4855309  28.1335411   8.6411314  37.0205841  29.0111942   9.7521791
  72.8005219  53.6907120  49.4591637  72.2846298  53.1088142  50.0172729
  72.8912735  54.4947395  49.9705734  77.9496155   2.7499366  66.9128494
  77.0650864   3.0053322  66.6509018  78.2031937   2.0796657  66.2782898
  41.8268127  47.9717102  72.8537674  42.7557907  47.9014740  72.6339951
  41.6214104  48.8987045  72.7324524  38.3631477  24.6667652  88.4741669
  37.4627838  24.9913845  88.4882736  38.3620758  23.9309406  89.0863724
  44.2316170  54.7132301  46.5730057  43.6238060  55.1640587  47.1591377
  44.5084457  53.9395790  47.0639877  10.8166571  70.6802673  28.3761387
  10.0315237  71.0029068  28.8185196  11.4716187  70.6111221  29.0707436
  65.0933151  42.8249435  36.0238113  65.0020447  43.7499962  36.2522469
  65.5783386  42.8287468  35.1986008  50.8715553  39.3384666  69.2144852
  50.0374489  39.3147507  68.7455139  51.5155830  39.5723076  68.5460663
   0.5566673  44.6979065  84.7007904   0.4893739  44.5298805  83.7608566
   0.0207752  44.0155411  85.1050491   3.9470117  63.9759254  80.1612320
   3.0703950  63.6828613  79.9124603   4.2244587  63.3558502  80.8355942
  44.4869957  50.6591682  26.5580750  44.0868378  50.3768158  25.7356510
  45.3854637  50.3322792  26.5119057  12.5266485  66.2046127  55.6966705
  12.9111996  67.0087128  56.0456238  12.6958485  65.5461578  56.3705025
   2.3943858  57.8896599  46.7708206   1.7896576  57.6807022  47.4827690
   3.1334453  57.2957306  46.9022369  72.5010986  13.0341616  86.1444397
  73.0652618  13.6792459  86.5708389  72.9963608  12.7545424  85.3745270
  46.5709877  14.8145723  88.1481323  46.5040741  14.2456732  88.9150162
  46.3181610  15.6801405  88.4692307   3.7549059  38.2460899  18.0294666
   3.9163420  38.8292198  17.2877579   4.2922368  37.4747467  17.8490887
  56.9967995  51.6435394   8.7236900  56.6208572  51.6390381   7.8434181
  57.3203545  52.5366783   8.8413811  45.3908653  61.7124443  56.0408592
  44.4649887  61.9323654  56.1439056  45.4028397  61.0391159  55.3606224
   5.2680387  63.7258377  74.4348221   4.7075777  63.8634872  73.6711655
   4.6896319  63.3334427  75.0888138  71.7572861  51.5464668  16.3037510
  71.9737320  51.0879517  15.4918718  72.2571335  51.0873070  16.9787025
  23.6826992  18.4037609   7.6310000  24.3455029  18.0233822   7.0546026
  24.0565758  18.3276901   8.5088730  49.0830345   8.1269188  64.0991287
  49.4969406   7.6507273  63.3792953  48.4077950   7.5310621  64.4235306
  10.2070713  66.3786011  29.6831474   9.7230797  65.7455215  30.2134266
  10.1107750  67.2073517  30.1523285  33.2294960  43.2536469  41.8587532
  34.1003761  43.4785347  42.1862068  33.3914261  42.6061325  41.1726532
  86.0147781  35.3928375   5.7862248  86.4564743  36.2150841   5.5739679
  85.2778625  35.6526031   6.3391314  68.9057541  19.5748024   9.3658743
  69.3585434  19.7570210   8.5424623  68.7021255  20.4389896   9.7235689
  21.1908875  32.2034798   6.0859146  21.0456181  31.6062317   5.3521428
  21.2296562  33.0714455   5.6842055  67.6967926   9.5995808  55.9324036
  67.3177567   8.7545013  55.6907272  68.6323853   9.4230194  56.0310783
  16.9269409  40.4870300  37.2516098  16.7717686  40.6480484  38.1823235
  16.2403946  39.8703270  36.9975128   5.3338609  32.2906113  76.0936966
   5.2508101  32.6591187  75.2141876   4.9507804  32.9534454  76.6682663
  39.0201225  54.3069038  79.9190598  39.1193428  54.1240234  78.9847412
  39.9144402  54.4394531  80.2334671  45.4191513  64.3813248  75.5563049
  44.5673676  64.1726761  75.9399261  45.6563416  65.2239151  75.9436188
  72.4256516  21.1934147  14.5138569  72.5129852  22.0691986  14.1375504
  72.7445450  21.2856007  15.4116535  14.1197720  26.1786041  11.1311493
  13.1770010  26.3051224  11.0243397  14.2215614  25.2359409  11.2625208
  85.2018814   1.6582923  81.2086639  84.7140427   2.0638068  81.9254684
  85.2247314   2.3282363  80.5253754  13.5446930  53.0022354  37.3005447
  14.0610456  52.1964264  37.2837257  14.1830673  53.6989899  37.1480904
  57.3281975  39.0377731  69.2343674  57.8033905  39.8668365  69.1789246
  56.4122124  39.2935219  69.3429947   3.4264953  10.3623543  35.2337685
   3.4119008  11.0610294  34.5796509   2.5511832  10.3782988  35.6208153
  16.6391068  54.4378815   7.5640044  17.5078659  54.0464745   7.6550751
  16.5011997  54.9087524   8.3858881  33.4221115  16.2907810  16.3454304
  32.4877052  16.0908203  16.2894173  33.7505341  15.7102900  17.0320168
  35.6178169  62.3707428  54.6046486  35.6743240  62.8335228  53.7686653
  36.5223351  62.1328621  54.8083420  68.5034409  53.9015770  85.9580612
  67.9188385  54.5128021  85.5098724  68.3963242  54.1053314  86.8871689
  32.6427231  60.9869041   8.7403107  32.1961212  61.0977325   9.5796547
  33.4811935  61.4343605   8.8542204  26.8510151   7.6443729  65.4382019
  26.7688694   8.5174751  65.8218384  26.8022022   7.7921867  64.4937439
  37.6797562  56.8032951  73.1013336  37.8869324  57.3865166  72.3711548
  36.7917786  57.0497169  73.3601913  75.1106873  30.3975887  63.0674782
  74.1566391  30.4552822  63.1193008  75.4087677  30.5470581  63.9647179
  21.9111271  16.3218136  53.7014885  21.1476479  16.3664188  54.2771149
  22.5454063  16.9189148  54.0982170  14.4821873  69.6775055  49.5888596
  14.5572472  68.7450638  49.3860092  15.2909794  69.8868484  50.0560455
  24.9385929   5.9115801  15.3245411  24.0067997   6.0459957  15.4975357
  25.2585373   6.7721782  15.0539150  83.6656418  36.2373848  10.4309492
  84.3128738  36.6426353   9.8538017  82.9790649  36.8980827  10.5221481
  20.8480663  45.0950241  45.1455956  19.9465923  45.2762756  45.4115334
  21.3382530  45.8714600  45.4159546  74.7941437  10.8364573  88.8370667
  75.3926239  10.9972687  88.1075592  74.6021576   9.9000244  88.7874069
  56.6913948  20.2090244  83.2751541  57.3827209  19.9651070  82.6596832
  56.6702805  19.4914608  83.9083176  84.7463455  12.7175083  76.4477768
  84.6432953  13.6113043  76.1210632  85.4343872  12.7824192  77.1100540
  14.9117689  39.0772972   9.2408743  15.7309551  39.2426834   9.7075796
  14.3005171  39.7241211   9.5933304  39.3931885  24.5128498  16.2068157
  38.6917076  25.0178318  16.6180954  39.7598114  25.1038074  15.5490999
  16.5485058  49.7173042  27.7935581  16.3980942  50.2772522  27.0319347
  15.9230337  50.0293427  28.4475079   9.8570805  33.7135353  82.8004608
  10.7749119  33.4619789  82.9031067   9.5690851  33.2526093  82.0125275
  47.8472061  11.0217361  88.9433060  47.5202942  11.2423801  88.0711441
  47.4322548  11.6602697  89.5232391  60.9471626  66.9527740  17.0329723
  61.5540199  66.6330719  16.3653297  60.5602226  66.1599197  17.4043083
  47.0180054  56.4194107  71.8977737  47.1852531  57.3402176  71.6968384
  47.3598099  55.9432144  71.1410446   5.3879004  12.0949011  13.9369669
   6.1464305  11.5111322  13.9281998   5.2046671  12.2634192  13.0127048
   5.7816548  23.5137634  58.5943527   4.8557587  23.4034863  58.3780518
   6.1082859  22.6216030  58.7109451   5.6220951  70.6389923  14.7252588
   6.2573404  70.6827927  15.4399452   6.1472712  70.7404785  13.9314556
  37.6948700  63.3205795  25.2947674  38.1600838  62.5536461  24.9606628
  37.4655991  63.8214569  24.5119591  13.5041828  46.1554871  86.0868607
  14.0684929  45.9331245  86.8273621  13.2568436  47.0674782  86.2396088
  59.4475594  26.1528950  16.9048080  59.3393288  26.6575432  16.0986767
  58.8555336  26.5707054  17.5302448  52.4586792  59.2346382  28.7259731
  52.9241219  59.8631706  28.1741161  53.1489220  58.7935371  29.2211761
  39.7120056  53.7251282  22.4068909  40.0465431  53.0787582  23.0286007
  39.1865387  53.2150116  21.7905350  10.5640850  51.4066086  82.7027817
  10.7403812  51.8151474  81.8552856  10.7580376  50.4792099  82.5665817
  70.8178635  35.7226639   3.1558852  70.1459427  35.5141106   3.8049312
  70.5759888  36.5899162   2.8309264  85.1238022  51.0465508  50.0426331
  85.2043686  50.7785873  50.9580231  84.2366257  50.7868423  49.7942352
  40.9663200  58.7778893   6.4411354  41.8566971  58.6373444   6.1190953
  40.7622528  59.6801300   6.1950703  72.9500961  60.5978775  36.6701164
  72.7274399  61.1546402  35.9240150  73.0579224  59.7245178  36.2934875
  75.7378311   5.3528705  79.7821350  75.7881165   4.6433029  79.1416550
  75.4934158   6.1225328  79.2682190  43.7923431  38.8633041  65.9490204
  43.1819267  38.4387321  65.3462219  44.5152893  38.2418594  66.0349655
  74.8713989  27.8156700  31.4891720  74.1748505  27.2312050  31.1900845
  74.4254608  28.6401443  31.6831093  70.1177139  36.7400360  62.0728531
  70.7346725  37.3142319  62.5266151  69.5353317  37.3373795  61.6035576
  73.1636887  41.1076088  67.8851395  72.9511414  42.0353584  67.9868088
  72.3286896  40.6558228  68.0071411  61.2361336  16.3071766  83.6299286
  62.1768074  16.1826153  83.7558289  61.1688232  17.0968952  83.0932312
  76.7504349  30.9988651  10.5316849  76.1083984  30.8476677   9.8380280
  76.7431107  31.9470844  10.6622849  34.5515060  34.8580132   9.0848598
  34.0319328  34.9067726   9.8872919  34.6210518  33.9211960   8.9011087
  10.6439028   6.5668097  62.0167542  10.1435556   5.7523327  62.0668640
   9.9910955   7.2566519  62.1358871  15.7711134   0.9411764   9.9688597
  15.2604179   1.2194755  10.7291040  16.4315395   0.3485730  10.3278723
  49.9748001  14.0559130  69.6754303  50.2928505  13.5371723  70.4143372
  49.0285873  14.1092119  69.8098602  62.9016228  41.1071930  36.9840240
  63.5964508  41.7637100  36.9347458  62.9802208  40.7409134  37.8648720
  50.7310371  13.0954762  33.1367111  50.7334595  13.1034937  34.0938759
  50.2304688  13.8737755  32.8919373  45.4291916  29.8354626  64.8984909
  45.5546570  30.7298717  65.2155457  44.8887558  29.4173298  65.5688095
  13.9318142  52.0736961  75.1103516  14.4929056  51.5344696  75.6677094
  14.1716766  51.8255997  74.2175217   6.7941918  32.2413101  67.2813644
   7.6290603  32.7035332  67.2066650   6.7193966  32.0308228  68.2121277
  48.0330467  50.5751381  37.7751312  48.7405281  51.2190704  37.8076439
  47.6171188  50.6326523  38.6353188   3.1767716  63.4756012  43.9232903
   2.3051536  63.3589249  44.3013153   3.0924792  64.2448120  43.3598747
   0.1486144  49.0189018   9.1105385   1.0252538  49.2806511   8.8290749
   0.2308999  48.8823509  10.0543690  56.4403763   9.5485086   4.5315733
  56.5144501   8.6745749   4.1481891  57.2430649   9.9961853   4.2641683
  22.6190453  19.9089451  13.7949133  22.1316891  19.1168194  14.0213013
  22.0308704  20.3950901  13.2170353  65.5439987  55.7533455  26.7319202
  64.9496689  56.2011414  26.1298561  66.3828049  56.1998711  26.6167908
  53.7030678   4.4159412  17.4284801  53.3893127   5.0090847  18.1111012
  54.2716827   4.9587407  16.8823318   9.3726807  46.4516754   5.0099468
   9.4391632  47.3118248   5.4246244   9.7130394  46.5853043   4.1253386
   0.5010893   0.0433915  87.3423691   0.4661512   0.6605814  88.0731812
   1.2805055  -0.4855312  87.5126114  11.7993584  41.0531502  80.6213837
  11.4388227  41.3655319  79.7915268  12.1633196  40.1921387  80.4154129
  18.5343227  49.1463623  29.3626995  18.1602058  48.4852905  29.9451580
  17.8214664  49.3690605  28.7639732   3.1912529  44.7594528  85.1283417
   3.4263585  45.6409035  84.8385162   2.2560849  44.8135300  85.3252335
  73.5332184  17.0493584  20.4847088  72.9232559  16.7484035  19.8112125
  73.2835083  17.9594765  20.6445808  21.2800026  28.1997852   8.6051350
  20.3571224  28.1003857   8.3713732  21.4948196  29.0985756   8.3556156
  27.7260590  41.2339859  10.5884447  27.5224209  41.4455414  11.4994926
  27.3900719  40.3458290  10.4679394  78.4208679  21.6860733  66.9977798
  78.9149933  21.4833450  67.7921143  79.0896530  21.8037338  66.3231583
  14.8692951  36.8338089  60.4367790  15.2248755  36.0743103  59.9753036
  13.9957838  36.5579681  60.7144890  22.6080589   7.2038569  23.4183655
  23.1784630   6.4704742  23.6486282  22.4331760   7.6419535  24.2512627
  38.2163963  33.5588379  69.9809494  37.8857918  32.7336807  70.3359756
  37.4456444  34.1243057  69.9317322  30.2069950  28.9002781  12.9481325
  30.7495003  28.6877117  12.1887007  30.8192577  29.2712154  13.5835638
  81.1199570   0.6932495  27.7817459  80.6969604   1.5049407  28.0618572
  80.5814590  -0.0009408  28.1616879  65.2502213  16.5524654  43.5080719
  65.7202835  16.6420822  44.3370743  65.6184692  15.7647724  43.1078682
  53.0244484  16.6338501   1.2556397  53.1064987  16.6399479   2.2092969
  53.4739304  15.8343849   0.9816781  -0.0113156  10.3242016   9.9857712
   0.7723852   9.7848654   9.8801231  -0.0342847  10.5329714  10.9196453
  28.0513134  51.3062935  36.2655754  28.9530373  51.0256195  36.4216118
  27.5562859  50.9401894  36.9984779  76.7438431  39.7009811  10.7660770
  76.2803497  38.8747749  10.9031525  76.1836548  40.3605919  11.1751480
  64.7360458  45.5964813  36.4213905  63.8278770  45.5766640  36.1196213
  64.6707230  45.6953125  37.3712311  31.5407639   2.5871472  64.9931717
  31.8061333   1.8501796  64.4429932  32.1633186   3.2820675  64.7792969
  11.6658554   5.2384577   9.8237391  11.9995193   5.9295936  10.3957806
  12.1040249   5.3885403   8.9860554  59.9405212  48.2315979   0.3568166
  60.2284203  48.5964737  -0.4799702  59.7908821  48.9963036   0.9127553
  48.6050339  34.0064697  60.1716270  48.3021774  34.0350304  61.0792046
  49.4347610  34.4836464  60.1808853   2.0102763  58.8118172  60.3393402
   1.7848750  59.7419052  60.3584137   2.2388206  58.6021385  61.2448997
  24.6362324  45.7819252  15.0134077  25.1366196  45.8123894  14.1979837
  25.2086430  45.3236809  15.6287050  74.9757309  10.6893415  80.4195633
  75.5763474  11.0692797  79.7783661  75.5456924  10.2495880  81.0504303
  82.7669067  56.1889496  52.1499290  83.6312485  56.5829048  52.2680397
  82.6615372  56.1227188  51.2008553  21.6376553  39.5671120  28.2878819
  21.3538971  39.8003044  27.4039497  22.5898075  39.4940376  28.2223110
   3.7118971  62.1941261  31.2420425   3.9742599  61.4707375  30.6727390
   2.7870681  62.0303192  31.4266815  58.8616295  27.5061722  76.8979874
  59.0743370  28.1054306  77.6134491  58.9255333  28.0435486  76.1084518
  53.5300713  31.0101871  62.7804031  53.8249016  31.3439922  63.6276817
  53.3283882  31.7949677  62.2708168  28.5448837  20.7489948  18.9211998
  27.8047447  21.2975540  19.1810207  28.4336624  19.9425335  19.4246712
   4.6187429  50.3699989  78.9095459   3.9940298  50.2108955  79.6171112
   5.4320154  49.9664726  79.2128372  49.3790245  33.6962814  88.7987289
  48.5224037  33.6452179  88.3746719  49.2142715  33.4323616  89.7039566
  23.3574829  60.6432915  76.9537964  23.5933075  59.7522507  77.2119827
  23.9999905  61.1986046  77.3954315   0.5716268  34.0129623  40.4056702
   1.1437848  34.7077789  40.0799446   0.0314873  34.4396172  41.0708389
  30.3703518  59.1034508  65.8800583  30.9644909  59.7721939  65.5394440
  30.5733395  59.0561104  66.8142853  48.0726242  58.1889725   9.5881729
  48.5367813  58.6386681  10.2942629  48.0252075  57.2771149   9.8753986
   1.7099673  49.9314651  38.5913353   1.3231027  49.0808907  38.3837624
   1.9780319  50.2859650  37.7435684  75.3951035  63.0349998  28.8870010
  75.9310760  63.8184052  29.0104294  74.6144791  63.3483925  28.4302273
  62.9029999  45.0832558  46.0291824  62.0217819  45.4454727  45.9370728
  63.2550659  45.0804863  45.1390839  67.1051865   5.2515249  26.4494820
  67.7385101   4.6042876  26.7596836  67.2319946   5.2752452  25.5010147
  86.9405441  18.2429676  77.8323669  86.3242493  17.7845974  78.4036026
  86.3858795  18.7122498  77.2091827   9.9250889   9.0063763  77.3610153
  10.8246202   9.2095823  77.6174927   9.4454737   9.8225594  77.5026016
  67.0982971  10.0254469  -0.0397511  66.7094421   9.2765856  -0.4916738
  67.4885406   9.6520491   0.7505105  26.3950214  43.4572182  22.6025200
  26.2962914  44.1741562  23.2290077  25.8380318  42.7593422  22.9474277
  73.8396301   5.6213098  49.5168152  72.9291763   5.8600903  49.6908607
  74.1966248   5.3961749  50.3759422  12.2927246  51.0667839  32.5460854
  13.1668844  50.8950310  32.8961945  12.2637939  52.0163994  32.4293518
  51.2677383  63.5310593  64.1287994  51.6332779  63.1998062  64.9490967
  51.8534966  63.1926193  63.4516144  19.3576012  64.9231873   6.4466085
  18.8782768  65.2521896   5.6861906  19.7846317  65.6971664   6.8138003
   6.2121096  33.9668922   0.7728564   6.8617196  33.3703117   0.4009303
   5.4045229  33.7668991   0.2995302  79.6695480  61.2139320  58.6562653
  80.5829697  61.0278244  58.4388771  79.5526199  62.1365585  58.4297256
  82.3695068  55.1058044  21.6763744  82.9332275  55.8517456  21.8813667
  82.5106277  54.9483681  20.7428150  84.8077774   4.2349257  23.1703777
  84.3637772   4.0702906  22.3385181  84.1823425   4.7526603  23.6773396
  73.1311493  38.4066315  72.1961517  72.3309937  38.7196922  72.6180344
  73.8140335  38.5316391  72.8551483  30.1557178  41.3157463  63.2455521
  31.0780010  41.5119591  63.4102516  30.0634823  40.3904114  63.4724312
  79.8048172  36.1199989  62.9734802  79.8006592  36.2774925  63.9176216
  79.2455444  36.8083038  62.6133728  60.2602234  45.4467354  86.8340759
  59.6027832  45.8126831  86.2423935  60.6538010  44.7278290  86.3396072
  12.0165930  60.4982109  57.8226318  11.6628675  60.5439644  56.9343681
  11.2764482  60.7216568  58.3869820  37.0971718  39.3156929  14.4174223
  36.7274132  39.7053833  15.2096682  38.0286751  39.5325737  14.4561110
  58.4703407  51.6483421  25.6293583  58.2813454  52.3347244  24.9895210
  59.3389359  51.8677444  25.9664631  64.6854324  38.8104706  69.8791504
  64.5102768  38.9597740  70.8082657  65.2135162  39.5624809  69.6111069
  17.8805733  45.4653587  37.3897820  17.1642361  45.1804771  37.9571724
  18.4676895  45.9497795  37.9701843  84.7250748  38.8287659  67.0716171
  85.3024673  38.3809624  66.4532928  84.0967941  39.2936592  66.5190201
  51.0417824  32.3474236  57.1987152  51.1285515  33.2987900  57.1387062
  51.5106316  32.0153923  56.4330978  48.0143929  37.9278030  23.7165985
  47.0886803  37.7074547  23.6129837  48.2419624  38.3912239  22.9105682
  63.4537582  34.0959778  28.4875603  63.4931908  33.2749672  28.9780903
  64.1013184  34.6594124  28.9111614  79.4468918  62.4736252  25.7624969
  78.6666565  62.2632065  26.2755108  79.1836700  63.2172203  25.2202721
  74.6975479  58.2519112  77.4132767  74.6998596  59.0607109  77.9252090
  75.5576477  58.2315598  76.9937134   7.8258634  70.4661942  79.2963943
   7.6254358  69.5572052  79.5195389   8.1997061  70.8326950  80.0977402
  39.2547264  37.4084358   5.0317278  39.6397514  37.1142845   4.2062216
  38.6064186  36.7376289   5.2460961  55.6198959   3.8025074  20.0769844
  55.5031853   2.9246838  20.4403515  54.7294159   4.1330013  19.9584427
  38.5218430  48.1017914  89.0398560  38.7975883  48.9678001  88.7394791
  37.5941353  48.0524788  88.8092957  31.6735706  66.7265320  59.8010254
  31.2767448  67.3754120  59.2198944  32.5821838  66.6649323  59.5063057
  66.7324448  61.6760330  25.7812862  66.4902191  61.9779510  24.9058418
  66.9911423  60.7629166  25.6566734  11.8932276  57.0641136  43.7166328
  12.6357698  57.1367226  44.3162918  11.2256718  56.5955391  44.2176743
  47.1200905  30.8149853   2.8458734  47.4687996  31.0101490   3.7156689
  47.1083069  31.6604900   2.3973038  60.3035393   8.8555794  60.9449539
  59.5739098   9.2613001  61.4132118  59.9138069   8.1028481  60.5002785
  12.3330002  35.9657669  72.7870331  12.9855347  36.6089134  72.5099106
  11.9945908  35.6004257  71.9695740  78.2877426  71.4335175  29.0122299
  78.0570068  71.4267044  28.0832825  77.4815826  71.6946640  29.4573498
  60.2440948  46.8747139  49.6220169  59.6876488  46.3337479  50.1823311
  61.0023193  47.0836868  50.1675949  10.8440580  62.6503639  47.4688225
  11.6654129  62.1718788  47.5813370  10.2843256  62.0522423  46.9736595
  33.2531509  38.1371384  79.5016479  34.0999489  38.0798225  79.9442291
  32.8600883  37.2729530  79.6237717   0.6304697  61.4384308   3.8752317
  -0.2400067  61.1146088   4.1068416   0.6517489  61.4051666   2.9188466
  74.1671829  62.5529404  41.0132637  73.8265915  62.0519066  40.2721863
  74.6920166  63.2460556  40.6128044  63.4184265   0.2019678   2.8172593
  63.9648590  -0.3502401   3.3764625  63.3255692   1.0199019   3.3057196
  74.4043045  70.4010925  83.4371033  75.0517807  71.0409927  83.1412506
  73.6663361  70.9298172  83.7405624  27.4810772  63.8265038  69.5591888
  27.7560368  64.3985672  70.2756882  27.0324936  63.0998230  69.9915543
  70.8568726  53.7611046  82.4751663  70.5392075  54.5278168  82.9521103
  70.1326981  53.5218658  81.8967438  69.6444931  38.2404747  42.2577972
  69.1669846  39.0617828  42.3747253  69.7233276  38.1422577  41.3089218
   1.7813474   4.4222131  81.9652176   0.9793547   4.3191628  81.4529495
   2.3618174   4.9332500  81.4011917  73.9485931  26.2068062  62.2362900
  74.5285492  26.3477211  62.9846382  73.2970810  25.5809841  62.5526924
  57.1736031  15.3113289  46.7537231  57.7318916  15.9689312  46.3388672
  56.2868690  15.5394363  46.4746170  10.3111048  38.2493439   5.9296308
   9.9422464  37.7258797   5.2181792  10.2481670  37.6846733   6.6999688
   2.9643781  32.0633049  64.1937408   3.7537658  32.0543747  64.7350540
   2.3115194  32.5135956  64.7296982  63.2759056  10.8806353  25.9111691
  63.0559311  11.5728683  25.2877445  64.1485367  11.1127577  26.2287502
  11.9773235  59.7288818  78.0451279  12.8156748  59.4887505  78.4397583
  12.0882540  60.6433487  77.7849655  52.9741135  54.1003189  24.1588326
  52.5848427  54.9638405  24.2967720  53.6285515  54.0190163  24.8526154
  51.1364517  22.2820759  57.3410721  51.4354019  21.9351234  56.5005455
  50.4517212  21.6746273  57.6210403  84.5315857  33.6120148  44.8066254
  84.6778336  34.3019829  44.1594849  85.2928238  33.0380669  44.7209892
  77.2952042  13.0801172  55.5760460  77.2929764  13.7892494  56.2189789
  77.6475677  13.4791651  54.7805405  66.9041061  34.7924881  58.2283936
  67.6589355  35.2459030  58.6037292  66.8011551  34.0099525  58.7699356
  65.1652603  12.3491507  66.8115921  65.8669739  12.6015244  66.2114792
  65.0286102  11.4170837  66.6418533  42.7098427   0.5928633  12.5518723
  42.8245926  -0.1458366  13.1496906  42.5905037   1.3493654  13.1260624
  61.1174011   4.4051862   4.0252209  60.5670662   3.6788015   3.7324321
  61.9452286   3.9936147   4.2733083  10.0008411  37.7744408  50.1352577
  10.5287333  38.2640915  50.7659760  10.5997763  37.5936928  49.4108009
  34.7537079  43.7523956  30.0995693  34.9270668  43.8208160  29.1606884
  34.5941353  42.8200722  30.2463493   5.8100238  65.6917953  88.7551498
   6.5391459  66.2781372  88.9571991   6.2156038  64.8303833  88.6566620
  13.8528147  30.4360256  11.7674637  13.7012854  30.4167976  10.8225298
  13.5295486  31.2933426  12.0444775  18.3912601  14.9991198  78.3733063
  18.7262936  14.1063271  78.4564133  17.8261776  15.1149559  79.1371765
   2.0619607  42.6161461  79.2668686   2.8785846  43.0944710  79.4102554
   2.3404489  41.7263603  79.0501709  53.3969460  65.1644745  50.4975510
  52.9729347  65.8969498  50.9446793  53.2641335  64.4179611  51.0817719
  84.2506332  30.6151581  75.1178970  83.5976334  30.1069069  75.5990448
  84.1303558  31.5131435  75.4267426  49.3260765  13.0577345  67.3874435
  49.2744484  12.1231623  67.5877914  49.5632095  13.4682150  68.2190094
  10.3597031  65.3512115  57.9924774  11.0752439  64.7372284  57.8273621
   9.6577845  65.0635757  57.4086876  75.5756760  66.9739456  74.2144928
  74.9971085  67.4837723  73.6474304  76.0662613  66.4129028  73.6138458
  75.7884903  29.0111008  60.9528656  74.9732895  28.6827202  60.5736008
  75.5180893  29.4473934  61.7608032  66.6394958   2.9341938   9.3925600
  66.3717499   3.1609604  10.2831345  66.5951385   1.9784147   9.3651648
  82.3998032  40.9491043  30.8370838  82.1344604  40.2128181  31.3881779
  82.4838181  41.6844902  31.4440308  53.4356689  38.3004837  65.9123611
  52.6376877  37.8025932  65.7347183  53.3058701  39.1318130  65.4559860
  81.1440201   2.4752042   3.3591530  81.9651184   2.9109962   3.1308579
  81.0824966   2.5633097   4.3103023  26.4763107  68.7104874  72.6356430
  26.2456150  68.0862350  71.9476624  26.9988365  69.3767090  72.1891556
  37.4528122  34.2036705   4.4270587  38.2477341  33.9607162   4.9017205
  37.2381401  33.4291725   3.9071529  83.7113800  36.7472115  28.2820759
  83.7122040  35.8054161  28.4530964  83.4836349  37.1431885  29.1232452
  48.6357269  41.7611465  35.1735115  48.6024971  42.4360771  35.8514481
  49.0043945  40.9960785  35.6150856  13.9794378   3.8746948  28.6784344
  13.7768593   4.7515163  28.3522797  13.9833193   3.9684632  29.6310234
  56.2865982  56.5237503  58.4176445  57.0997772  56.0296822  58.5219078
  55.6158791  55.9674416  58.8137360  64.6396484  48.6729469  17.0154762
  64.2198410  47.8592720  16.7363300  65.5245285  48.4109650  17.2696266
  63.3839836  21.3821468   8.2718506  63.8172417  22.2148533   8.0844450
  63.7587509  20.7694340   7.6391077  57.5817337  70.8865585  44.3392143
  58.3840218  71.1994095  43.9212570  57.5234833  71.3888779  45.1519318
  77.8063889  55.8827972  74.7560501  78.2208099  55.4327087  74.0199051
  77.2896652  56.5792084  74.3507919  28.0221062  38.9674416  66.4326477
  27.3062439  38.4329109  66.7762375  28.7903137  38.6874275  66.9303284
  25.0090694   6.8655977  18.8368034  24.8999424   5.9640341  19.1393032
  24.4815598   7.3868117  19.4420319  47.8678932  40.6195831   7.7663527
  48.1539764  40.8887405   6.8934588  47.7702713  39.6694183   7.7040176
  35.5916443   7.9483004  23.7857742  35.6942062   6.9968715  23.7634964
  36.4851418   8.2838802  23.8584213  80.9222565  53.0400276  62.0612984
  81.3474197  53.2374039  61.2267227  80.1305618  52.5596466  61.8190727
  55.8054314  48.2063255  20.4661140  56.0507698  48.7313271  19.7042656
  55.1874962  48.7566528  20.9472866  31.1230621  40.6978569  18.5913754
  31.9172821  40.4236298  18.1328487  31.4407101  41.2073479  19.3368626
  16.3994560  34.2247734  30.7488251  16.0034008  34.5848465  29.9552765
  15.7104836  34.2880402  31.4102993  81.9504929  38.7711258   4.2462912
  81.9178772  39.6273460   3.8196156  82.1184769  38.1546135   3.5336008
   5.1600552  56.9421120  49.0674477   5.0355124  56.5570908  48.1999931
   4.6359754  56.3930893  49.6506691  80.9532318  21.8887806  14.2840033
  81.5699005  22.1013088  13.5834436  80.1094284  22.2097721  13.9658804
  83.8656464  41.3182259  47.4509125  84.6588211  41.4698410  47.9648399
  83.7910309  40.3652382  47.4011307  11.5827637  50.3030243  44.0812759
  12.2176752  50.2287292  44.7937355  10.7335167  50.3460007  44.5207825
  13.1360874   3.3391676  11.4923897  12.6088390   2.6297183  11.8597078
  12.5384121   3.8028073  10.9058275   2.1122859  64.4962387  33.9127998
   2.3765874  65.3057327  33.4756660   1.5710864  64.7862625  34.6471176
   1.7327541  62.3716011   6.0259194   1.4285601  61.9745522   5.2098012
   2.0342689  61.6324272   6.5540681  84.2432556   3.5845442  20.3197670
  84.4770050   3.4464834  19.4018688  83.7018509   4.3738866  20.3129387
  70.5305176   8.2940950  26.6237049  71.2092896   8.3044205  27.2985344
  69.8006210   7.8227558  27.0253487  42.8469925  57.2180099  65.1092377
  43.0727997  57.1638489  64.1806335  43.6907654  57.2196465  65.5612030
  68.7185593  21.3177643  63.1398888  68.1845398  20.8190823  62.5215263
  68.2634125  22.1551666  63.2283783  60.1351967  33.4157333  67.5351028
  60.0383720  32.4731750  67.6708908  61.0692444  33.5814247  67.6628876
   1.3633816  13.3472385  17.5148983   0.9002563  13.7301731  16.7698441
   2.1928222  13.0399303  17.1490822  78.1428070  47.6755447  43.4527588
  77.3999710  48.2611084  43.3059921  77.7446060  46.8235435  43.6309738
  61.0283966  44.4190674  78.1335678  60.7582588  44.1084023  77.2694244
  61.5113831  45.2265282  77.9575958  79.7852173  62.4344521  53.1125336
  79.4742737  62.2884827  52.2190895  78.9871979  62.4836922  53.6388206
  65.1346817  45.9256172  81.3144073  65.6529770  45.5533371  82.0278549
  64.8054352  45.1650963  80.8354111  25.9213963   3.4991565   3.9540894
  26.6685104   4.0626955   3.7528987  25.6273937   3.7902677   4.8172517
  49.5120773   8.4495373  10.7464647  48.9951897   7.6485691  10.6598206
  49.2402344   8.9913311  10.0056591  47.6730347  46.9143677  48.3003349
  46.9040794  47.1789551  47.7954292  47.7417450  45.9707222  48.1552620
  83.4088516  68.1360092  64.5030746  84.0115585  68.7361145  64.0639343
  83.1039352  68.6212463  65.2697525  60.2234993  67.8019791  11.2436047
  60.2457466  67.6961823  12.1946793  61.0048676  67.3443298  10.9333630
  54.9768410  49.8809853  84.5005951  54.9277458  49.4310303  85.3440170
  55.9041138  50.0945244  84.3966751  52.3635101   3.7727170  59.5232620
  51.9164391   4.2564697  60.2177696  53.2758484   3.7305865  59.8097954
  27.4045944  24.7706375  18.7256451  27.1912231  24.8454170  17.7955303
  26.9926434  23.9515972  19.0007839  22.2630901  33.7224464  60.3787994
  21.5389996  34.3354759  60.2518272  22.3531132  33.2799835  59.5347900
  59.7055016  40.6616859  18.6363525  59.2172852  39.8520432  18.4868584
  60.4949532  40.3831139  19.1004639  52.6921272   2.7437358  55.2342758
  52.5819817   1.8264191  54.9840164  52.5365524   3.2327781  54.4262733
  57.9428177  58.3416901  84.3679810  57.7131767  57.4439201  84.6077957
  58.8896675  58.3900681  84.4997864  27.6207981  54.8084793  16.7346306
  27.7682304  55.7449570  16.8669472  27.8457108  54.4095039  17.5751457
  80.3335037  13.9295368  88.8824844  79.6527405  13.2746487  89.0371094
  79.9429169  14.7540245  89.1721268  30.9157238  70.1941071  19.5917702
  31.1611805  71.1018600  19.4129620  31.5293312  69.9090042  20.2688465
  62.9837875  38.3692818  62.0800552  62.5152969  37.5420761  62.1917496
  62.8995705  38.8084068  62.9264030   1.2114296   1.7367784  41.4361229
   0.5145466   2.2010252  41.8998718   0.9076432   0.8300929  41.3929138
  86.0743103  40.1576538   0.4627207  85.8968048  40.0462494  -0.4712561
  85.2564011  40.5006676   0.8227211  13.5351763  30.0880985  66.4647598
  13.1852150  29.5113335  65.7857132  14.0884027  30.7085819  65.9902420
  30.2246742  21.4072342  79.7706985  30.6230679  21.4699097  80.6387939
  29.5002460  20.7918396  79.8834915  35.0324440  54.6358490  60.2397423
  34.3054504  55.2392006  60.3936348  35.6919212  55.1649475  59.7909927
  15.9787722   0.4833239  87.5692673  15.7561312   1.1232725  86.8931580
  16.6538162  -0.0639908  87.1680298  45.1364441  48.0435066  19.6919651
  45.3991661  47.1438599  19.8864937  44.2993813  48.1515350  20.1435108
  41.5973549  46.8337860  32.6154289  42.3552589  46.3064575  32.3629723
  41.8211899  47.7225037  32.3391953   6.2610860  48.4613647  72.6908569
   5.7495623  48.3140488  71.8953247   6.1134543  49.3829384  72.9033127
  85.0017319  34.5788002  64.3184204  85.7754745  34.9586906  63.9022064
  84.5654526  34.0953026  63.6169014  61.7937889  59.2013245  76.4939957
  61.4973106  60.1059799  76.5936279  62.5115089  59.2526360  75.8627472
  14.3466930   9.9052010  21.0986595  14.3649693  10.8352709  21.3241959
  15.1301155   9.5429554  21.5124950  39.9683495  54.4814987  66.3476715
  40.5743179  53.9263420  66.8384247  40.1574249  55.3693275  66.6513824
  45.6397438  17.2736683  88.7942047  44.8670425  17.1714687  89.3498306
  45.2971230  17.6137791  87.9676666  38.7495995   9.7705660  84.5262146
  39.1854095  10.3446646  85.1560593  38.5136948   8.9938345  85.0334244
  53.7160072  66.9816437   2.7138731  52.8224869  66.8095245   2.4168422
  54.2515373  66.8943558   1.9253184  65.0031815   4.5963311  32.8756027
  64.0510941   4.6457329  32.9611473  65.1467056   4.0154214  32.1284904
  27.0869160  40.5370560   4.8814950  27.6495495  40.1863365   5.5719075
  27.3116093  40.0236397   4.1055140  68.4254074  64.6211777  27.3775768
  68.4622269  65.5245819  27.6917973  67.5830688  64.2924881  27.6916866
  41.0547104  59.6024704  36.7717781  40.9304848  59.3767738  35.8498993
  41.9302483  59.2777061  36.9819984   7.0741997  38.5603867   0.5196359
   7.4284663  38.8977432   1.3423855   6.1300073  38.7011147   0.5898402
  26.3044758  42.7988930  34.0923653  27.1595478  42.9126778  33.6774712
  25.7158337  43.3577995  33.5850639   6.4125481  40.8448143  37.2971802
   6.9067998  41.5364990  37.7370834   5.8008723  41.3122330  36.7283173
  19.9981365  20.6499500  66.9505539  19.0663757  20.4693394  67.0747833
  20.4434299  19.9368858  67.4082489   1.8041176  28.8545952  66.2732010
   2.4658842  28.1654739  66.2148056   1.7919581  29.2494812  65.4013367
  74.6426086  70.4878922  57.8764763  74.5411835  70.7017593  56.9490051
  74.3857956  69.5679474  57.9396133  39.4334564  65.6572723  82.4640656
  39.0976677  65.0576477  81.7977905  40.2095718  66.0494995  82.0640259
  49.6173897  66.0287399  14.6904697  49.5810089  66.7737427  15.2903662
  48.8741455  65.4811172  14.9433098  72.4384995  51.3000717  82.4348297
  72.1866074  52.2230568  82.4645233  72.4615021  51.0879822  81.5017090
  65.9781418  34.9527168  31.8843784  65.2619476  35.2274971  32.4569092
  65.6021347  34.9719925  31.0043335  80.0271912  59.1335526  80.2480545
  80.4318771  59.9483032  79.9503250  80.4315948  58.9620743  81.0985107
  35.7726402  67.2116699  43.2867813  35.4711037  66.6039352  43.9620361
  35.1893654  67.9664688  43.3661308  34.9063568  56.7885551  38.4378319
  34.3399544  57.3508568  38.9662590  35.6124382  56.5338669  39.0318146
  55.0331459  59.9069901  78.7577286  54.3692474  60.5653000  78.5525513
  54.5859413  59.2874107  79.3342361   4.2680035  45.8925438  48.8376045
   4.4584842  45.9041061  47.8996201   4.1833339  46.8156509  49.0762100
  55.9995232  46.2092361   1.1555747  56.6383972  46.5704117   0.5410677
  55.3850670  45.7241936   0.6047476  62.9231186  42.3791389  44.9485207
  62.4083138  42.5961723  44.1712761  62.7710304  43.1095543  45.5481796
  48.1634521  63.8291359  35.7011871  47.2257881  63.6788063  35.5810966
  48.2192612  64.7097626  36.0721512  14.3229113   9.6481028  64.8507767
  14.4242468   8.7110806  65.0179596  14.6886110   9.7761536  63.9755058
  10.1491013  71.0883560   2.5274885  10.5938721  71.7881927   2.0493236
  10.8536139  70.6163864   2.9714882  56.1431007  26.3525219  42.6474075
  55.6957474  25.5391178  42.4140091  55.8084641  26.5686760  43.5177689
  63.0889893  25.1497021  87.4760971  63.2418556  24.9785118  86.5468216
  63.7247238  25.8285942  87.7023163  24.2004528  26.8915348  18.7368813
  23.4769917  27.5182018  18.7480450  24.7113876  27.1293297  17.9631691
  35.2585869  56.5708847  63.4220428  34.4287567  56.1049385  63.3195496
  35.3235970  56.7404022  64.3618698   9.7927303  40.6334763  74.1151276
   9.7923088  39.7695961  73.7028809  10.5663843  40.6295166  74.6787567
  31.5350285  40.9080048   0.8554732  32.1542015  40.7240410   0.1490650
  31.9662228  40.5782089   1.6438500  85.0672379  25.1920624  47.2196503
  85.3000717  25.7811165  47.9373131  84.1230164  25.0644531  47.3112755
   1.5487616  68.5102234  13.5862761   1.3237523  69.1786041  12.9390726
   1.3567095  68.9195251  14.4299707  63.4280205  65.2492599  42.0863457
  64.3675537  65.0765457  42.1470490  63.2644653  65.3576584  41.1494713
  18.8492928   0.7918055  76.8007889  18.0056992   1.0975229  76.4674377
  19.3073978   1.5906794  77.0618820  62.7495651  50.9074783  18.2659512
  61.8721428  50.5456963  18.1415482  63.3375130  50.2303123  17.9312859
  69.3238678  13.3113403  25.0627079  69.5276566  12.9617939  24.1952305
  68.5506668  13.8585081  24.9248734  70.9009933  31.2863445  46.0155830
  70.8061981  31.8720531  45.2644577  70.1363220  30.7124023  45.9697647
  48.6527824  27.6558647  62.2323074  49.0204201  26.8122025  61.9690437
  49.2383652  27.9674377  62.9224167  27.0726223  12.9829178  77.1775894
  27.8510075  13.2775679  77.6503754  26.5759220  12.4805908  77.8234863
  21.9093571  67.9866028  81.5809097  21.9371567  67.4875412  82.3972397
  21.3600025  68.7442474  81.7819519  59.8916206  36.2267113  56.1965599
  60.1592255  37.0145798  56.6697273  60.6692352  35.6685715  56.2016068
  28.8030186  37.8253174  27.2411098  28.2882099  38.4836884  26.7744751
  28.8125763  38.1281242  28.1491013   6.5784388  29.1352310   0.3384734
   7.2294331  28.4516087   0.1800507   6.0021539  29.0987244  -0.4249368
  14.4926023  51.0638885  29.2485046  15.0265484  51.7462463  29.6553478
  13.6521616  51.1140366  29.7038918  10.0256557  70.4075851  73.2344971
  10.2896338  69.8346786  73.9544449  10.7317219  71.0505295  73.1688004
  80.6537933  59.2068329  20.6811504  80.3156586  58.6865425  21.4099808
  80.3163910  60.0884933  20.8394394  44.3002129   3.1423569   6.1162567
  44.7068710   3.8764706   5.6558886  43.3637695   3.3401139   6.1024060
  43.2096481   9.3215361  11.6009340  42.5072403   9.9640770  11.7009172
  43.2490692   9.1543541  10.6592722  61.8051682  67.7627869  73.6906433
  61.7926979  68.4266968  74.3800735  62.6949539  67.4106445  73.7133026
  52.4443016  22.8945808  75.2129364  53.0573425  23.1706944  75.8942413
  53.0022621  22.5745125  74.5040894  65.1122665  68.5880890  83.0590515
  64.4772034  68.0234909  83.4996948  64.7435532  68.7281952  82.1868973
  79.3710709  18.0548439  12.0688019  79.9984436  17.5907211  12.6230755
  79.7978745  18.8882217  11.8699169  30.1230221  68.8805695  14.9995098
  30.2327061  68.4703598  14.1416464  30.9636497  69.3048935  15.1713343
   0.8263295  33.6476059  44.0585251   0.7962993  32.7082367  44.2399445
   1.2904105  33.7156830  43.2241249   9.4637489  38.0699425  72.8166428
   8.6022558  37.8978081  72.4366074  10.0513391  38.1249237  72.0630264
  79.0982285  13.8805714  53.5263672  78.9207993  13.6888723  52.6054955
  80.0419617  14.0367985  53.5609665  86.0534363  61.9553337  49.0757561
  86.2422867  61.6644897  48.1835823  86.7599487  61.5832214  49.6035843
  46.7440720  56.3447800  68.0997086  47.5821648  56.1193275  68.5034485
  46.1891441  56.6113586  68.8326569  80.7888794  13.1365519  65.5145874
  81.1822586  12.2907763  65.7294083  80.7828598  13.6153355  66.3434219
  73.2728195  52.7293472  33.0711136  73.1537704  52.0883865  32.3702354
  73.8463821  52.2922249  33.7005463  62.0430489  29.5338650   7.2921872
  61.3745003  29.2350674   6.6757493  62.1762466  30.4559841   7.0726752
  40.0184669  60.4310951  18.9232197  40.5948944  60.3121796  19.6780872
  39.1344604  60.3886642  19.2878628  24.3800354  55.5574226  45.9074631
  24.6840763  56.4017715  45.5744934  24.8314667  54.9098511  45.3660812
  39.0700760  31.9418755  27.7365417  38.8416290  31.6921921  28.6319199
  38.6389961  31.2866764  27.1877995  45.6026039  44.8829803  59.8327713
  45.8260765  45.7913704  59.6299782  44.6514626  44.8885574  59.9401436
  77.4022827  68.3596115  25.9121952  76.5289459  68.0426636  25.6818428
  77.2502289  68.9906158  26.6157188  57.9786530  44.6943474  31.1438446
  57.6259995  44.9093666  32.0073433  57.3546677  45.0783577  30.5278835
   1.9556812  48.3954086  18.0560360   1.6935291  47.6388321  17.5315399
   1.4500841  48.3130646  18.8646278  52.4643974  62.2412453  71.3258896
  53.1804543  62.5521851  70.7719879  51.7374573  62.0982895  70.7197952
  78.7875443  59.2017593  55.5637054  78.6987000  59.5847855  56.4364204
  79.3149872  59.8349648  55.0767975  28.9915180  47.2208710   2.6121266
  28.9342995  46.3834152   3.0721576  29.6657219  47.0830727   1.9467754
  41.7143974  70.2043762  86.8067780  42.2482834  69.4566193  86.5383453
  40.8118858  69.8966141  86.7231750  20.3145123   6.8524461  63.5656090
  20.3100777   7.7993264  63.7057152  20.9335308   6.5172515  64.2142181
  14.7861309  43.3366127  65.8434143  15.3225183  42.7950706  65.2644043
  14.1660891  43.7716026  65.2581253  15.6791115  40.1578217  33.2663078
  15.3060875  39.2817383  33.3640823  15.0591393  40.7334595  33.7140884
  29.5895386  50.5249596  39.4485474  30.3465805  50.5633049  38.8640404
  29.6564598  51.3185730  39.9795189  12.3492689  67.6269226  20.6931782
  13.1249771  67.3076706  20.2321053  11.6125336  67.3062286  20.1729794
  37.9110909  57.1910744  55.2144928  38.1498260  58.0539322  54.8758011
  37.4297943  56.7772980  54.4979897  79.9907837  50.6564445  79.0765533
  79.1863708  50.1379852  79.0953064  79.6907349  51.5650673  79.1011581
  11.3172178  33.2079201   0.4741018  10.6437645  33.8549423   0.6839970
  11.4277325  32.7065468   1.2819637  27.7154427  15.2768993  74.9844208
  27.6224747  14.6120434  75.6667328  28.1806431  14.8305616  74.2768860
  52.6520882   0.0449385  57.7668266  52.4482613  -0.1696767  58.6771164
  52.1403236   0.8334372  57.5862808  56.1581612  39.1626740  14.2712231
  57.0146942  39.0291977  14.6771393  56.2446175  39.9888763  13.7956743
  81.3996429  55.0512810  68.3103409  81.5437241  54.2006683  67.8956909
  80.4947205  55.0163918  68.6203842  55.7113342  32.6780396   0.2224150
  55.3986969  31.7742481   0.1817418  55.0656128  33.1306496   0.7650203
  66.0906601  14.1746035  47.2543716  66.5513992  13.3639803  47.4707947
  65.1648636  13.9634180  47.3749619   1.7262169  27.3189926  77.3954010
   1.3979666  27.1416817  76.5139008   2.0560319  28.2165337  77.3521271
  48.4834900  60.2162018  26.4368992  47.8212700  60.7683754  26.8525867
  48.1134987  60.0020103  25.5804749  21.2751808  32.9002686  67.2068405
  20.6566029  32.9021072  66.4763718  21.8110523  32.1199226  67.0649414
  17.6617069   8.5543861  57.9818535  18.0490112   8.8954172  58.7880325
  17.0689716   7.8623137  58.2749939  20.7652092   2.5195584  12.7339468
  20.3867588   3.0951216  12.0693150  21.7015038   2.5075519  12.5353565
  15.6085272  11.2234545  76.5882416  16.0726814  11.9758720  76.2212753
  15.0497618  10.9154463  75.8746948  11.0687113  21.8891754  76.6672897
  10.3365459  21.4513493  76.2331543  11.2950506  21.3115273  77.3962097
  20.7667065   5.4800329  27.7205486  21.5906487   5.5160780  28.2064018
  20.9741611   5.8635073  26.8684101  36.4611588  16.4432831  74.8528366
  35.6004601  16.0270081  74.8991318  36.8859634  16.0319710  74.1001053
  68.1870651   1.2197212  63.6356468  68.0690765   1.4683396  62.7188606
  68.7047119   0.4153121  63.6009521  76.0086060  21.8255920  28.9288788
  76.0481873  21.0073166  28.4338131  75.3769913  21.6528111  29.6270504
  82.0063171  38.6545486  49.0032616  81.4360809  39.3896980  48.7782745
  82.8234482  38.8342056  48.5382347  44.9513283  35.8395309  29.6563797
  44.5413246  36.4708481  30.2476196  45.8615570  35.7935295  29.9489555
  30.9219246  15.5408592  15.4380951  30.0791016  15.8397646  15.0967188
  30.7029572  14.7962475  15.9983072  61.0879555  57.7313614  44.4727097
  61.8278046  57.5236359  43.9019966  60.4912453  56.9898949  44.3707428
  74.5000000  37.1087532  24.0607491  75.3724670  36.7713928  23.8577137
  73.9933548  36.9583702  23.2626724  83.9394760  17.2625332  21.3814106
  84.1871872  17.9059315  20.7174015  83.6948242  16.4840412  20.8810825
  13.2296219  53.8483391  82.7828979  13.4380264  54.7508469  82.5414963
  12.5891113  53.9311905  83.4893799  85.4065323   9.9811134  67.9422226
  85.0023193   9.1160488  68.0093460  85.1571808  10.4255171  68.7525101
  35.9080849   8.2451849  72.8215714  35.2201347   7.8526878  73.3590698
  35.7833366   9.1886435  72.9243088  45.2818451  48.1293755   8.1305151
  45.4701004  47.4217300   8.7469826  44.5121346  47.8280792   7.6478186
  17.7353458  10.9038391  82.6557846  18.3359985  11.6316395  82.8162689
  16.8642521  11.2982807  82.6987152  72.8289413  33.6004639  27.1710243
  73.4845810  33.8603325  27.8182011  72.7791519  34.3430176  26.5690536
  39.7103691  58.8529091  26.8652382  39.7897949  58.0701370  27.4103870
  39.1318703  59.4323692  27.3610172  62.4660416  33.6702385   1.9981358
  62.9573975  33.0853577   1.4213200  62.6175766  34.5442505   1.6384450
  50.0878334  62.6981888  83.8931427  50.1646500  63.5291824  84.3619461
  49.1981506  62.3988571  84.0804749  61.2212448  47.0633736  69.7283020
  61.1684456  46.8158607  70.6514359  62.1584282  47.0634689  69.5335770
  34.0863838  60.4501686  32.8191795  33.7883797  60.7760506  33.6684303
  34.9299164  60.8806648  32.6800308  71.5738907  36.4741745  53.8840065
  72.3716354  36.8207970  54.2836075  71.5380630  35.5622826  54.1727943
  64.4597931  22.9161701  24.0353889  65.1838303  23.3336735  24.5019665
  64.8473587  22.6121273  23.2146664  49.7888145  67.6092987   8.6785889
  48.8635445  67.3797989   8.5923758  50.2101212  66.8004684   8.9693289
   6.5875106  31.5420380  29.8174801   6.2241912  30.6566353  29.8345909
   5.8281145  32.1146698  29.9253712  87.0088730  32.9359589  49.7378922
  86.8006744  32.5750198  50.5996399  86.3696136  33.6370239  49.6110420
  76.0982513  33.7873726   9.5659943  75.7674484  34.1873055   8.7617235
  76.6245651  34.4738083   9.9759102  37.2484093   1.5335468  63.2496109
  37.3250809   1.3648008  64.1886978  36.6085091   0.8914070  62.9423370
   2.6164734  28.6850224  38.5754700   2.8653417  29.5561466  38.8844032
   3.3719463  28.3853397  38.0698204  66.4238663  63.3468170  23.6126537
  66.0846252  64.2379837  23.5291748  67.3013382  63.4578743  23.9786415
   4.9789362  45.2674637  68.2347412   5.8264375  44.8875999  68.0030594
   4.8402514  45.9573479  67.5858536  53.2130203  26.5049248   3.7514303
  53.5531731  25.7511158   4.2334032  53.9255753  27.1437340   3.7719724
   0.2747359  71.0078888  79.5601883   0.1527724  71.4454727  80.4027252
  -0.1841530  71.5655899  78.9319992  80.9238281  65.4195862  10.0895834
  80.4594803  64.6178055   9.8492289  81.0524979  65.8796616   9.2601223
   9.6991940  43.6043205  81.3328705   8.8949881  43.8338623  80.8672638
   9.7212133  42.6475296  81.3155365  44.1961441  38.9180794  14.7653437
  44.8777695  38.3101082  14.4789991  43.3764076  38.4479904  14.6127682
  33.9571686  17.4441833  88.7685471  34.8526611  17.6263447  89.0534134
  33.4492149  17.4148178  89.5793228  45.5743103  62.7610550  87.1512527
  45.1949768  62.1478310  86.5217361  44.8202705  63.1256943  87.6146088
  81.2744827   0.9040697  18.5813618  80.3773804   0.5956400  18.7090530
  81.4388962   1.4787190  19.3290119  83.0355759   7.5548091  52.0158577
  82.1506195   7.3733811  51.6993637  83.3628998   8.2394905  51.4325027
  45.7075653   7.6649523  89.1812134  46.5939980   7.8277755  89.5036316
  45.8175201   7.5187907  88.2416458  35.0046844  30.7087421  82.9509048
  34.2940636  31.1189499  83.4438324  34.5788002  30.3446712  82.1748199
  76.8624039  63.3033562   3.0643814  76.3815765  63.9314651   3.6033757
  76.7817764  62.4733658   3.5343237   2.6440945  49.8842812  47.8881607
   3.2560976  50.5919838  47.6860771   2.7906816  49.2366867  47.1986923
  48.4605103  56.1894112  50.3526840  48.1768188  55.3266640  50.0503235
  48.3751717  56.1493721  51.3052292  62.0066414  52.5801697  75.4340744
  61.2330322  52.6383934  74.8733902  61.7022514  52.8722954  76.2932892
  75.3980408  25.0992260  55.3319397  75.9825363  25.6514530  55.8512115
  74.6964264  25.6880436  55.0539894  37.4026756  58.5921326   8.3553944
  38.0014343  58.3364983   9.0570860  37.7882690  58.2178345   7.5632777
  42.3920784  20.0298500  86.0502548  41.5879822  20.4576683  86.3445892
  42.4880219  20.3021584  85.1376343  81.7162399  51.6911392  85.4498215
  82.3096619  51.8128624  86.1909485  80.9328461  52.1877937  85.6861725
  14.7534170  59.2833786  29.7852612  13.8888502  59.4725609  29.4206200
  14.8910952  59.9661789  30.4418106  75.2959061  24.3707714  59.8980865
  74.3485565  24.2934570  60.0111198  75.6198273  24.6286888  60.7610970
  60.9590225  61.3832130  50.4370537  60.3070908  60.6991119  50.2846451
  61.1899300  61.2923279  51.3615265  80.4977951  30.1529541  20.6482582
  80.9838715  29.7978439  21.3924751  79.5874176  29.9121399  20.8198948
  86.7494888  31.3064594  17.8525467  85.8211975  31.4090424  17.6428261
  87.0016937  30.4863472  17.4282360  76.1575089  19.8616886  49.4633598
  75.5558090  19.1439056  49.2659416  75.5873184  20.6022224  49.6700554
  69.5768204  69.7920074  81.5496597  69.1431961  69.3126678  80.8436661
  69.7540359  69.1282654  82.2162018  74.0082321   0.0818594  55.4472961
  74.5131607   0.8250204  55.1171646  73.1224060   0.2277039  55.1152077
  16.6394157   3.5993679   1.9251091  15.8005075   4.0473285   2.0337303
  16.4128666   2.6697414   1.8986135  80.4535294   3.8967004  80.9722366
  80.2028198   3.9567480  80.0504074  80.2121124   3.0066352  81.2286224
  73.7323303  16.5199432  38.0645485  72.9073181  16.4235210  37.5888519
  74.3995438  16.2100735  37.4521408  39.6371384   6.0326734  77.0171509
  38.8561401   5.5127826  76.8274460  39.9722404   5.6708841  77.8375473
  84.3601837  18.8701553   1.2980018  84.5882034  18.9739685   2.2218328
  84.2491302  19.7649517   0.9766967  59.5526009  37.4111481  69.3193283
  58.7758102  37.9609642  69.4219437  59.8330421  37.5589409  68.4161453
  42.0640640  -0.1513173  79.3096695  42.2424850   0.6143032  78.7635727
  41.1109467  -0.1666200  79.3966293  84.8327560  56.4183426   8.1392555
  84.2699432  56.9635696   8.6889791  85.0936127  55.6938477   8.7078457
  38.2284355  26.8753567   1.2993189  39.0458908  26.9728870   1.7876679
  38.0170250  27.7618694   1.0066925  57.5623665  12.4460497  16.3139420
  56.9995422  13.2200975  16.3316383  56.9554405  11.7074537  16.3624115
  25.6075802  60.8338470  60.1338463  26.3674355  61.3279343  60.4416313
  25.3355808  61.2857323  59.3350677  11.6840658  46.6742058  37.4495392
  11.4054251  46.7771263  38.3594856  12.2138290  45.8769722  37.4499855
  52.1237602  30.7355728   0.3032254  51.4977226  30.2809219   0.8667888
  52.3939743  30.0759201  -0.3355812  69.8716736   2.7895536  67.6205597
  69.3370972   1.9955391  67.6221085  69.6960602   3.1948576  66.7713699
  71.0446548  71.3134308  60.8631325  70.8667526  70.6014328  60.2486115
  70.2172241  71.7910004  60.9224281  53.4782600  30.0192833  75.4785538
  52.8973083  29.5260296  76.0577164  54.3585892  29.8249626  75.8002625
  20.6222534  38.5908012   3.0384116  20.5696850  38.1200027   2.2066569
  21.0709400  39.4084015   2.8229017  20.3326817  35.7046242  59.9931145
  20.4816132  36.6484947  60.0493431  19.3805542  35.6102943  60.0211525
  10.1947012  62.2160416  59.8324623   9.5558186  62.8926620  59.6082993
  10.2272692  62.2248878  60.7890663   7.6654878  48.2273483  33.6472015
   8.4275274  47.7825546  33.2761383   8.0354090  48.9216461  34.1924896
  14.6733055  55.9677773  42.9616013  14.9787502  55.5353279  42.1641541
  14.5317345  55.2531013  43.5824318  29.3866692  60.7241325  52.0047188
  30.0481720  60.3551331  51.4194946  29.8799648  61.2940292  52.5947227
  65.9489288  49.5494232  85.0616379  65.6081085  50.1867485  84.4340363
  66.5895996  50.0396576  85.5768433  69.3963089  51.3280373  48.5718956
  69.0856171  52.2299004  48.6515808  69.9412689  51.3311005  47.7849731
  55.6910667  36.0297432  56.1687889  56.2248344  35.6994514  56.8914413
  55.0522995  35.3356667  56.0061188  84.2598419  27.8757019  30.2262402
  84.7155838  27.7445488  31.0577030  84.9520416  27.8428535  29.5659218
  50.2603493  10.9175682  31.0780373  50.1050720  11.6480064  31.6768532
  50.4235306  10.1685104  31.6512012   6.5951948  32.3017616  70.0927048
   7.3095231  31.6873493  70.2614136   5.8003221  31.8015289  70.2775650
  61.4983177  33.5532837  26.4859009  61.8108864  32.6532516  26.5779858
  62.1450653  34.0805931  26.9548302  62.3331985  38.6396408  76.6647415
  62.5615501  37.8262062  76.2148361  61.4717140  38.4690475  77.0455017
  83.8486938  58.8476028  53.3694839  84.4719620  58.5564194  52.7039146
  83.1302872  59.2368736  52.8708954  17.8418236  26.3454990  79.9174652
  18.3520851  27.1008892  79.6254883  17.2559967  26.1545830  79.1849442
  65.6518402  71.4861908  24.1738224  65.0624008  70.7343063  24.1149960
  65.0820999  72.2196121  24.4056301  47.0940781  43.2755432  64.0625992
  47.4024277  43.8880730  63.3948021  47.3613396  43.6711922  64.8922195
  30.6433983  33.5202751  16.7721138  30.4627247  34.2514076  16.1813221
  31.0819702  32.8708878  16.2224026  38.6660767  -0.0116026  24.0569420
  37.7253342  -0.0294303  23.8811131  39.0352058   0.4962060  23.3343735
  33.8753471  27.1136875  82.5650024  32.9960556  26.8882580  82.8687439
  33.7588234  27.9298115  82.0785980  20.5850048   6.2409902  70.8074341
  19.8300800   6.4111676  70.2440872  21.3170567   6.6678739  70.3623505
  58.0448151  38.1967812  32.4560051  58.8967285  38.2482872  32.0226173
  57.4160156  38.1137428  31.7390995  77.0184784  30.4038811  57.0510674
  77.0601959  29.9983845  57.9171295  77.9070969  30.3214626  56.7049522
  22.8123684  14.6885061  17.3786373  23.1279202  13.9033051  16.9312916
  23.2912197  14.7007799  18.2073612  36.6866722  66.2451782  61.7850838
  36.3423615  66.8917618  61.1689529  36.3268929  65.4111862  61.4830170
  65.4233017   0.4468023  83.7913208  65.4177704   1.0269403  83.0299835
  66.1227493  -0.1807528  83.6091766  86.5786591  59.3727341  33.9204826
  87.5047226  59.1594849  33.8057747  86.1126022  58.6498489  33.5004120
  38.8275948  60.9126129  64.9226913  38.6545563  61.5243454  65.6382828
  38.9755707  60.0722733  65.3564682  25.9982719  71.5484772  22.8146648
  25.5738220  71.1125565  22.0757160  26.1551437  70.8480988  23.4479809
  81.9665222  45.8025169  39.6819420  82.6652832  46.2407799  40.1676254
  82.0554733  46.1296043  38.7867699  11.7171774  22.5337620   5.9278216
  12.6204777  22.2798367   5.7386045  11.4425621  21.9394093   6.6260781
  31.4704514  67.1318665  12.9769773  31.5325565  67.5632629  12.1247606
  32.3396950  67.2385330  13.3633327  46.2774124  11.9954710  87.0643616
  46.4586983  12.9287024  86.9528046  45.3230286  11.9410954  87.1136551
   0.7874055  21.0861130  30.5890770   1.5270078  21.0045795  29.9869385
   0.9226229  21.9291649  31.0217552  77.2281265  51.3277130  17.5357819
  77.0892334  50.9897537  18.4204979  77.9631729  50.8167648  17.1968575
  83.0923157  67.6380310   7.0551133  83.8056717  67.0146942   6.9179378
  83.4990234  68.4967499   6.9392867  57.4979706   8.4839945  83.0133133
  57.2389336   9.3850279  83.2063675  58.0323944   8.5527039  82.2221756
  44.1941109  22.6210766  24.3736782  43.4309807  22.7435207  23.8089924
  44.5354271  23.5048962  24.5100594   6.3497891   7.4661083  67.6433029
   5.8516917   6.6987166  67.9248047   7.1976242   7.3739896  68.0779572
  80.0749207  69.4884567  10.3720694  80.3968277  68.9433746   9.6540899
  80.0136261  68.8910522  11.1174440   2.8397768  34.1744156  77.0191498
   2.2599471  34.0603218  76.2661514   2.3713651  33.7646141  77.7463989
  22.0259781  62.2830925  16.6552525  21.9549160  63.2055092  16.9008656
  22.0203438  61.8122177  17.4886074  18.2856998   9.7622080  17.7312565
  18.1972160   9.1569004  18.4674664  17.4231987  10.1695080  17.6510696
  -0.1727002   5.6129045  50.4234390  -0.4390941   6.4265633  49.9953918
   0.6958091   5.8022761  50.7784920  44.7489929  44.4889183  29.8985653
  44.0205460  43.8687248  29.8676319  45.4005051  44.1231918  29.3002300
  54.6723900  22.2540207  66.6917496  54.3054428  22.0753994  65.8259125
  54.5612602  23.1974907  66.8089905  67.2448807  66.5256042  11.4144297
  68.0396347  66.1243286  11.7659702  66.6835175  65.7847824  11.1857672
  62.9311295  54.1850471  54.5805817  63.0908127  53.3867455  55.0840187
  63.6729584  54.2407570  53.9782372  33.7226372   0.2842474  71.9616318
  33.1612015  -0.1181169  71.2989655  33.1721992   0.3350946  72.7430801
  65.5898895  49.8446388   3.9147675  65.5396347  49.0941772   4.5068097
  64.6898346  49.9748230   3.6161461  62.3191490  19.3904800  79.6966019
  62.3511658  18.8610382  78.8998032  61.4178925  19.7105770  79.7354279
   4.0147405  60.6103554  39.6927795   4.7500534  60.5500107  40.3026199
   3.4697013  61.3146362  40.0437126  72.7238159   6.6779861  67.8429337
  73.2308655   7.4892583  67.8740845  72.9525223   6.2847891  67.0007172
  42.9254684   2.3880522  70.2631607  43.3968658   3.1312728  69.8868103
  42.0012550   2.5974126  70.1281433  68.4811325  46.4385872  10.0767956
  69.0306091  46.0145111  10.7359381  68.7883911  46.0819054   9.2433662
  20.0178871  54.3617096  22.4781513  19.9581795  53.4212456  22.6460648
  20.0559998  54.4327698  21.5243549  61.2784920  33.4723015  21.8047981
  60.7945404  32.7496300  21.4050884  60.7650414  33.7056122  22.5782089
  67.0246201  62.9864998  36.0264130  67.1337967  62.8140907  36.9616051
  67.9179993  63.0530739  35.6892433  70.1122513  16.3589211   3.4463582
  71.0670242  16.3347206   3.5100214  69.8456268  17.0129185   4.0924473
  68.0245590  15.4068069   1.9822369  68.7423019  15.6051769   2.5836732
  68.1142654  14.4708862   1.8026903  71.7822723   3.8972106  32.1591034
  70.9019470   4.2723508  32.1360970  72.1752701   4.1572075  31.3259277
  70.4855118  23.6565533  54.2743416  70.3227615  22.7135372  54.2527542
  70.9880676  23.8311520  53.4786110  14.7835712  62.1961288  27.5342216
  15.0235596  63.0809441  27.8094311  14.5388269  61.7510567  28.3455410
   9.2959862  19.8621521  76.6281509   8.7732353  19.8144112  75.8277206
   8.6785879  20.1499557  77.3006210  60.4881020  53.3572960  47.6586304
  59.8484268  54.0653839  47.7338562  59.9668083  52.5565300  47.7157364
  71.4710388  15.1940136  10.1055918  71.6284866  14.5201302   9.4442873
  71.1073227  14.7171488  10.8516121  38.5537109  62.2317505  54.8937111
  39.1160660  62.0140724  55.6370850  38.3699036  61.3894958  54.4777184
  65.0225372  61.7834816  59.9600372  64.2817917  61.4539375  59.4511795
  65.1847076  62.6585999  59.6077576  68.3121948  44.2904167  32.5257263
  69.1021423  43.7507324  32.4947281  68.6012268  45.1550407  32.2339821
  61.0466843  68.5035934  58.2231598  60.2698212  68.0084763  58.4831085
  60.7149086  69.3762054  58.0117416  21.8718300  42.9203644  69.6716766
  22.6820202  43.2931671  69.3240509  21.1766872  43.3573532  69.1796951
   7.2686238  48.9535294  79.3582230   7.5427365  48.8275146  78.4498062
   6.7385583  48.1818619  79.5576935   0.3688443  15.6743565  70.7810669
   1.1156368  16.2659149  70.6883850   0.6888872  14.9713516  71.3463898
   0.4748585  66.9615555  59.5554314   0.8383604  67.5464249  58.8905830
   1.2210116  66.4380188  59.8476601  13.2018690  53.6933365  32.0808067
  13.5059757  53.7477303  31.1748314  13.9175940  54.0649757  32.5964203
   8.3232508  65.4416809  17.1579628   8.2981529  64.8797150  16.3834991
   7.5890694  65.1429214  17.6945705  30.5422573  18.5387306  17.9876747
  31.0167809  18.5133076  18.8185844  30.9872532  19.2160816  17.4783516
  48.5487709  65.9356766  42.2669220  49.3004990  65.9332047  41.6743584
  48.9336662  65.8927917  43.1422768   6.0171509  62.0448456  52.8320351
   6.4707866  61.2103081  52.7137299   5.7983680  62.3265533  51.9437714
  59.6357803  34.2687035   7.5212169  59.5965652  33.9832458   8.4340200
  59.8137550  35.2078705   7.5714021  43.7389107  31.4605999  24.6419964
  44.4493332  30.8658638  24.8824558  42.9403076  30.9820538  24.8643875
  26.6557655  43.4520721  69.1740875  27.0481453  43.7304344  68.3465652
  25.7835121  43.8462677  69.1701355  31.4944687  63.1383591  22.2009964
  31.8219681  62.9322166  21.3255081  32.1974487  62.8647919  22.7902451
  58.2895813  59.7022858  88.4644470  59.0275803  59.2264977  88.0833817
  57.5884285  59.6136284  87.8188858  72.0530701  20.9649906   5.7068715
  71.7025757  20.6072140   4.8911638  72.8523254  21.4215565   5.4442463
  15.1171131  10.2147627  79.1002502  15.6869383  10.3584881  79.8558121
  15.5629835  10.6552267  78.3767700  -0.0006735  34.7476463  11.6564455
  -0.2943058  33.9173546  11.2814398   0.7215730  35.0232849  11.0919867
  52.8271790  42.5181770  74.2122803  53.5415573  42.5387383  74.8490448
  52.9132042  41.6668625  73.7832184   7.9059563  45.1044273  65.2907867
   8.4100628  45.3732185  64.5227585   7.9802151  45.8421135  65.8962097
  74.7927017  19.7164459  35.4836884  75.4491196  19.1584454  35.0665855
  75.0406189  19.7279243  36.4081535  37.9050255  53.2466354  77.1935120
  37.9485321  52.9212532  76.2943649  37.7890739  54.1922417  77.1006851
  78.0084610  13.3747711  16.2809372  77.1549835  13.4491148  15.8539934
  78.6408920  13.4445457  15.5658159  68.1279831   5.7283134  49.3928947
  67.7408905   6.5890112  49.5528755  68.2473450   5.6920300  48.4438591
  11.5124264  66.5318451  84.7823868  10.5966387  66.3323212  84.5880814
  11.7050133  67.3085022  84.2570801  49.1905098  18.6002693  81.7705154
  48.9092064  19.2759743  82.3873749  49.4401588  19.0838013  80.9830475
  84.8458786  27.8422852  65.0981903  84.8623276  27.2281647  64.3641434
  83.9261780  27.8764858  65.3612823  63.1387024  32.5194016  35.0903244
  63.1608658  32.9733276  34.2478943  62.2170982  32.2937241  35.2166176
  55.2248344  10.6893768  54.2920189  55.1266518  11.5199490  53.8264656
  55.6185913  10.9299669  55.1306496  73.5205307  59.9432602  43.0754356
  73.6535034  59.0090103  43.2358208  73.0677719  59.9795685  42.2328720
  56.2735176  67.2211227  74.4686279  55.4625969  67.0660324  74.9529724
  56.0063133  67.2260818  73.5494919  78.3196640  61.6095810  35.2422981
  78.9063873  62.1348267  34.6981430  78.1112289  62.1757851  35.9853973
   1.7926931  13.0053282  36.3651390   1.3989770  13.8361664  36.6314621
   2.7115638  13.2174206  36.2010498  46.8236923  68.7652740  35.7610054
  46.0832024  68.5142746  35.2088203  46.7338409  69.7124252  35.8661652
  66.9701920  20.8941250  85.0340271  67.3335800  21.6369553  85.5160904
  67.5064011  20.1483727  85.3034058  82.3096161  40.0733414  10.6035786
  82.7467270  40.5893059   9.9261217  83.0124664  39.8182449  11.2012024
   2.3921511  16.8191624  78.0133972   2.6999893  17.6435032  78.3901367
   1.4876314  16.9967251  77.7554245  52.0404778  69.9463196  52.5287895
  52.9079361  69.5664139  52.3894386  51.8672829  69.8125153  53.4606323
  55.4934349  32.5864487  84.8920517  55.7877083  33.0349312  85.6848297
  55.6862450  31.6629162  85.0537491  43.5747986  12.4972420  80.9313126
  43.7326622  12.3900146  81.8693008  42.8197517  13.0834188  80.8809814
  46.8718567  42.3369980  46.9365807  46.3601608  41.6946487  47.4283028
  47.0096779  41.9295273  46.0814781  73.1576767  49.1241913  36.9396629
  74.1135559  49.0836296  36.9099884  72.8783340  48.2089043  36.9184647
  10.1109848  35.2597733  86.8731384  10.2390184  36.1882591  86.6788330
  10.2016134  35.1993790  87.8241272  31.9604530  43.9004784  13.4935265
  31.5752087  44.6718826  13.0778856  31.8775578  43.2084007  12.8374891
  51.0709343  33.4159698  44.5666199  50.8656158  34.2793465  44.2079277
  50.6764145  32.8000832  43.9491501  34.1478615  44.9063911  32.3915901
  34.5037956  44.7987823  31.5095673  33.5513611  44.1658401  32.5011482
  35.4748421  21.0110378  70.9880447  34.5758018  20.6918240  70.9101944
  35.8951492  20.3983192  71.5914917  62.3937798   8.1227465  56.8259087
  62.0651855   7.3442535  57.2755814  62.6685219   7.8045521  55.9659691
  46.6012802  15.8728790  76.4816666  46.4079170  16.7537937  76.8023453
  46.8209114  15.9969616  75.5583038  36.8744469  62.2996063  42.4047585
  37.1787071  62.5095863  41.5218277  37.3638763  61.5131798  42.6460457
  62.0906448  40.0693207   9.3448954  62.0613136  40.3409882   8.4275255
  62.8601265  39.5029106   9.4024677  74.5992966  71.3123550  32.3097153
  73.8685455  71.8643494  32.5881729  74.9668579  70.9721298  33.1254196
  51.5797691   9.9510126  60.3324547  52.2638321  10.6175985  60.2695503
  51.3604126   9.9200659  61.2636681  38.2614937  47.3500595  36.6253586
  39.0084686  46.7525215  36.6601105  38.0208321  47.3790359  35.6993599
   2.0183973  20.1811123  58.0048981   2.7505393  20.7586632  58.2208519
   1.3021954  20.4832001  58.5634956  47.0039635  55.2739525   9.6780653
  47.5632706  54.5162888   9.8493776  46.1192780  54.9690056   9.8794861
  83.7123947  28.8956146  35.3937912  83.9831238  28.7148342  34.4936485
  83.6621017  28.0334320  35.8065147  82.3815994  68.9722366  47.1356888
  81.5801849  69.0874634  46.6251144  82.3790894  69.7032394  47.7536316
  63.7086906  14.6653233  88.7558899  64.0598221  13.7764387  88.7027740
  64.3138580  15.1934147  88.2351990  44.6260910  60.3876762  27.5184689
  45.2998238  61.0674400  27.5339928  44.0866165  60.5675201  28.2884388
  22.5815830  11.2516718   3.8071969  23.0105820  11.6946659   3.0751121
  22.9760036  10.3796701   3.8238268   7.3529220  19.0123158   2.3782887
   7.1044979  18.3105335   2.9799681   6.6752362  19.6782970   2.4942312
  54.3363304  32.3069000  28.2302666  54.6114349  31.3957672  28.1283493
  53.7955856  32.4814148  27.4599609   9.3773432  21.5249920  59.1200752
   9.7759609  21.7763290  58.2869110   9.4947472  22.2906628  59.6823921
  22.1287136  66.6457291  66.1728668  21.6945057  66.4307251  66.9983826
  21.4123344  66.7638626  65.5491104  38.6159859  65.3448029  55.7722626
  38.1407661  65.6328583  54.9928894  38.0381584  64.7000198  56.1804390
  80.3467484  46.7867279  34.5449600  80.1844330  46.3173141  33.7267113
  79.8633270  46.2906761  35.2056160  75.6232910  20.2546425  81.5012665
  75.9046173  19.5109348  80.9683609  74.9293060  19.9014950  82.0579605
  71.3949814  51.1125603  57.1007309  70.8714523  50.3330460  57.2865028
  71.1280746  51.3760490  56.2200699  60.0843124   8.6014042  47.1327820
  60.7634621   9.2358589  46.9037552  59.5418129   9.0539207  47.7786560
  25.6987343  62.1092644  46.9926605  25.3855400  62.4971466  46.1755371
  25.8643074  61.1921043  46.7744026  73.8943100  23.2622128  66.1951141
  73.1383972  23.3960915  66.7668686  74.6227417  23.1012630  66.7948837
  66.1794205  11.6805792  41.4571381  65.6347351  11.2741575  40.7830658
  67.0221634  11.2321968  41.3866234  60.2353325   9.6116123  39.6977234
  60.5151443  10.1743755  40.4196892  60.5256767  10.0708551  38.9096680
  21.2925129  38.6315765  62.4371796  21.1117649  38.6614685  63.3766823
  22.2453632  38.5616531  62.3786964  76.9514236  50.6721344  46.1013031
  77.3672638  51.2715187  46.7210121  76.7523804  51.2158241  45.3390579
  60.9156151  38.1880035  13.1938601  60.6538048  37.8556862  12.3352261
  61.5737686  38.8559303  13.0016766  55.8409576  13.8222294  20.6974640
  55.5798416  14.5878477  21.2092056  55.3912201  13.9295998  19.8593464
  25.2609348  61.8756905   1.9530884  24.5313129  61.6483498   1.3767217
  25.6325226  62.6690941   1.5675138   8.9414930  47.3314476  58.1508636
   9.1879187  46.9991913  59.0140648   8.4264956  46.6253204  57.7604904
  20.7137451  28.7640972   0.7099041  21.2637138  28.4952965   1.4457787
  19.8220310  28.7434540   1.0572536  10.6819248  49.0927467  75.4907913
   9.9998732  48.6757393  74.9643555  11.4962397  48.8942833  75.0284805
  53.7811470  62.5270958  43.6448212  53.1170425  62.8042641  44.2759857
  53.4421921  62.8166809  42.7977753  29.0954952  66.0442734  30.3670578
  29.1134624  65.1111298  30.1545677  29.9845390  66.2396622  30.6631279
  50.5646858  22.2683048  16.6199951  50.5488930  22.1960087  15.6656599
  49.6425781  22.3198738  16.8715763  50.6729622   6.0016747  66.6350479
  50.8330612   6.5393686  67.4105988  49.8316612   5.5785227  66.8064804
   0.5239143  46.0479546  22.9218216  -0.0437001  45.3009720  22.7319221
   0.7796934  45.9280090  23.8363819  61.2676163   7.5927701  21.3549175
  61.0405579   7.2876797  20.4765110  60.7512970   8.3901663  21.4724216
  74.1618118  67.4849319  64.5792313  73.6649628  68.2446365  64.8829041
  74.1319885  66.8705063  65.3125916  12.6081123  61.7558403  37.8677177
  12.6077595  62.6998253  38.0262222  12.7454090  61.6714554  36.9241829
  48.6608238  39.9775696  37.5435677  49.0795708  40.4946327  38.2317047
  48.1307068  39.3353539  38.0155525  58.5648117  67.7371368  75.5488739
  58.5117416  68.6909103  75.6099777  57.6885757  67.4655151  75.2756271
   4.2756429  57.1880074  19.7804413   4.2969160  56.2369003  19.6747246
   4.6876135  57.3438072  20.6302872  45.8160591   2.8473864  59.7557983
  45.2173996   2.8477268  59.0089149  46.0067635   1.9220499  59.9094734
  64.2295990  34.2636719  61.8346062  63.4684715  34.7409172  62.1650009
  63.8671722  33.6428108  61.2026176  74.5133591  35.6847458  71.5858459
  74.2832108  34.8604202  72.0145111  73.6734695  36.1173401  71.4319763
  70.5689011   8.5409174   8.7020197  70.2369537   9.1881638   8.0798340
  69.9139557   8.5215864   9.3998089  60.3394585  58.3006020  58.6490860
  61.0983810  58.7748260  58.3094139  60.6196747  57.3856430  58.6727219
  50.9310455  48.1022301  10.6386309  51.5787773  48.7130623  10.9901381
  51.0623665  47.2983437  11.1413774  68.2898102  12.6577587  28.2460518
  67.5854340  13.2080116  27.9035511  68.9685669  12.6903725  27.5719128
  23.1291656  54.8331146   4.9611349  23.6322937  55.4018021   5.5439653
  23.3737793  53.9454460   5.2227402   3.4903228  64.5140991  38.6001854
   2.6130846  64.8739853  38.4691658   3.4373424  64.0526199  39.4371223
  -0.0498882  60.8752785   9.6449652  -0.1900898  60.4522858  10.4921074
   0.3579461  61.7139702   9.8606062  19.7918987  19.5383949  87.1243515
  19.2294769  19.6095753  87.8956146  20.3849792  18.8147392  87.3263702
  63.0150185  30.2053852  29.4213181  62.2611885  30.0809383  29.9979324
  63.4416809  29.3488903  29.3966599  62.0789223  10.3664598  46.2816238
  62.4854317  10.0487957  45.4753532  62.8161240  10.5762014  46.8550148
  14.7717142  46.0189209  60.8688240  15.6784954  46.3081093  60.7670860
  14.6082811  46.0699348  61.8105888  59.4269714   7.9561262  69.7045975
  59.1448479   8.6508732  70.2995453  59.8938484   8.4142056  69.0057297
  79.9895096  59.6444740  48.2061119  79.8274918  60.4107475  47.6558380
  79.1397934  59.4494171  48.6012917  82.4513397   8.0797691   9.4098568
  82.9619141   8.8774424   9.5486536  82.6311951   7.5429392  10.1816711
  72.7928314  18.9858704   0.9136033  73.4520874  19.5896416   1.2557611
  73.2184448  18.1287899   0.9359069  63.7551765  21.7653942  76.7746353
  64.6789551  21.6791306  76.5392227  63.2812958  21.4880238  75.9905853
  18.9087429  64.3092422  38.1163826  19.2246666  63.8373718  37.3458214
  19.4257450  65.1146469  38.1326637  83.5180588  41.1627502  73.4586716
  84.0756912  40.4876060  73.8452759  82.8944550  41.3834267  74.1505203
  83.2229538  59.9149666  41.1028976  82.8013458  59.0703888  41.2615433
  83.7706070  59.7681694  40.3316917  69.4591675   2.4515102  38.5585480
  68.7977829   3.1117721  38.7655602  70.2365494   2.7314739  39.0417976
  82.7157364  16.8473091  56.1043930  82.9799194  17.7015572  56.4459991
  81.8375549  16.7086773  56.4590912  83.1967697  22.0351391  62.8518982
  82.9938202  21.4744205  63.6006584  83.4495773  21.4260578  62.1581116
  78.3721695  48.2647018  26.9993935  79.2262802  48.6764984  26.8684750
  78.1386414  47.9185066  26.1380882  41.1389885  17.7998199  11.5853815
  42.0518799  17.8520660  11.3023090  41.0193596  16.8850765  11.8406572
  46.1870499  62.7443733   1.8720613  45.2676773  62.4797554   1.8410360
  46.3496437  62.9376068   2.7953465  63.2798615  43.5148354  48.2680893
  62.9168777  44.1217003  47.6229630  64.1660919  43.3340797  47.9547920
  39.0820389  62.2608109  12.8459768  38.6432304  61.7629776  12.1561642
  38.8343353  61.8162918  13.6567049  23.4249535  49.4244308  32.8441315
  22.6945591  49.9290886  32.4862556  24.0696297  50.0842857  33.0995102
  56.1711998  10.6183577  75.5867691  55.6235313  10.4809780  74.8138428
  55.6967468  10.1854649  76.2965088  72.4906311  59.5842781  84.9526138
  72.4881439  58.6382866  85.0986328  72.6578979  59.9596329  85.8171158
  18.2732353  24.1122112  61.2053719  18.0072308  24.4763947  60.3610725
  19.1076183  24.5397186  61.3984337  23.2753716  53.7479935  50.3079529
  23.6754589  53.9380646  49.4594040  23.4723969  54.5166969  50.8432159
  16.8270645  69.8250809  50.9212303  17.2914906  69.8778458  51.7565498
  17.3327789  70.3830719  50.3303566  10.4784870  62.0516891  42.1688194
  10.7805119  61.6346664  42.9757309  10.5784931  61.3761177  41.4981232
  14.6333103  23.8392467   8.0016346  14.3662539  23.6749897   8.9060307
  14.3888502  23.0422726   7.5312057  47.8671150  38.0135803   7.4161186
  48.2901764  37.2563934   7.0112524  46.9308319  37.8219414   7.3624215
  48.2276764  22.0702629  25.3653889  47.4787521  22.2643223  25.9290237
  48.4133186  21.1447239  25.5239697  30.1109982  50.9258347  30.6661472
  30.2667217  50.0833015  30.2393990  30.1238518  50.7262001  31.6022091
  20.2467155  51.1138840  40.2331276  19.7414684  50.4462585  39.7691956
  21.1595440  50.8568993  40.1029968  79.3258286   6.6168785   3.9598820
  80.0061417   6.1500854   4.4451694  79.2103348   7.4375787   4.4387822
  11.8672619  70.9878082  78.8480911  11.3870945  70.6697693  78.0835571
  11.2637682  71.5968628  79.2736206   2.2902648  71.4737396  13.5747309
   2.8908937  70.9492416  13.0452290   2.6006639  71.3594971  14.4729691
  22.9496250  32.2946930  10.1599369  23.8798847  32.4577675  10.0041962
  22.8615837  32.3013191  11.1130562  84.8720551  51.6352921  40.6224632
  84.8411331  51.8643684  41.5513344  84.2479095  50.9151726  40.5324631
  55.4138832  18.3785057  63.6661491  56.2599640  18.6121655  63.2843361
  54.8003159  18.4204903  62.9326630  86.3514786  29.4725246  47.0636330
  86.2427368  28.8157501  46.3758469  87.0904846  29.1554947  47.5828590
  55.8821564  21.5953445  47.3085670  55.2612991  22.2898216  47.0884094
  56.1821747  21.8131905  48.1910439  34.7552452  69.5873184  66.7135162
  35.6229973  69.9709396  66.8403091  34.6856537  69.4598083  65.7674103
  51.2697906  55.0793991  79.9814529  50.7179527  54.3160782  80.1518936
  51.1957054  55.6103706  80.7744293  80.8645782  36.0177155  55.8391228
  81.3628006  35.3625870  55.3504448  80.6495667  36.6879883  55.1904831
  25.1697941   9.4157677  12.7035151  25.7657967  10.0302010  12.2751646
  25.3712654   9.4971046  13.6357307  38.4626274  34.6913986   9.3459816
  38.3245125  34.5157928  10.2767448  38.9095001  33.9107437   9.0186930
  15.1064787  44.6698341  73.3579865  14.9718618  44.1896172  74.1749954
  14.2284918  44.7653923  72.9888840  50.6839752  56.5400543  86.7529068
  50.5514412  55.7092323  87.2094193  50.3011246  56.4011002  85.8866806
  26.9005508  31.5889816  12.0649328  27.6671162  31.7156715  11.5058613
  27.2461681  31.6241550  12.9568653  61.5740013  60.0695190   6.6026354
  60.8658791  59.4989014   6.9012895  62.1388893  60.1712074   7.3686571
   5.4323778  36.7313690  40.8449745   4.9475832  37.5316925  40.6432724
   5.0633283  36.4306450  41.6753960  58.4070168  55.2559929  62.2291412
  58.7977562  55.9204178  61.6616058  58.7029991  55.4886093  63.1092072
  46.7378845  33.6341095  25.9101353  46.8222351  33.0495110  26.6633663
  46.5023994  34.4808655  26.2893219  32.7585258   5.2566876  70.1990280
  33.6974945   5.3903112  70.0697327  32.3681564   5.4621191  69.3495331
  33.3772392  49.7168694  29.3518867  33.5265770  49.2182465  28.5485764
  33.5871010  49.1040955  30.0566521  58.7534370  36.3842354  23.9290333
  58.8649788  36.7360687  23.0458565  59.5292053  36.6809731  24.4048080
  64.0302505  45.4889145  65.6505966  63.3508339  44.8594742  65.8923264
  64.4989624  45.0700035  64.9287567  15.3676281  53.5246201  16.3139305
  15.5204687  53.9918518  15.4926109  14.4151220  53.5099373  16.4074612
  38.5135612  29.2757664  69.2248383  38.4741669  30.0740395  69.7515640
  39.4256592  29.2218361  68.9395294  55.7514839  36.9580040  87.0719833
  55.7184944  37.8347626  86.6893082  55.6090317  37.0996323  88.0078659
  66.6638947   7.0676680   1.4910232  67.2923126   7.6968374   1.8452264
  66.4234543   6.5219231   2.2397461  50.7257423  31.7107162  66.1731567
  49.8361588  31.3609047  66.2232590  51.2845879  30.9845886  66.4500351
  36.1051903  25.1551075  70.4109192  35.6402092  25.3581390  69.5992508
  36.3594398  26.0088272  70.7612762  81.9511490   7.4513359  40.0131264
  81.9325943   6.7529764  39.3587685  82.8663864   7.4960098  40.2898521
  31.1389275  30.2837963  71.0918961  31.1300449  29.7495232  71.8860626
  32.0303955  30.1964512  70.7544250  84.9345474  10.8217859  74.1514130
  85.4026871  11.6535749  74.2235641  84.2557373  10.9850054  73.4965820
  40.0155220  48.5788689  57.8218193  39.1389427  48.4541931  57.4580994
  40.0576973  47.9700050  58.5592041  60.9930382   1.9243978  87.8557205
  61.0597496   2.7446668  88.3445358  61.5575752   2.0531991  87.0935211
   8.7608843  70.1490250  88.8868408   8.5105429  70.4197617  88.0035172
   9.6211567  70.5456467  89.0241394  61.3329430  43.2624779  42.9774170
  60.5546341  43.6307487  43.3955574  60.9946365  42.5712852  42.4081802
  51.9882965  32.8922958  87.6614151  51.0815277  33.0786514  87.9048767
  52.1504478  32.0110893  87.9981842  32.9129562  57.2657967  19.0889339
  32.6121407  56.4315987  18.7285824  32.7944298  57.8919067  18.3746738
  -0.0273790   0.2170535  15.1160040   0.3076580   0.7447437  15.8409348
   0.6993441   0.1750830  14.4944382  49.0029221  11.8959274  37.9033623
  49.0988960  11.0708952  37.4276085  49.1612778  11.6644812  38.8185616
  36.7748260  41.9493752  45.1098175  37.5117378  41.4029198  45.3829079
  36.6896667  42.6016006  45.8052139  66.1033096  67.2061844  88.8780060
  65.3380432  67.6154099  89.2819061  66.0060959  66.2736969  89.0709915
  19.7463531  36.3661308  51.5953369  18.9578037  36.4397964  52.1329193
  19.4745941  36.6685982  50.7287979  70.4962692  54.9561958  68.4892807
  69.8137207  54.6328506  67.9012299  70.0629196  55.0342979  69.3391876
  37.3373070  52.5907402  72.1723785  37.2463303  53.1255836  72.9609833
  36.5637894  52.0269241  72.1748123  86.6838608  71.1520386  42.7293701
  86.4055481  70.6568451  41.9589424  85.9096985  71.6541748  42.9838676
  25.1914806  69.9980698  54.3602333  25.3585548  69.5971603  53.5072441
  25.2740536  70.9386673  54.2030983   7.6599503  33.4768181  61.1815834
   7.2479219  33.4363594  62.0446205   8.4796000  32.9932938  61.2845879
   3.6680241  69.9805222  11.8195457   3.1656761  70.1824341  11.0301714
   4.5173821  70.3980026  11.6762419  10.8281469  38.4716797  84.1684875
  10.2188606  37.8173294  83.8266907  10.8817558  38.2827682  85.1053314
  12.4729729  19.1202812  18.8342113  12.2393885  18.7739868  17.9729633
  11.7309628  18.8911133  19.3937969   4.3855548  67.9515305   5.2703624
   4.8832545  67.7661285   4.4740252   4.0689740  67.0957642   5.5596352
  36.7327843  44.6139793  72.4138641  37.4907265  45.0803947  72.0614243
  36.9535904  44.4573822  73.3319855   2.7109041   2.4583397  66.2186508
   2.7746437   2.3008978  67.1606598   2.1495106   3.2298484  66.1422043
  35.4260712  37.2387543  72.5966492  35.3252602  37.4794464  73.5175934
  34.8310318  37.8250771  72.1293335  58.1441612  17.7372780  24.4182510
  58.8745613  17.2368259  24.0545254  57.3936653  17.1466160  24.3541794
  17.0546265  61.9685020   8.8285608  17.4066067  62.3404236   8.0198479
  17.0370960  62.7029343   9.4421806  37.4980507  47.3523293  21.8908501
  38.2940636  46.8788528  22.1325340  37.1516228  46.8706894  21.1396885
  64.4728088  19.5078621  40.7177620  64.1997910  18.7727757  41.2667122
  64.0608063  20.2727737  41.1195068  53.9709053  60.9700089  86.6289444
  53.5862427  61.6463356  86.0714111  53.3007278  60.7943459  87.2894287
  18.4679832  65.9960861  23.6386395  19.1254101  65.3462372  23.8870678
  17.9472694  66.1251373  24.4313774  67.6302261  59.4965630  20.8882675
  68.5131073  59.7403679  20.6102238  67.1811295  60.3316879  21.0190697
  19.2533569   9.2583084  64.4487534  18.4641399   9.7734747  64.2815018
  19.3209019   9.2265692  65.4030380  28.7111683  45.3103905  41.5511055
  28.7694435  45.0185966  42.4608803  29.3678493  46.0030899  41.4792137
  42.1910210  48.2576141  36.0096474  41.3649902  47.7772522  36.0657883
  41.9525948  49.1663170  36.1930809  19.5467415  14.6031237  22.7613220
  20.3965378  14.9196415  23.0677471  19.7525845  13.8192978  22.2519321
   5.4917550  21.7846184  52.1826172   5.9348593  21.1089249  52.6957703
   5.3385229  22.4958324  52.8046494  79.4157486   9.7645721  71.1305389
  78.6604233  10.1317663  71.5897675  80.1672363  10.0125217  71.6690674
  72.3785248  58.1029930  74.9485092  72.9145889  58.8371582  74.6487427
  72.2202454  58.2845459  75.8749084  63.0691528   0.9650497  50.3179283
  62.6332512   0.1280338  50.1578484  62.6361504   1.5780720  49.7238388
  74.2692032  10.0605936   7.8069758  73.6584778  10.0377274   8.5436754
  75.1352997  10.0759583   8.2142467  27.0800419  59.5631027   0.4173483
  26.3126297  59.4347572   0.9748780  27.6545868  60.1333008   0.9282331
  73.6992722  34.9930992   4.7125206  73.0481110  35.6938171   4.7473845
  73.9994431  34.9900818   3.8036087  47.6047935   2.8124464  80.0627213
  48.0255241   1.9774524  80.2676620  48.3102112   3.3565123  79.7125626
  22.1188717  35.3775711  19.3393917  22.2918625  36.3029594  19.5124950
  22.9480686  35.0377502  19.0029621  85.1766586  24.3206081   2.0812147
  84.5148849  24.9965687   2.2274101  86.0117950  24.7797508   2.1704466
  46.9336166  25.1028576  16.6778946  47.0992775  25.4536362  17.5529613
  46.5258865  24.2511196  16.8345165  42.7814827  31.4673538  73.0386810
  42.5084152  32.1366463  72.4112091  43.5718040  31.0874500  72.6548920
   2.7580318  33.6338921  61.9465599   2.5952532  32.9809151  62.6272621
   3.3866401  33.2152519  61.3584938  53.8538933  53.9393921  74.0670853
  54.1796875  54.8388672  74.0992432  54.6428146  53.4010162  74.0039062
  13.0141277  43.8190460   3.6246605  12.9717350  44.2164192   4.4944463
  12.8082838  44.5352097   3.0238535  78.5690613  27.1998940  54.2877769
  78.6954575  27.9969349  54.8025436  78.6630936  26.4883289  54.9210739
   4.4059553  10.6450338  82.5070724   5.1802821  10.1044149  82.3509293
   3.6823933  10.0199528  82.5513763  45.2250443  11.1851692  25.4311409
  45.8722725  11.1669741  24.7261639  45.6617546  10.7584124  26.1682949
  34.4147568  65.0928116   0.9346195  34.1150932  65.6282501   1.6692852
  33.7751999  65.2574081   0.2417232  85.8189240   6.7499666   7.7489796
  85.8615341   5.8101697   7.9256091  86.7183990   6.9935904   7.5302873
   0.0328415  16.3670750  31.7284279   0.4661748  15.6395864  32.1747627
   0.2551677  16.2481194  30.8050365  83.8673019   9.2001562  49.8688240
  83.4385910   9.0167370  49.0328827  84.0843048  10.1315145  49.8274345
  27.3311787  25.2422848  11.2931376  27.5105457  25.3645973  12.2253923
  27.7428894  24.4054108  11.0778036   3.9001896  38.1647415  60.7554321
   3.3694403  37.9209061  59.9970894   4.4384375  38.8935776  60.4466896
  65.4846954  48.2592506  79.6354294  65.7370377  48.8563881  80.3396912
  65.3475113  47.4184875  80.0719223   4.2282839  29.1550179  75.0155792
   4.1347980  28.3478489  74.5096359   4.7077260  29.7468834  74.4358673
  68.6931458  54.2688751  39.7937050  68.6706619  53.6685410  40.5389023
  69.1696167  53.7905998  39.1151314   8.7011156  38.3620682  14.2672806
   9.4054737  38.8878937  13.8883104   8.1466827  38.1315002  13.5218449
  58.2346306   3.4531176  85.6948395  57.3932724   3.7946723  85.3920364
  58.5704956   2.9509933  84.9523468  13.9403667  15.9584856  63.1981049
  14.2360086  15.2078257  63.7132111  13.6489029  15.5799332  62.3686600
  61.2169609  43.7168236  66.6410370  60.3538322  44.0009193  66.9419250
  61.8096199  43.9555855  67.3537598   5.8109498  44.7537498  70.7642517
   5.5511637  45.6637573  70.9078903   5.1704273  44.4179382  70.1371994
  65.8912888  41.6543045  49.1934853  65.0437164  41.5457420  49.6248322
  65.6728516  41.8597641  48.2844734   0.7947298   6.1392412  58.0945740
   1.1615033   5.7816858  57.2859573   0.2767043   5.4221673  58.4602051
  76.7127991   8.0862331  27.5939903  76.4141235   8.9766493  27.4091129
  76.6622772   8.0096388  28.5467815  62.8307800   6.6710801   4.7313972
  62.3809662   7.4487238   4.4009867  62.1960831   5.9628830   4.6225286
  79.1672668   5.8346314  82.5930023  79.8693008   5.2287602  82.3557281
  79.2405548   6.5467792  81.9576263  30.9770756  23.0100555  70.3521957
  31.8071270  23.2753258  70.7482834  30.8942108  23.5640392  69.5760117
  71.9994812  57.3994255  70.6320572  71.4087296  58.1199875  70.8512039
  71.8996964  56.7796745  71.3546829  20.7809563   5.7911425  19.0580196
  19.9693890   5.8041463  19.5653877  21.4186420   6.2379832  19.6147232
  58.7217827  38.4401131  42.4466629  58.2620659  38.8681526  41.7243919
  59.0754623  39.1617584  42.9666367  71.6208649  65.0781784  38.9401512
  71.7151489  65.3729630  39.8459320  70.6869888  64.8908234  38.8452301
  56.6276093  28.6499939  56.8708496  57.5214806  28.9487629  57.0380898
  56.3202591  29.2038860  56.1532326  12.6940622  24.0722675  82.6213608
  12.2345934  23.2394066  82.7284164  13.0249062  24.0495949  81.7234421
  57.5411453  70.1173630  21.2306480  57.0034714  70.0595779  22.0204582
  57.5600700  69.2238388  20.8878860  55.9158745  27.9964523  45.1821289
  55.9931984  28.5974369  45.9231224  56.1877861  28.5142593  44.4243889
   9.5533419  36.1786690   8.0125265  10.4129038  35.9953079   8.3916883
   8.9306154  35.8415031   8.6565466  19.5821457  30.8087540  78.5871887
  19.4824810  29.8637505  78.4720154  19.0748367  31.1920624  77.8716888
  12.1391010  39.8553200  75.1860428  12.0120058  38.9162941  75.0507431
  13.0889311  39.9641266  75.2331161  63.1892548  21.4159298  73.1517334
  63.5238342  20.6523857  73.6221466  62.8383865  21.0595970  72.3355484
  46.8438454  59.1850471  43.6545830  46.9442062  60.0339127  43.2237854
  46.7997131  59.3937454  44.5877113  74.3430939  53.7699928   1.1401944
  74.0714111  54.6877785   1.1304348  74.7144852  53.6208878   0.2706751
  71.6742401  17.0704422  63.2215118  70.7596893  17.1167908  63.5002289
  71.6824493  16.4012260  62.5371780  43.8631554  24.9417286  85.3954086
  43.1300201  24.3314648  85.3158951  43.4666328  25.7520885  85.7152786
  21.3458729  39.1483574  39.0066795  22.2086182  39.5094566  39.2104149
  21.1532631  38.5612030  39.7376976  23.5571880  65.6911926  43.4568748
  23.0088482  65.7867966  44.2355995  24.2560368  66.3344269  43.5755959
  38.7832565  66.4941940  87.8304596  38.7275963  65.8322067  88.5195999
  38.4666481  67.2974091  88.2437820  31.7763901  22.5249310  11.9245319
  32.1851692  23.0111351  11.2084761  32.2518654  22.8053341  12.7065353
   6.4272594  58.0674324  82.9478531   5.6634407  57.7855682  82.4445038
   6.9792576  57.2873421  83.0025177  70.3073883  53.7398911   4.1245222
  69.9428940  53.3498573   4.9190345  70.9390182  53.0937958   3.8085647
  13.7314539  71.1268692  13.5473166  14.2926426  71.8618851  13.3002300
  14.1698275  70.7339935  14.3021049  55.1847267   0.4748599  76.8723297
  54.2519455   0.6001567  77.0468521  55.3078766   0.8027083  75.9814987
  32.1233063  41.8421936  80.1410599  31.7144775  42.2902603  80.8815536
  32.7467346  41.2365990  80.5420914  13.7162323  55.7329063   9.9225321
  13.9986982  56.3127365   9.2152538  13.2540779  55.0216255   9.4789953
  79.9801483  56.2019310   3.8472099  80.0499115  56.0221405   2.9096386
  80.7397385  55.7647514   4.2320900  35.6984444  15.1145563  20.5614204
  36.2138901  14.3625393  20.8530006  36.2538872  15.5492086  19.9142761
  51.7195320   4.5671740  62.2079620  52.3464661   3.8549755  62.0816383
  51.2636490   4.3438382  63.0194588  45.9311981  51.8539391  34.4768410
  45.8496132  51.6700363  33.5410233  45.6077499  52.7495804  34.5740166
   6.5671048   8.8458385  76.5873871   7.2941842   8.8657885  75.9651413
   5.9932022   9.5591898  76.3081055  78.5969849  54.8569870  69.5232773
  78.9138031  53.9557343  69.4633102  77.8247070  54.8024330  70.0861664
  78.8486099  52.2977982  21.3289490  79.2531815  53.0964088  21.6677303
  78.0233154  52.5922470  20.9436913  52.4036865  71.1347885  11.7160568
  52.6915436  70.9320297  12.6061478  51.9051170  70.3642349  11.4442005
  72.3669968   4.3428168  14.5523911  72.9327621   4.3338346  15.3244410
  72.0951920   5.2564688  14.4652510  13.9854708  54.3475761  62.5466576
  14.3906813  53.9795609  63.3318939  14.7125387  54.7402687  62.0635452
  42.2081184  38.2170677  21.1954079  42.3545494  38.0951347  20.2573662
  41.2935066  38.4916077  21.2613487  70.7585602  21.4489250   0.0656900
  70.4609833  22.3308945   0.2888648  71.7076111  21.4785557   0.1867747
  38.0260620  62.0567589  34.7210007  38.9619179  61.8617897  34.6721001
  37.9451408  62.6586494  35.4608765  11.8800697  40.2901955   7.0658283
  11.6653681  41.1632118   6.7372227  11.1850843  39.7278938   6.7237115
   0.3914770  32.6045036  65.0195007   0.5144676  31.9692478  64.3141251
  -0.3649768  33.1231232  64.7455521   5.6201453  14.2438545  29.4678593
   6.5592151  14.1259193  29.3247814   5.5540504  14.5748358  30.3635807
   1.4027534   1.9264895  59.8201866   1.8231069   1.8725176  60.6784515
   2.1124728   2.1547191  59.2198181  55.4770660  59.0346680  76.0715256
  56.4207802  58.9269905  75.9530487  55.3742828  59.2407570  77.0006104
  79.5333481   6.6438937  87.8562698  79.1976929   7.5197530  88.0471649
  79.4750595   6.1780024  88.6904068  53.9753952  67.1928558  76.1230698
  54.0884705  66.9245071  77.0348969  53.5058861  68.0253906  76.1748810
  18.6139908  69.9944687  28.9099369  19.2680511  70.6890182  28.8322887
  17.8631630  70.3156128  28.4105816  44.3309517  61.1780128  46.9677887
  43.9724503  61.7003021  46.2502060  45.1347427  60.8002739  46.6107712
  46.1664391  23.6965065   3.2333553  46.7467461  24.4277725   3.4448376
  46.3918114  23.4647026   2.3324077  38.5103035  42.3670616  62.9616814
  38.8573265  42.4713516  63.8476448  37.5656929  42.2723465  63.0840530
  66.5490112  55.2812920  41.3317719  67.1377182  54.7756958  40.7713852
  66.1663971  55.9362907  40.7479820  58.7799606  55.5361176  48.2859230
  59.2706146  56.3021507  47.9881287  57.8864708  55.6897469  47.9788284
  85.2378387  33.5973816  85.1607285  86.0048676  33.9648323  84.7215500
  85.0239792  32.8140640  84.6538620  20.9208145  63.0579910   3.0237427
  20.5985317  62.4251175   2.3819985  21.1677990  63.8223419   2.5031676
  48.4974480  51.5301476  15.0712023  48.9884377  50.8671722  15.5566111
  48.3033791  52.2069855  15.7196312  39.1550179  28.4590492  18.8410530
  39.4068565  29.0604820  18.1402779  39.1824608  28.9921436  19.6355915
  81.9856949  27.1501999  13.0515022  81.4859848  26.8198872  13.7981024
  82.7987213  27.4797535  13.4344034  11.5787468  26.8395252  10.6718225
  11.5199966  27.7637787  10.4298820  10.8171530  26.4344616  10.2569380
   3.6225808   3.2334645  83.9902573   2.7848496   3.3424633  83.5401917
   3.9883912   4.1169863  84.0327225  34.8793831  49.6813354  50.2012901
  34.6666756  48.9388466  49.6358681  34.1271133  50.2675972  50.1198959
  50.2018623  19.8332005  37.3948021  50.1367989  19.8812351  36.4410210
  49.7677612  19.0112934  37.6233902  23.6787987  23.9182739  77.8428345
  23.8415279  24.3123188  76.9858170  23.0865231  23.1883202  77.6622620
  84.1617203  70.9656601  37.9036140  83.4153519  70.7420959  37.3475685
  84.9126282  70.5584488  37.4717102  10.6457567  20.1188831   7.1729598
  10.0191116  19.5585117   7.6307063  10.8064299  19.6702251   6.3428264
  85.8996201  50.6647415   7.2507949  85.5823517  49.9502525   6.6984591
  86.1985397  50.2338524   8.0515547  54.2784615  23.8508492  77.4679108
  54.4116440  24.7329807  77.8148117  54.3658714  23.2781219  78.2298737
  45.1221085  28.0828133  17.5613403  45.1486244  27.6936550  18.4354591
  45.8817062  28.6646690  17.5350647  17.1799488  21.4681835  56.1029510
  17.2645664  21.2627811  57.0340157  17.6252213  22.3094559  56.0018387
  13.8405256  31.6382885  14.6620531  14.7028027  31.2247963  14.7036810
  13.9992714  32.5488358  14.9109259  51.6871376  29.2145996   4.9142475
  52.5092583  28.7361431   4.8073335  51.3113289  29.2446289   4.0344191
  34.9281120  22.8665199  74.4256058  35.7303352  22.6445084  74.8982315
  34.4239998  22.0529060  74.4140091  83.4658585  53.3124542  60.8912544
  83.7570724  52.5218430  60.4369888  84.1569748  53.4904938  61.5291328
  58.7870789  41.2604942  65.5911255  58.4649200  40.4101601  65.2921600
  59.7403221  41.1756210  65.5721588  18.6393967   5.1163449  74.3357086
  18.0181866   5.2487307  73.6196060  19.2865925   4.5064087  73.9816666
  74.7623825  39.7618904  59.6398697  74.4523315  38.8901253  59.8850784
  75.7089691  39.7269669  59.7776451  71.3709946  59.6701851  82.5851440
  72.0872574  59.7481308  81.9549637  71.7909927  59.7733421  83.4390717
  28.8387413  47.2424965  60.7470703  28.5933590  47.1019936  59.8325882
  29.1696262  48.1403656  60.7710342  55.3902206  23.1103477  86.5073700
  55.1422195  23.9030018  86.9832153  55.7673225  23.4309406  85.6880722
  63.4436989   1.0457802  16.4199543  63.0240822   1.2059513  15.5746737
  62.8766670   1.4826496  17.0554485  21.6938477  18.3329430  58.0304146
  20.8993073  18.0136433  57.6026421  21.5853958  19.2835732  58.0582161
  68.6204834  19.5802994  80.9427872  68.8742294  19.0924187  80.1593246
  68.0620193  20.2854214  80.6154480  19.6459389  62.8543015  20.9113979
  20.6022015  62.8692322  20.9510174  19.3783836  62.4479561  21.7357349
  66.6623993  66.3147812  68.2345047  67.6122131  66.2732925  68.1233292
  66.4014435  65.4097519  68.4049606  46.8185196  62.0541267  24.3726997
  47.1843185  62.5176735  25.1260567  47.4839783  62.1432037  23.6904526
  26.4108868  35.0749054  72.1758881  25.5690498  34.8229828  71.7963104
  26.1855145  35.4668465  73.0195847  78.1164474  59.9410973  51.9263153
  79.0120468  59.6044807  51.8976097  78.0844498  60.5964737  51.2294006
  22.2062607  50.9987106  14.5726089  21.5889969  50.6452866  13.9320555
  22.4663162  50.2417336  15.0975780   9.1133175   6.3696914   4.2014871
   8.7127724   6.1909723   5.0522838   8.3792133   6.3735952   3.5872338
  39.5882568   1.2527230  10.4514418  40.3490257   1.8329647  10.4794531
  38.9231262   1.7046125  10.9706974  44.6529465  46.9324570  69.0877380
  44.7191315  46.0662117  68.6858978  43.9227829  46.8563805  69.7019958
  29.2878933  64.8540649  16.9335880  29.5617085  63.9440079  17.0478344
  30.0478210  65.2855988  16.5430508  10.4581127  29.7238960   9.8914194
  10.2467909  30.0597992  10.7624788   9.6311369  29.7662468   9.4112635
  64.6129684  42.0907135  22.9020538  63.8931999  41.9335327  22.2909393
  64.2243042  41.9639702  23.7675648  84.4673386  19.9558525  37.1033554
  84.4353714  20.7066994  37.6961784  85.1719894  19.4077835  37.4487839
   1.2291787  21.8087463  74.8173141   1.1514889  20.8813229  74.5935211
   1.1593337  21.8315029  75.7716904  10.6291456  55.7423401  28.9503365
  10.3751926  56.2666283  28.1908207  11.5621204  55.9230309  29.0649643
  22.4951191  45.1894798  34.1483307  21.6365662  45.4122963  33.7885056
  22.3043613  44.8127785  35.0073624  72.8516006  67.8572311  22.4092674
  72.7084961  67.0881729  22.9609089  71.9791794  68.0895538  22.0912418
  67.2393646  16.4059200  20.0003567  66.5521622  15.8038750  19.7148170
  67.6296768  16.7267838  19.1873798  75.2214050  19.2935791  75.9947281
  75.5425720  19.9532261  75.3799515  74.5139847  19.7315292  76.4679947
  53.1291161  62.5870399  27.2154121  53.4243660  62.8082008  28.0986710
  52.1773682  62.6830215  27.2499638  25.0337791  62.9706154  44.5463715
  25.2080936  63.8789558  44.2998619  24.8910618  62.5197563  43.7141495
  76.3201752   0.4683797  82.0339813  76.7918167  -0.3317232  81.8024139
  76.9232864   1.1761500  81.8069229  72.9594269  55.8650780   1.8750417
  72.5031357  56.0071030   2.7044168  73.4322662  56.6825333   1.7187730
  36.1229782  36.0522728  85.9960861  35.6867561  36.7772751  86.4436569
  36.7859688  35.7513580  86.6174774  40.4292488  61.7794418  52.0053062
  39.8867645  61.9227486  51.2298012  40.9877853  61.0375748  51.7731323
   1.4520850   0.7553501  19.7473068   2.3213384   0.8418692  20.1386433
   0.8693998   1.2106674  20.3550854  30.4757099  66.6680756  52.3538971
  29.9261951  66.5892563  53.1336708  30.4412422  67.5979919  52.1296005
  16.7696743  34.0307770   5.9828758  17.3910046  33.5238266   6.5055437
  15.9639263  34.0282021   6.4995899  84.0444794  69.7699814  55.3222160
  84.6399536  70.2346573  54.7342377  84.0442505  68.8687668  54.9996643
  61.9027710  38.9504051  15.7688932  62.3487892  38.4209404  15.1078596
  62.6038551  39.4467773  16.1911774   3.5677764   7.7948155  30.5544128
   4.5218153   7.8023863  30.6317692   3.3752155   8.4661894  29.8998833
   8.5480728  69.3786697  39.1507759   7.7601542  69.9220963  39.1609879
   9.2583380  69.9825363  39.3678131  39.3109550   7.9152474  11.6914349
  39.5744705   7.1750188  12.2381105  39.8715057   7.8533211  10.9180117
  53.9874115  12.9181395  39.1751213  53.9721756  13.7180271  38.6495934
  53.7424469  13.2048721  40.0548973  55.0589027  53.3309708  42.4345551
  55.2917023  53.3448029  41.5061989  54.3368340  53.9548302  42.5097313
   3.6429708  67.2411957  46.9350967   4.3492842  67.7655258  47.3124924
   3.8203485  66.3495026  47.2345161  85.3131027  18.0291882  53.7910156
  84.6353531  18.7010384  53.8652153  85.6571884  18.1330357  52.9038544
  63.6975784  61.3326454  75.6702271  63.7583160  61.9884377  76.3648376
  62.9502258  61.6122551  75.1415329   8.7997608  54.1456261  38.9135361
   9.5550795  54.1042290  39.5000648   9.1720972  54.0528183  38.0366211
  12.4512615  40.0242462  40.2226486  13.4059258  40.0588837  40.1622467
  12.1885509  39.4261208  39.5230331  56.2861977   8.9364195  70.0354309
  56.2311211   7.9814730  70.0711441  57.1628799   9.1381645  70.3624725
  64.8071136  64.7920227   0.3019247  64.0463409  64.9603424   0.8579181
  64.4755936  64.2211761  -0.3912284  44.0335960  53.4076347  58.1560555
  44.2443199  54.3296738  58.3032799  43.0768585  53.3778381  58.1548462
  69.1550598   1.3750168  30.4337654  69.2787094   2.0139265  31.1357193
  69.5213013   1.7983688  29.6573181  63.9590950  43.3110657  56.3451195
  63.3412209  43.6588974  55.7020950  63.5401230  42.5157585  56.6740341
  65.5999680  25.2081165  16.4071121  64.8944016  25.2093201  15.7602654
  66.3263168  25.6527023  15.9700842  56.6163940  33.7741547  29.6769390
  56.0435066  33.4343872  28.9894867  56.6328201  33.0825996  30.3385391
  85.8368149  13.1861124  53.2174759  85.4764023  14.0039110  53.5603104
  85.1779785  12.5256042  53.4317017  57.6819191  69.4620972   7.0210018
  56.8325081  69.0356445   6.9075818  58.0373840  69.0784683   7.8226914
  85.7081909  22.3558006   8.8598347  86.0609283  21.5855045   9.3053141
  86.4473953  22.7033310   8.3608103  20.4442978  52.8434105  85.9100266
  20.7295742  52.0907364  85.3920212  19.7339420  53.2307587  85.3985748
  27.6080990  34.6085358  78.0923004  27.8200378  35.0038795  77.2467117
  28.4363251  34.6109848  78.5721588  86.0053711  10.7142010  34.3310623
  86.3314743   9.8171215  34.2593956  85.6382751  10.9052715  33.4679489
  56.6121635   1.9942638  31.9470921  56.7388802   1.3425139  31.2576008
  55.8011894   1.7292593  32.3810539   6.5289087  69.5564575  69.6950150
   7.4310579  69.8694687  69.6287842   6.1174178  70.1441116  70.3287125
  62.0417252  68.6762619   3.9187460  62.1930923  68.4792023   2.9943612
  62.8037491  69.1925125   4.1814880   9.2816429   6.0116820  49.9841843
  10.0550261   5.4476881  49.9796486   8.5420694   5.4040146  49.9859581
  29.2000961   8.8996677  13.0703077  29.2717400   8.5346451  13.9522705
  29.8480854   9.6038647  13.0491762  52.3860207  51.3672829  73.1931229
  52.9802589  52.0158806  73.5705261  51.7028275  51.2551308  73.8541031
  56.0519447  32.3416405  59.7088356  56.3860512  31.5722218  60.1699181
  55.5469437  32.8160706  60.3692322   1.0373601  23.8852158  61.3943138
   0.8929060  23.3586254  60.6081429   0.4433325  23.5116310  62.0453110
  38.5619926  67.2946625  47.6639977  38.0188446  68.0169144  47.3484459
  39.3092270  67.7220459  48.0825844  46.7132492  38.2932510  83.0965118
  46.2261963  38.3397636  82.2738037  47.3263741  37.5689468  82.9712524
  15.9870005  28.7171535  24.6821461  16.4129314  29.4170246  25.1771145
  16.5910854  27.9773331  24.7452202  34.3788528   9.8901463   2.2852719
  35.2371292   9.9110107   1.8620014  33.8354073  10.4717321   1.7536190
  11.9331017   2.6118529  66.1656342  12.4274130   1.9368899  65.7005386
  11.0158463   2.3811021  66.0185623  30.2883015  34.1865158   3.4205487
  29.4430542  33.7642250   3.2673864  30.0785770  35.1159477   3.5122051
  86.3516617  24.3156681  70.4150238  86.2190704  24.6725655  71.2932510
  85.8520279  24.8973904  69.8421402   0.2364369  25.0917854  37.1467285
   0.3115967  24.5387440  36.3690872   0.9646982  24.8199310  37.7052650
  12.2765331  35.6173096  32.2497292  12.8888655  35.1458817  32.8145638
  12.6521873  35.5407104  31.3726597  61.4193764  69.0009460  78.1439514
  61.6810379  69.6632843  78.7835388  60.5133095  68.7927322  78.3718033
  59.6158485  55.5015335  25.5249271  59.6279449  56.4578094  25.4846439
  60.4495163  55.2349243  25.1374340  23.3634090  55.9215736  69.6603928
  24.1914692  55.4724731  69.4905167  22.7552185  55.5530205  69.0196838
  -0.1043581  39.8461761  10.1818390  -0.2904287  40.7612991  10.3919773
   0.6023217  39.6020889  10.7795486  52.3160172  32.8726234  61.0102081
  51.5614471  33.4438553  61.1535645  52.0727310  32.3399200  60.2530632
  54.6640892  70.8886261   9.2843580  53.9152718  70.2924042   9.2789679
  54.9181213  70.9457703  10.2054615  68.9674683  43.4502258  37.9966125
  69.1815186  44.3819580  38.0444565  69.3041840  43.1705208  37.1453667
   6.8683105  68.8162079  30.0348587   7.6409431  68.8100204  30.5998650
   7.1539354  69.2727280  29.2435074  58.5744400  13.4694786  80.7827911
  59.4726067  13.7863150  80.8784180  58.1162186  13.8134127  81.5495911
   8.4129753   9.6427031  16.3157158   8.8777657   9.0390053  15.7362757
   7.7734470  10.0740433  15.7489882  85.0500412  55.1973991   5.7098918
  84.5098572  54.4620171   5.9991074  85.2824402  55.6559906   6.5173059
  79.9654770  55.6949120   1.1175003  80.7438278  56.0601311   0.6967622
  79.2609253  56.2991295   0.8835012   2.2367887  15.5254154  26.6630898
   1.9847177  16.4474449  26.6125469   1.4758515  15.0897856  27.0470581
  82.3841705  62.1409874   6.7202835  82.6838684  61.2487640   6.5460634
  81.9493408  62.0857239   7.5712242  37.5858459  57.4910126  51.0585747
  37.9582863  57.1333923  50.2525787  37.7078743  56.7976151  51.7070656
  67.4729614  52.4944420   8.0160360  66.9206696  52.1510620   7.3136849
  67.9826279  51.7396851   8.3106833   0.5760504  54.2884941  72.4634628
   1.1651326  54.0019646  73.1613998   1.0677925  54.1346436  71.6567764
   6.6545091   2.9783275   4.6585727   6.1028414   3.4508767   4.0352015
   6.9810662   2.2251120   4.1663756  23.1237431  32.5516319  12.9624424
  24.0266819  32.6674805  13.2582645  22.5906200  32.8851891  13.6840734
  14.9518766  21.0466328  15.7245264  15.8230724  20.7083321  15.9314108
  14.7985210  21.7290287  16.3780174  70.8897247   3.9781899  61.6201324
  71.7950211   4.0805330  61.9137344  70.4668655   4.8041172  61.8552208
  70.0580902   8.7738104  61.3986549  69.7754440   8.6363344  60.4945297
  69.8867722   9.7007761  61.5648346  80.8946762   4.1789379  10.0036249
  80.2926865   3.9391334  10.7081385  80.8996735   3.4176881   9.4233618
  73.3757477  42.1389732  19.3562622  72.8504791  42.2261276  18.5608158
  73.5654755  41.2027092  19.4166088  70.2407455  12.7189178  81.5833893
  70.0256805  12.9133530  82.4956284  71.1976013  12.7181053  81.5578232
  52.0248375  34.4248085  10.8374119  52.7541847  33.8056870  10.8685961
  52.1822968  35.0176125  11.5722742  82.1985626  62.8276596  81.9707413
  82.7351151  62.3878632  81.3112564  82.8165512  63.0674782  82.6612473
  59.6778069  13.9536247  39.8691216  59.1110039  13.4131870  40.4194756
  59.7245903  13.4819241  39.0375328  75.3644257  57.6903343  40.8713493
  75.9222717  58.4415550  40.6695709  74.7085571  57.6849289  40.1741829
  60.4418564  35.2812386  52.0917473  60.6607895  35.5078735  51.1879005
  59.7847328  35.9281769  52.3484421  19.4594193  51.3675652   1.9258193
  19.5785713  51.1091995   2.8397570  19.7850380  52.2668304   1.8867351
  63.6809082  54.8304863  28.9742775  63.9171257  53.9092636  28.8657379
  64.3081894  55.3045197  28.4283409  64.3796005  69.1725845  18.4311447
  64.6219406  69.3477325  19.3404446  63.4226265  69.1527710  18.4378796
  50.2135963  59.1541290  86.6288300  50.4885597  58.2383766  86.6738358
  49.2610130  59.1228142  86.7173691  52.7145882  17.5220470  23.6088047
  52.6849327  18.0944901  24.3753948  51.7970963  17.4023056  23.3636589
  46.2678947  41.0125084  62.7528191  46.5562630  41.8666000  63.0746880
  47.0714073  40.4959564  62.6913490  81.7901382  18.0165577  17.4623337
  80.9287643  17.7041245  17.7391968  81.6030350  18.7701092  16.9025269
  50.3802605  43.2926292  88.4557495  50.5355988  42.5400467  89.0264664
  49.4690208  43.5345688  88.6211014   1.0159794  57.2789192  24.0903549
   1.6790910  56.8930092  24.6627064   0.2561204  57.4088707  24.6577682
   1.7172623  11.8789330  84.8334732   1.7541550  12.1535540  83.9172592
   1.6939296  12.6980009  85.3282623  68.3269806  20.2080441  38.3833008
  68.6850815  19.8816700  39.2088203  67.8608170  19.4591465  38.0117188
  25.4077682   6.8007312  79.2974930  24.5096474   7.1249886  79.2306519
  25.3120174   5.8718119  79.5076675  62.9079094   2.1723773  26.7957287
  62.3978500   2.2393374  27.6029377  62.8402100   3.0399253  26.3969688
  69.8620224   9.2401390  30.8166447  69.2114716   8.6712046  30.4051514
  70.1556091   8.7513285  31.5854778   7.6091866  29.4469719  36.7368355
   8.1725874  29.2290535  37.4793472   8.2106752  29.5346375  35.9974022
  15.6951828  29.5240974  80.2693100  15.2732325  28.7065887  80.0049820
  16.4340763  29.2478561  80.8114929  44.5337372  31.9711475  19.3404999
  43.6664314  32.2133751  19.0159397  44.3694878  31.5955563  20.2054768
  83.1643753  12.4330759  78.7620087  83.8528290  12.5353289  78.1048889
  83.3116379  13.1516342  79.3769989  84.1656113  17.2557545  17.3787613
  84.4592819  17.5452480  18.2425804  83.2359314  17.4822159  17.3535252
  81.2291641  71.7174072  14.1962280  80.8292923  71.0901947  14.7986746
  82.0774384  71.9207001  14.5903597  60.6649094  38.4691391  57.7015877
  60.2076988  39.0258484  57.0713005  60.2369270  38.6526566  58.5378799
  22.7036858  55.3259811  79.8409271  23.4138279  55.3318176  79.1991348
  22.0006638  55.8248024  79.4247818  85.3316650  62.8649902  14.9199324
  85.5540695  62.4415321  15.7490597  86.1771698  63.0874596  14.5302486
  52.8863983  33.8109016  19.7970428  52.7566376  32.9134636  19.4904480
  53.5198364  33.7311249  20.5102234  30.3783283  40.0194016  40.8977089
  29.4361382  39.9960098  41.0649261  30.5317383  39.2960548  40.2898712
  82.2109756  56.9992065  70.1242294  82.0077209  56.2039108  69.6318588
  82.2115631  56.7204132  71.0399323  14.8941450   2.3697348  21.7122803
  15.7035789   2.3037446  21.2056313  15.1269493   2.0389233  22.5798035
  26.7184734   2.1843016  21.1745338  27.6630516   2.0664432  21.0739594
  26.4249573   1.3925108  21.6252518  67.7331619  50.9054794  86.4730988
  68.0091019  50.8474197  87.3878250  68.1989136  51.6682739  86.1303864
  62.4459991  67.7382278  69.8065643  61.9320755  67.4367447  70.5557098
  62.1257896  67.2163162  69.0708313  23.8861694   4.9138989  70.4457932
  24.5553169   4.6233263  69.8260880  23.2576752   5.3979526  69.9101486
  34.4445457  13.0818090   3.1370277  35.2879105  13.3370457   2.7631047
  33.9997292  12.6160030   2.4289346   5.9710250  36.8271942  73.2963104
   5.2031646  36.3411751  72.9956284   6.1543555  37.4463844  72.5897522
  33.4702148  61.3986053  41.6010551  33.6561432  62.3365936  41.5581627
  34.0714684  61.0060616  40.9681015  42.7423592  14.6664724  85.9206848
  42.9607277  14.8719435  86.8297119  42.6998978  15.5182934  85.4861450
  44.4022789  67.8151855  64.6982193  43.7155800  67.1508713  64.6401901
  45.0036201  67.4805756  65.3635406  79.5636902   2.6521997  33.3145752
  80.0589981   1.9014574  33.6421204  78.7792587   2.2688565  32.9222145
  79.2813950   6.5886645  34.1854439  80.1424103   6.4908948  34.5920486
  79.2212296   7.5200434  33.9729691  64.3232803  54.8302650  35.8271484
  64.3688660  55.5682602  36.4350243  65.1205063  54.9026413  35.3023415
  60.8501740  29.7814312  76.5367584  60.3084450  30.5278378  76.2805634
  60.8278694  29.1977901  75.7784042  22.0383396  35.5628662  72.1635284
  22.8616371  35.6170197  71.6782684  21.5421448  36.3306770  71.8798141
  55.7277260  70.3313446  34.6512260  55.0061417  69.9611282  34.1428032
  56.4272041  70.4654922  34.0117226   1.5941521  46.3157310  47.0064011
   0.6463258  46.1821022  47.0057564   1.8767073  46.0230637  47.8728523
  82.2948380  59.3531342   6.0028572  82.9315491  58.9403267   5.4194026
  82.6782455  59.2663307   6.8756104  28.9678268  63.0684929  63.2638626
  28.7546005  63.7395973  62.6154900  28.8187275  63.4948502  64.1077957
  54.9401474   6.0556674  26.4369602  55.8763847   6.1643262  26.6039562
  54.5138855   6.5954752  27.1026478  33.7956505  20.3578072  74.7923737
  33.1197472  20.2496452  74.1232758  33.5500336  19.7418861  75.4826965
   3.3996542  70.6755371  60.9722443   3.3485861  71.5794144  61.2831116
   4.2184367  70.6381989  60.4778404  55.2362442   0.7211297  85.6466980
  54.5842857   0.8698580  84.9618149  54.9696655   1.2999808  86.3609085
  83.5241089  71.5102768  35.1118851  84.1150665  70.7977142  34.8684578
  84.1045532  72.2161255  35.3966522   9.9137344   1.9220133  10.4154634
  10.5065746   1.9910083   9.6671238  10.0394564   1.0300307  10.7391815
  54.5778351  59.9245834  26.4975262  55.4230042  60.0155830  26.0574837
  54.1890144  60.7980881  26.4523735  45.3632927  36.3609200  33.4517860
  46.0009460  36.1929131  32.7579536  45.4015121  35.5814743  34.0060768
  56.3016701  23.5868435  80.0000992  55.5047112  23.1232662  80.2573471
  56.8134232  22.9354534  79.5204773  36.6910667  68.4487228  54.7548904
  37.6246719  68.2789841  54.6291847  36.3029213  68.3034973  53.8920517
  16.6099453  49.9016533  81.0238571  16.2495708  50.5618172  80.4317856
  17.4311066  50.2821579  81.3355331   8.0279064  40.8145103  12.0809031
   8.2850533  41.2573776  11.2722139   7.2262144  40.3442879  11.8519678
  45.7919807  66.3218231  57.1876717  45.9491615  67.2515793  57.3522224
  45.5259781  65.9698715  58.0371475  43.1406288  10.8458033   1.4536493
  42.9502563  10.0936375   0.8930804  43.6093330  10.4748087   2.2012515
   2.6503575  34.9109383  42.3784752   2.8300979  35.6611595  42.9451294
   3.3282716  34.2734909  42.6028061  25.4207668  64.7283783  86.5685120
  25.3322296  65.6145172  86.2175751  26.0717373  64.3112183  86.0042038
  38.2351952  28.2137375  12.5458832  38.2576752  28.5886955  13.4263000
  37.8314056  28.8934727  12.0063038  16.3454418   6.6901102  23.5886574
  15.6952105   6.3423524  22.9783325  16.6090965   5.9345717  24.1138992
  10.2688169  34.7953110  42.6348610  10.1289368  34.0501671  43.2191734
   9.4018545  35.1890793  42.5371094   8.6022482  40.8322334  15.7631674
   8.6282358  39.9110718  15.5043011   7.8593659  41.1956100  15.2811737
  22.9320755  46.2859764  88.3656921  23.2881088  45.8066101  87.6175690
  22.3442421  45.6623230  88.7919998  30.5594597  48.8490219  63.0829659
  29.7217464  49.3090935  63.1358948  31.2122784  49.5464020  63.0219460
  40.3410568   8.3045931  22.8036842  39.5570679   8.6538820  22.3799057
  40.7720680   7.7888179  22.1221886  52.5998268  60.2899132  75.5816879
  53.0054207  59.9282799  76.3696899  53.1546593  59.9833298  74.8644714
  67.9618607   0.9149591   5.9042478  68.6963425   1.4805764   6.1426749
  67.5940170   0.6341058   6.7421260  79.8485031  19.8497353  72.7734528
  79.3405991  19.0511894  72.6299667  80.1410065  20.1078548  71.8993530
  21.5623512  11.7353811  86.8851929  21.3935204  10.9948702  87.4677429
  22.5028400  11.8940983  86.9659653   2.8278990  64.9883652   5.9187536
   2.4332845  65.2753983   5.0952711   2.3218217  64.2158432   6.1704001
  15.4587975  35.9438286  23.6594925  15.0075979  36.4441719  22.9795589
  15.0513964  35.0781593  23.6300011  79.1349564  38.5788574  69.2976456
  78.5151138  39.3076515  69.3274155  79.3798676  38.4352379  70.2117767
  16.4061127  27.9249134  57.1856613  16.4658165  28.8799706  57.1626244
  15.6728048  27.7167416  56.6067352  34.4903297   3.7241583  85.0063782
  34.7379112   3.0088391  84.4205017  33.7254295   3.3939216  85.4776535
  67.1490250  65.6986847  64.5099258  67.1319733  65.6837769  65.4668579
  68.0278091  65.3958740  64.2812881  70.2528229  63.1291885  78.3011322
  70.6235733  63.6995163  78.9745560  71.0142975  62.7406731  77.8704987
  30.8775558  15.6098089  82.2903442  31.1477680  15.9313602  81.4302139
  31.1243095  16.3089523  82.8957672  16.0017376  27.8153210  17.6548653
  16.5744247  27.0894737  17.9026699  16.4084606  28.5867729  18.0494156
  52.4657860  19.2585011   4.9938169  52.7259445  19.8355923   4.2758217
  51.7874069  18.6981487   4.6169362  26.1208382  63.6567497  14.3736162
  25.7803535  64.4999237  14.0746775  26.0282307  63.6850777  15.3259048
  70.0061417  55.1926117  55.8267632  70.1720505  55.1100273  56.7658501
  70.6011124  55.8847694  55.5383873  12.5378075  40.1033134  31.5712242
  13.4253616  40.4177589  31.7432728  11.9699535  40.8137131  31.8697300
  32.3847504  56.9055023   7.9163585  31.8783569  56.0950165   7.8624167
  31.9660206  57.4032555   8.6185942   7.9462514  60.1587029  60.3083000
   7.6010098  60.5964890  61.0863647   8.2132492  60.8732567  59.7300644
  16.4747105   6.2646399  58.7248306  17.3038712   5.8055410  58.8588181
  15.8271933   5.5663471  58.6281776  60.5731087  15.5300102  45.6300392
  60.3005257  15.5557127  44.7128334  60.0350761  16.1956921  46.0585480
  69.8031006  40.6115913   9.9455070  69.9930496  39.7308884   9.6222200
  68.9797668  40.5184059  10.4247494  52.2767029  56.7725449  24.2903404
  52.9111214  57.0125160  23.6149445  52.6655579  57.0866432  25.1066513
  14.0216341  70.1696091  26.8156147  13.4804258  70.7299423  27.3718052
  13.5609531  70.1480713  25.9768410  68.1964340   6.2738261  21.3270283
  68.6135864   6.4381485  20.4813232  67.7016068   5.4648557  21.1968555
   8.9268188  32.3307533  19.3705387   9.3285875  32.4156914  20.2351761
   9.6657829  32.3295975  18.7621269  39.2850304  62.2438583  78.9023895
  38.5333290  62.7941208  78.6824188  38.9088974  61.5040398  79.3792801
  70.0768661  13.6977758  33.5998840  70.1307449  12.7516680  33.4649506
  69.6420898  14.0275002  32.8134499  39.6552391  11.8742218  76.5236359
  39.4567757  12.0097132  75.5970917  39.1981049  12.5851231  76.9729462
  20.0911694  52.0291977  67.9364166  20.2040176  52.9345474  67.6468658
  20.0121880  51.5265160  67.1256790  64.8920746  66.7884140  20.9455872
  65.2143173  66.4645004  21.7867012  64.0296249  67.1531982  21.1439190
  64.0156708  36.0053215  69.7843094  63.9835510  36.8663368  70.2012634
  64.9119720  35.9311790  69.4566116   3.1935525   1.7240674  62.0441628
   3.7277431   2.5125387  62.1400032   3.0174844   1.4434279  62.9421997
  46.3645096  57.8841057  49.9556007  45.7625008  57.1660652  49.7600632
  47.2201538  57.4632568  50.0391808  60.3704948  37.7099075  87.3921432
  59.7208061  38.1770325  86.8668518  59.8819962  36.9913940  87.7938232
  77.6935425  60.0372734  84.9914856  77.5609207  60.4864578  84.1566925
  77.1074142  59.2815132  84.9525681  81.3410568  70.1849670   2.3674746
  80.7377930  70.6777344   1.8111641  81.5371246  70.7783127   3.0925438
  61.2988968   3.3012092  13.0812254  62.2369041   3.3157690  13.2713947
  61.1231613   2.3997722  12.8114834  48.6482811  35.3493767  65.6878967
  48.3372955  35.5367889  64.8022308  48.1561356  34.5731583  65.9553070
   7.4232869  57.4166870  64.2439499   6.4888258  57.6207161  64.2811890
   7.8161044  57.9687462  64.9200821  84.2619095  63.7442398  83.8986359
  84.6282043  63.4046936  84.7151871  83.6398087  64.4165573  84.1765060
   0.4750005  26.8191910  39.1828804   0.2497935  26.6367168  38.2706184
   1.1803292  27.4642143  39.1310463  56.1337509  66.5823898  29.3479023
  56.6472549  67.3884354  29.4010983  56.2850037  66.1462708  30.1864452
  61.2336578  18.2317276  43.6865044  60.6794472  18.9933720  43.5162735
  60.6172485  17.5103130  43.8123322  37.9202881  40.1502457  -0.3131599
  37.1658554  39.6796341   0.0412320  38.5033646  40.2674637   0.4368472
   4.1509962  52.8113441   8.4840336   3.5656121  52.6752319   7.7390294
   4.7002082  52.0276184   8.5034084  59.9403000  70.8778763   2.5027692
  60.3052940  71.3896561   3.2246380  59.6177216  70.0770187   2.9160562
  81.9576950  56.3116837   9.6320181  82.2839279  55.7050171  10.2966671
  81.5562897  55.7486153   8.9701557   3.4177649  47.7857094  39.1061935
   3.3088975  48.7198486  39.2844086   3.0635617  47.6671410  38.2248764
  36.7244759  61.0159531  32.6041183  37.1442223  61.0257759  31.7439137
  37.3773689  61.3935127  33.1935349   7.2877293  41.2653160  67.0444260
   7.6982288  40.4006691  67.0341797   6.3727298  41.0987473  66.8180161
  42.0180969  68.5488892   3.7588451  42.5027237  69.3322830   3.4987226
  41.3255653  68.4669418   3.1031671  63.5013809  54.8046494  11.4325304
  62.9206581  55.4974174  11.7472754  63.7799225  55.1008987  10.5659952
  11.1191254  34.5141411  48.3512688  11.0953436  34.1465797  49.2347641
  10.6506376  33.8756981  47.8135529  35.6589928  30.6540585  79.5666046
  36.5546799  30.7186890  79.8979721  35.3131180  31.5438747  79.6361008
  16.7474041  36.4256897  37.0645752  17.3861332  35.8336601  36.6673851
  16.8571987  36.2991257  38.0069962  31.6794224  49.4439201  75.5038605
  31.0354786  48.8122559  75.8241196  31.3000126  50.2981873  75.7100296
  57.8769875   4.2379971  22.8599701  58.5227966   3.7625239  22.3373928
  57.3682899   3.5527766  23.2934818  44.5532532  53.9571381  74.7576904
  45.4890747  54.0732994  74.9219208  44.1312256  54.6323204  75.2889633
  73.4828873  13.1042280   0.3809906  74.0707855  12.3715658   0.1970955
  73.6684036  13.7395639  -0.3105038  42.5348587  41.5382385  88.8313522
  42.1918907  42.4291878  88.9007263  42.3882294  41.2956657  87.9170837
  10.9643936   6.2895784  75.0917053  10.3680611   6.1587853  74.3544769
  11.5294333   5.5169978  75.0826950  66.9848022  29.1522312  20.7498436
  67.3928375  28.2863579  20.7499142  66.0551605  28.9789295  20.8980560
   7.3053813  45.6845245  46.1547890   6.5694289  46.2685242  46.3379593
   7.0167427  44.8287468  46.4719086  44.9809990  41.9491005  83.2746582
  44.4842262  41.1451530  83.1226044  44.9624634  42.0660744  84.2245026
   9.0557594  59.9770164  74.1174088   8.1383562  60.1632652  74.3171921
   9.1141911  59.0216675  74.1288147  17.6893082  20.5185699  80.8956528
  17.7327690  19.5631371  80.8570709  17.4601822  20.7113857  81.8048096
  55.4194031  51.8098335  17.0645981  56.2345123  51.7032166  16.5742283
  55.6059265  52.5101433  17.6899033   5.5639367  28.9782276  28.0017471
   6.1693578  28.8215714  28.7264252   5.4466114  28.1185207  27.5975571
  19.9398537  55.9398232  68.9676437  20.3705177  56.1594887  69.7937775
  19.0512352  55.6890602  69.2200394  81.6481476  57.3410988  72.9773407
  80.7227478  57.4637909  72.7656479  82.0199432  58.2225838  72.9459152
   7.2217979  50.6057396  25.9986382   8.0606127  50.1563301  26.1018677
   6.7735157  50.4709473  26.8335667  10.4503517  15.2543268  17.7429905
   9.7468691  15.6593761  17.2357635  11.0310516  15.9807167  17.9696560
  23.0660782  18.3915539  60.4479637  22.7439575  18.2571583  59.5566673
  22.4164085  17.9623585  61.0046959  27.4394169  41.4371071  65.5060043
  27.7382584  40.5950813  65.8493881  27.7239609  41.4376564  64.5920715
  54.5751953  30.2463207   9.8474922  54.5661469  31.1446247   9.5170383
  55.2143784  30.2596073  10.5598822  51.3336678  59.4896088  79.1490250
  51.7317009  59.0885887  78.3763733  50.4043694  59.2706032  79.0806808
  47.9858589  34.2075195  29.9713326  48.3704567  33.9095726  30.7956791
  48.7382660  34.4133568  29.4165840  73.3721466   9.1128368  23.4448338
  72.7883911   8.3673124  23.3046589  73.3712311   9.5783339  22.6084461
  55.9060783   1.9314202  52.8872986  55.4221573   2.7396824  53.0569038
  56.5118561   2.1585014  52.1818199  21.5091629  10.6558352  11.9925270
  22.3949375  10.9665079  12.1799316  21.0488396  10.7258530  12.8288469
  26.0415916  48.8552017   5.3133726  26.9650173  49.0821266   5.2037230
  25.5799618  49.4271278   4.7001591  31.0600700  64.4696198  41.9982948
  31.7908974  64.5166092  41.3819199  30.8755493  65.3820801  42.2210197
  55.9660034  16.1044788  52.7397575  56.6799240  16.6871128  52.9987640
  56.0851860  15.9837294  51.7977142  19.7537060  37.4426041   9.4877462
  18.8824711  37.3004417   9.1176510  19.5982342  37.9722328  10.2697649
  53.0154953  65.9529877  32.4794579  53.4112930  65.5829239  33.2685280
  52.0911980  65.7114792  32.5392761  43.7711639  27.6727409  75.9695969
  42.9696388  28.1344433  75.7233810  44.4308624  28.3621006  76.0458527
  57.8768692  27.5935497  18.8360710  57.0759583  27.4196529  18.3415699
  57.6060257  27.5513802  19.7531853  75.5079575  21.8049126   9.3611097
  75.1434250  22.5177937   9.8856554  75.0788116  21.0175247   9.6959009
  73.1076965   1.5449383  58.3873100  72.3976669   1.2002844  58.9288826
  73.5935059   0.7691963  58.1072388   2.6435924  21.9683247  11.5007067
   3.2980039  21.8635635  10.8100529   2.9068892  22.7650528  11.9612827
  84.6573410  13.4186621  25.3482952  84.9197006  13.9680834  26.0868969
  83.7949371  13.0834961  25.5935574  34.7967033   6.7361155  82.5831680
  35.0806503   6.7802463  81.6701202  34.2713165   5.9374981  82.6322784
  61.6744232   5.2077293  87.2556076  60.9305992   5.3625040  86.6733704
  61.2991447   4.7478614  88.0065536  41.3424339  65.2047653  57.1813927
  41.8173256  65.0431747  56.3661652  40.4259605  65.0368805  56.9620209
  69.9004211  54.3991013  32.0747795  69.4747238  55.1890373  32.4079628
  69.2491913  54.0017891  31.4966125  56.5741730  55.3315430  82.8652954
  55.6754227  55.1802597  83.1578674  57.0507240  55.5595436  83.6635132
  29.8403111  -0.0800264  33.8809967  30.4985256   0.4981157  33.4953346
  29.0262604   0.1521654  33.4341850  67.8884201  49.9905128  32.2866592
  68.0506134  49.8920517  33.2248611  68.7247009  49.7730064  31.8748913
  16.4285202  44.8652649  50.3037758  15.9362411  45.4882278  49.7691650
  15.7573423  44.3679733  50.7711678  27.7798271  19.0741100   1.2958138
  27.0653381  18.5908470   0.8808519  27.4062786  19.3964977   2.1160331
  78.1664200  40.6007195  40.8891144  78.4545975  39.7636147  40.5251846
  77.4961777  40.3649940  41.5305481  45.2748795  42.9268684   1.8296313
  45.3750801  42.1665077   1.2568792  46.1048508  43.3971481   1.7507894
  50.4911957  55.2124405  33.2801285  51.2043114  55.8495598  33.3222275
  50.8514786  54.4826279  32.7763405  15.5174274  44.2637558  55.7688065
  15.9639387  43.8641930  55.0223427  15.0713253  43.5345192  56.1994324
  66.3471603  25.9499531  31.0126534  66.7006149  26.7967339  31.2851658
  65.6694489  25.7539024  31.6595707  51.9439964   8.3760948  54.5937653
  52.6173515   7.7289286  54.3840065  51.9202614   8.9530802  53.8303795
  54.7435570  23.7229233  51.5605888  53.8347893  23.7813892  51.8554726
  55.2477150  23.5896492  52.3632698  47.5532875  60.1013222  49.2063408
  47.1389198  59.2932625  49.5089417  47.1492729  60.7899475  49.7343597
  13.7380486  46.2113991  49.5883751  13.2350321  46.9567566  49.9164734
  14.5387545  46.5994949  49.2355499  78.1675568  25.4715500  43.7532730
  77.8235626  26.2875710  44.1166039  79.0994034  25.4862041  43.9716187
   8.1309681  36.5153160  16.4617729   9.0163727  36.2715530  16.7317200
   8.2609940  37.1892014  15.7945356  60.2340279  71.3317566  76.3759918
  59.5427017  70.7115402  76.6075897  60.3294411  71.2410126  75.4278946
  36.3588448  52.0126839  78.8288879  36.9498596  51.9542236  79.5795593
  36.9330292  52.1983833  78.0858765  28.0073605  13.5801992  79.7631607
  28.3267422  13.4022236  80.6477737  27.5052719  12.7998362  79.5282669
  36.3805847  40.7802124  27.2366123  35.8975792  39.9729805  27.4135742
  36.9297371  40.5700531  26.4813004  52.3218956  43.1078415  71.2513351
  51.5812721  43.6495934  70.9789124  52.0378304  42.7101784  72.0743790
  33.1524391  40.5242767   5.7946849  32.5487328  41.2510948   5.9479771
  33.6573677  40.4573174   6.6051164  11.9006367   8.9371767  31.0619812
  12.3815460   8.2008972  31.4399376  11.3119860   8.5358992  30.4226856
  75.2934952  32.7813339  75.7031097  75.8243484  32.1189423  76.1454468
  75.9285889  33.4198799  75.3788452  30.0574379  60.9889832  34.1430283
  30.7374783  60.9685173  33.4697075  30.2252789  61.7966919  34.6284828
   2.3472030  11.3369436  30.9151707   2.3712490  11.0592136  29.9994640
   1.7288685  10.7364264  31.3314323  86.2593460  68.3802948  32.6124458
  86.0562744  67.6091080  32.0830460  86.9958496  68.1078949  33.1597977
  79.2635345  17.5450840  18.8544312  79.2752686  16.7489929  18.3230820
  79.3914185  17.2362823  19.7513828  40.6427040  30.0038357  10.6806822
  39.9724388  29.3444328  10.5013351  41.3818512  29.5054035  11.0291948
   4.1942563  26.6141891  73.5457840   4.9521441  26.3122482  73.0451202
   4.1968703  26.0720119  74.3346252  52.7595253  34.9329605  78.0575027
  51.9141045  35.2971344  77.7950592  52.5876617  34.0008736  78.1913147
  14.4882145  47.9314613  77.4615097  15.3695822  48.3047333  77.4518890
  14.5854807  47.0995445  77.9248581  57.9721603  21.6285038  45.6975174
  58.7493935  21.3004112  46.1497345  57.2416077  21.3729153  46.2607231
  27.1903210  49.9487686  18.0013924  27.7016335  50.5776596  17.4921875
  27.3032837  50.2280312  18.9099541  42.9428139   5.1958094  71.1856155
  42.0030479   5.3319383  71.0650406  43.2352142   5.9643035  71.6756668
   5.8744617  39.1851883  46.6063156   5.5855169  39.7448082  47.3271255
   6.8298340  39.1933784  46.6648674  24.7414608  39.6578712  20.6947556
  24.8478985  39.8541336  19.7639580  25.0635414  40.4400101  21.1428089
   7.6762218   3.5904436  87.1550369   7.3720651   4.3911910  87.5822601
   6.8747520   3.1528358  86.8680191  74.9504395  43.6642113  40.9121628
  74.3057556  43.2746544  41.5028114  74.7171326  43.3272705  40.0471344
  58.0563240  17.2548828  54.2233238  57.6389961  17.0796185  55.0667419
  58.9333992  16.8809376  54.3077736  52.5181923  49.4423294  51.4399643
  52.8165474  49.9307289  52.2072220  51.6137581  49.2045860  51.6441956
  79.6714020  25.2645168  36.3252563  80.4451370  25.4384975  35.7892609
  79.3405151  24.4260616  36.0031776  70.2805252  62.0742226  58.0213966
  69.4151840  62.4341354  58.2160225  70.1008987  61.2477531  57.5731621
  66.6583710  37.5967751  77.0132904  66.1088409  37.2181511  77.6995163
  66.7421036  38.5191193  77.2551651  28.8538532   4.5276222  43.1365204
  28.8631859   4.9826221  43.9786110  28.3321152   5.0914192  42.5654221
  82.0425720  67.8460464  44.4258347  81.2353516  67.7049637  43.9311447
  81.7720795  68.3665924  45.1822052   3.6912386  61.5487137   8.9684267
   3.9795449  61.5189972   8.0561609   4.3769174  62.0404243   9.4204168
  55.4103699  14.5345650  84.3072205  56.0360603  15.1034203  84.7557068
  54.6415329  15.0873709  84.1674728  61.7942352  33.0103912  39.3746490
  61.8698921  32.2022133  38.8673477  61.5384445  33.6729469  38.7329140
  63.1061401  43.6448479  32.9738998  63.1033669  42.8308029  33.4774437
  63.9736176  43.6738892  32.5703316  31.5808849  67.9253616  41.6077690
  31.3545475  67.3285980  40.8944168  32.5315437  68.0199661  41.5483780
  63.6058502  33.4487000  87.8306580  63.1954994  34.2991028  87.9877014
  64.2032623  33.6025429  87.0987701  25.0959377  63.3190536  22.6479454
  24.6682014  63.8297806  23.3352833  25.8873329  62.9752579  23.0623493
  11.3812723  64.6249008  32.8322754  11.6475420  65.5254135  33.0177498
  10.6863155  64.4453659  33.4655495  60.1390839  12.2658739  62.0786209
  60.1569824  12.7674685  61.2635651  59.3922882  11.6752739  61.9800415
  14.2296515  41.9787407  15.7714386  13.3506622  41.6390762  15.9394798
  14.8161821  41.3186073  16.1408138  66.4840469  15.2910833  70.2344437
  67.3820953  14.9719639  70.1454926  66.3075867  15.2509193  71.1743774
  56.4810104  19.4972839  41.5031662  57.2253838  19.8970432  41.0533524
  55.7131157  19.9157887  41.1140289  34.7368202  62.9832764  51.2583046
  33.8889275  62.9009552  51.6948013  34.7226906  63.8583603  50.8706665
  45.1597748  51.2287216  82.1578827  44.4642334  51.7602692  82.5450668
  44.8835182  51.0965004  81.2509995  73.7021790  41.8437271   9.1149845
  73.3559570  41.0964355   8.6272154  74.0605850  41.4615822   9.9160728
  79.6397095   7.4699383  74.3106308  79.6937027   7.3958158  73.3578339
  79.3941269   6.5930452  74.6055527  76.1309280  45.2892227  59.0687714
  76.6583176  46.0708580  59.2335243  76.6308441  44.7956429  58.4186249
  78.5296860  62.2261848  16.0347786  78.4407196  62.1189613  15.0877733
  79.3413849  62.7214966  16.1445351  79.9173737  64.0680923  79.5120392
  80.1280365  64.8951492  79.9454422  79.5829697  64.3261871  78.6530914
  80.3100510  71.3487244  30.7248230  79.5669556  71.0599213  30.1950836
  80.0732727  72.2317886  31.0083122  73.6363907  29.6543980  79.7231522
  72.8835526  29.0787983  79.5884247  73.9452057  29.4426041  80.6040649
   2.2585900  11.5435696  14.2642088   2.4857121  12.2871580  13.7058868
   1.7303969  10.9754877  13.7033815  42.5138588  69.5162888  40.3311844
  42.5682793  69.8340836  41.2324486  41.6298180  69.7496490  40.0479088
  56.5223389  46.5854874  68.6514740  55.7646370  47.1677208  68.7073746
  56.1623802  45.7525406  68.3467484  16.4643078  31.6989212  72.6106567
  17.3718548  31.6347370  72.3132172  16.0939617  30.8332748  72.4382324
   4.7452331   4.0125341  45.5476608   4.3614798   3.1447520  45.6738319
   4.0869446   4.4951406  45.0476799  76.7539215  52.4713669  40.7310066
  76.9668427  51.6283188  40.3307953  75.8397141  52.6254616  40.4928780
  69.1984024  52.2526817  19.0869942  69.3923950  51.3696251  18.7726555
  68.8824081  52.1245079  19.9813938  24.1007137  23.7180767  24.0695915
  24.6683197  23.8945980  23.3193283  24.1887932  24.4932556  24.6241837
  70.8953934  29.5258675   3.6927314  71.6714935  29.6016865   4.2478414
  70.5072556  30.4007816   3.7028883  50.9758759  11.9147081  56.6099625
  50.5038490  12.2240152  57.3831062  50.9652519  12.6596136  56.0089340
  27.7407017  36.0243073  75.4658890  28.2346935  35.4968224  74.8382187
  26.8792896  35.6085510  75.5025864  19.9162655  59.1224480  15.1773748
  20.3605595  59.0967712  16.0248280  20.5375328  58.7222595  14.5690098
  69.1638031  56.9151611  15.4782286  69.2993011  57.7318611  14.9977341
  69.8079758  56.3106956  15.1096020   6.6774769  71.6776123  62.9505157
   6.1608109  71.8202896  63.7435684   7.1155524  70.8393555  63.0976410
  52.7161751  46.1965027  23.9721851  52.0697136  46.5702286  24.5710545
  52.4161224  46.4586678  23.1018581  45.4204521  29.0297146  14.0571032
  46.3636322  28.9008446  14.1572714  45.0268555  28.3851433  14.6451826
  17.0063419  46.9849281  17.0846558  17.0474453  46.6471672  16.1899700
  17.8311138  47.4566422  17.2007122  37.4115257   1.6754612  51.0671883
  37.4496574   2.2635629  51.8214493  38.0950851   1.9959829  50.4787636
  24.8020058  47.8908043  11.8656092  25.6401348  48.3527679  11.8465872
  25.0340443  46.9812660  12.0530281  30.5261307  71.5737762  49.5879555
  30.2183685  70.7820358  50.0291634  31.1196613  71.9833832  50.2173805
  29.7483845  51.0383949   5.8630824  29.2446861  50.4474754   5.3033199
  29.9238586  50.5279655   6.6535902  33.9739265  58.3868980  76.6305084
  34.4598732  59.1557541  76.9287491  33.8461990  57.8627357  77.4211884
  60.4511528  45.9102745  31.8620377  61.3141136  45.6879616  31.5125961
  59.8449593  45.3497658  31.3776913  81.7663422  31.5986691  28.4170456
  82.4534988  31.2543240  27.8465405  82.2383957  31.9800549  29.1572781
  27.0467472  60.9789963  79.8112183  27.4103756  61.6635475  79.2496262
  26.1579247  61.2760773  80.0060730  82.4856491  40.8472786  78.0137558
  82.0597076  41.5786896  78.4607925  83.4191895  41.0558167  78.0492020
  80.5682449  12.4084320  31.7410259  80.2728806  12.9043941  30.9774704
  81.2906876  12.9253292  32.0975685  38.1725922  12.9160366  83.8731918
  37.2956848  13.2211199  84.1059723  38.1889114  11.9999895  84.1503601
  51.0379219  65.6318817  45.0353203  50.8636475  64.7199860  45.2683449
  51.9926109  65.7011642  45.0365982  40.1454353  52.8710709  18.4196892
  39.3392029  52.7279472  18.9154072  40.6898079  52.1104317  18.6229610
   4.3842983  20.7460289  56.4472122   4.6058836  19.9181271  56.0209389
   3.6506314  21.0892181  55.9371262  11.4645061  67.8023300  46.2661171
  11.4047852  67.9652023  47.2074661  10.8905888  67.0510941  46.1161423
  76.6750870  25.9395771  16.4975815  77.0179596  26.2545662  15.6612473
  77.3966675  25.4396954  16.8792591   9.2332964  29.1350269  77.6865311
   9.4150944  28.3549404  77.1624603   9.0573511  29.8207359  77.0422668
  38.8389702  26.4555759  68.7021179  38.3323746  26.9105549  69.3748627
  38.2411308  25.7904015  68.3610001  43.2522392  63.1523666  61.4264679
  43.4074402  62.7547379  60.5697098  42.4811554  63.7047768  61.2980003
  32.0482674  58.5413933  74.3322983  32.3009148  59.2559586  73.7476654
  32.6062241  58.6530228  75.1020126   4.1635432  45.0187073  45.3946152
   3.3053625  45.1794662  45.7869339   4.4489002  44.1879234  45.7748756
  66.5501480   3.8350499  77.2931900  66.2751389   3.8317597  78.2100220
  66.5754852   2.9102879  77.0474167  31.6660309  71.0773010  63.9716110
  31.5569210  70.1735764  64.2675934  31.6382217  71.0215149  63.0164413
  53.4300041  68.4339218   8.9062233  53.7897415  67.9505692   9.6499939
  52.4852676  68.4417267   9.0599909  84.2589264  62.0905571  34.2169151
  84.6542435  62.9623032  34.2212105  84.4613113  61.7400627  33.3494911
   6.6713986  51.6004486  11.6569204   6.8386264  52.4902534  11.9675837
   6.7652941  51.0529823  12.4364681  83.9940643   7.0266714  59.8014832
  83.1711044   6.5385780  59.8285789  84.3716202   6.8124347  58.9483833
  47.0283356   0.8478689  72.9287415  47.2557297  -0.0636943  73.1119843
  46.6618805   1.1732417  73.7509842  65.8757553  67.3593369  49.7461967
  66.5801697  67.2499771  50.3850021  65.1242752  67.6461792  50.2650795
  76.7728806  17.6655064  11.6632814  76.3019867  17.9813614  12.4344654
  77.6938553  17.8406067  11.8566370  51.6518707  36.1438904  69.9111862
  52.2938919  35.4649582  69.7035980  52.1384430  36.9647408  69.8358078
   8.8007126   3.6687906  84.3803406   8.4077129   2.7960443  84.3901978
   8.7758675   3.9529877  85.2940369  28.9401836  70.9191895  76.8875580
  28.7476273  70.0132294  77.1292038  28.1197510  71.2488174  76.5208511
  44.0182991   0.6690590  10.1511650  43.2982483   1.1162475   9.7064419
  43.6830826   0.4903767  11.0297613  45.2244759  40.6960793  18.5451965
  45.6114845  39.8234558  18.4745903  44.2801971  40.5394783  18.5518169
  56.2348900  66.6150055   4.8457794  55.7536240  67.1255798   5.4968829
  56.3145561  67.2009506   4.0930815  22.2527695  41.2337952  66.3870010
  23.2058029  41.3209381  66.4060669  21.9955044  41.6014824  65.5415115
  40.7205086  22.6661968  77.2252426  40.5981750  21.7275734  77.0829239
  41.1649971  22.7242813  78.0709915  39.1412849  35.9449501  15.4829655
  39.1387901  36.0627480  14.5330448  39.6774025  36.6662788  15.8123541
  12.3080111  57.8426285  73.1872864  13.2272625  57.7990189  73.4505463
  12.2350349  58.6679611  72.7079773  30.3036613  28.5686207   9.1391315
  30.4699860  29.5110474   9.1191626  31.0830860  28.1965408   9.5517883
  71.6714401  50.2244492  -0.0024815  72.0913086  50.9853477  -0.4036985
  72.1859436  50.0554161   0.7867870  64.1962280  44.9308128  53.2097893
  63.7829742  44.8900909  52.3473549  63.5199165  45.2923279  53.7826195
  23.2449989  61.1407852  31.8453884  22.8261318  61.0451660  32.7007484
  24.1087589  60.7433777  31.9559155   9.7461262  32.7773781  21.8788738
   9.2503242  32.0797729  22.3075428  10.0768757  33.3137131  22.5994167
  49.8879662   7.8571525  17.7174721  50.4976196   7.1276045  17.6064911
  50.0445175   8.1665020  18.6096745  74.5924454  68.7865448  81.0528030
  75.4668198  68.4032898  80.9834824  74.5283585  69.0737915  81.9636307
  59.3230247  65.4464951  88.0036087  59.0811424  65.2940521  87.0901108
  59.8397598  66.2519836  87.9833374  46.5301132  48.0883141  43.4604187
  46.5426559  47.1945801  43.1179047  47.1133919  48.0623283  44.2189331
  75.6381226  43.8624039  75.3287201  75.4122467  43.8809242  74.3987427
  76.1285248  43.0479240  75.4399185  11.6331730  52.0998917  26.9253178
  11.4276028  52.1176186  27.8600140  11.0441198  52.7474976  26.5382042
  59.8334656   9.8020926  67.7141342  59.9083176  10.1472588  66.8244781
  58.9184074   9.9507036  67.9524918  58.0824814  24.5056267  24.0931053
  57.4267654  24.1371250  24.6851158  57.9704475  25.4530125  24.1714649
   0.4396562   4.4669595  24.2960300  -0.3641168   4.2388120  23.8289871
   1.1383529   4.0615907  23.7824841  15.3709698  55.4671860  40.2667084
  16.0959473  55.9664955  39.8907700  15.3035078  54.6892014  39.7131577
  72.7430725  22.4502316  43.2253151  72.0449600  22.9417648  43.6580505
  73.0411072  23.0266228  42.5216217  57.8625946  42.6241112  87.0055847
  57.7044106  43.5658722  87.0711517  58.7753563  42.5534401  86.7261200
  36.6386070   5.8858309  11.5586214  36.3476410   5.5554991  12.4085932
  37.3830299   5.3301558  11.3277702  14.4721155   5.2071657   1.6050832
  14.5196619   6.1461849   1.7845664  13.8785610   4.8652740   2.2736900
  46.2191963  14.3331556  72.8307266  46.3807945  15.1602325  73.2846680
  46.3289680  13.6638203  73.5061340  46.4352684  38.5976334  35.1968651
  47.3298798  38.9069138  35.0545845  46.2333794  38.0813522  34.4165230
  26.6898994  20.2652435   3.6101613  26.5170135  21.1106739   3.1959262
  26.3706284  20.3680420   4.5066719   5.7391801   1.1319411  23.1117821
   5.4571471   0.2201974  23.1853523   5.5645247   1.5070684  23.9749203
  25.1980209  69.7774582  33.7802162  24.5555325  69.2475815  34.2521019
  25.7799072  70.1122284  34.4625435  73.9605255  36.6898422  21.3993568
  73.7577744  35.9808731  20.7890377  74.4958496  37.2984467  20.8901806
  45.0642090  67.2369766  45.9636955  45.1191826  68.0161209  46.5169945
  44.1740112  67.2550430  45.6123428  67.5089035  18.6908512  21.5213280
  67.2996826  18.0380211  20.8532944  67.9413147  19.3961391  21.0398521
  54.8899231  42.3285408  13.0996666  54.2001648  41.7993164  12.6991825
  55.6730423  42.1293640  12.5865555  66.7134018  12.1503038   4.8119855
  66.4996796  12.3201265   3.8945358  67.3964691  12.7875500   5.0207062
  10.5238380  43.2319908  59.0151405   9.9672499  43.2484818  58.2365723
  10.6015196  42.3034859  59.2344055  28.3894463  51.6066284  68.6854706
  28.4305897  51.5690308  67.7298965  27.5365944  51.2306519  68.9034653
  51.7954254  52.3255692  25.7442245  52.1089859  52.6806183  24.9124489
  51.8417091  53.0633965  26.3522511   8.6622248  43.5039177   6.1346097
   7.7242484  43.3721886   6.2727361   8.7235899  44.3572731   5.7053647
  60.7671700  64.8243027  22.2886639  60.8569450  63.8944054  22.4971371
  61.1213341  64.9065323  21.4032040  30.6796398   3.6178706   6.2106833
  31.5134220   3.1663337   6.3416519  30.8005409   4.1140313   5.4010911
  48.9057617  17.4333324  38.0489769  48.7741699  16.5213661  37.7896767
  48.0534554  17.8467693  37.9115829  47.8686829  49.8832397  63.5995407
  47.1664543  50.5253067  63.7037430  47.4901085  49.2023964  63.0433350
   3.8557870  15.2084360  76.0640869   4.5636158  15.7735882  75.7545547
   3.3980439  15.7349987  76.7194061  54.6927795  34.4707298   5.9515901
  54.3832283  33.6604691   6.3564167  55.4568291  34.7212486   6.4709172
  34.5518723   4.8984504  25.6754684  35.1044121   5.3653426  25.0486164
  35.1546211   4.6195607  26.3647747  37.0086861  14.8029022  11.3044510
  36.7664680  13.9877577  11.7438860  36.8555260  14.6289978  10.3757248
  65.4205246  52.8795738  81.4096146  65.3210144  52.9335480  82.3600998
  64.6509933  53.3305397  81.0622330  76.0833435  50.5054970   3.5676219
  75.4490662  51.0263100   4.0602541  75.5717316  50.1095695   2.8621199
  19.6669426   7.2603621  21.7831802  18.9108887   7.8393679  21.8799629
  19.2882729   6.3876538  21.6772499  30.0316429  32.6918068  29.0169926
  30.7662296  32.6817780  29.6306000  29.3302250  33.1391830  29.4903851
  59.9845886   6.6722474   2.6044407  60.0050163   6.8018394   1.6562738
  60.7130470   6.0767903   2.7805417  23.2277718  27.1709518  87.7621460
  23.7587204  26.6357994  88.3520050  23.6162586  28.0441132  87.8159637
  28.4447231  63.5174522  36.7599564  28.5260124  64.3154068  37.2823410
  27.8104115  62.9824257  37.2370567  33.6844254   4.4675837   1.8730029
  33.5486832   5.2835851   1.3913939  33.9351997   4.7478566   2.7532246
  40.8209572  38.8365707  11.6162243  40.8778610  38.3113174  10.8180380
  41.5391121  38.5190163  12.1636209  25.6525402  63.5828667  17.0771561
  26.0111980  64.4636917  17.1855030  25.9052906  63.1213188  17.8767338
  67.7548828  22.6066799  44.6450539  67.4615479  23.2746296  44.0253525
  67.0043716  22.0198441  44.7377357  56.2017097  64.0674896  55.2214890
  55.5452843  63.6874275  55.8053474  56.2592773  63.4505157  54.4919319
  44.1586266  45.5833969  32.3568573  44.3871498  45.0682030  31.5831757
  44.4625893  45.0549812  33.0948372  32.6040039   9.7676573  77.4746857
  32.1007919   9.2566404  78.1086197  33.1209946   9.1173639  76.9992142
  22.3424797   2.4300346   0.6233737  22.6081390   2.9361439   1.3911698
  22.7233715   2.9012678  -0.1176344  36.7223358  27.5538578  76.1376114
  37.1228180  27.8983421  75.3393784  36.1413345  26.8569851  75.8325806
   8.7171116  59.3398438   9.3636389   8.1251154  59.1685753  10.0960588
   9.1174107  60.1840897   9.5715904  43.1102600  52.2977219  20.9512100
  43.6751480  51.5697441  21.2103977  42.5574036  51.9368858  20.2581158
  75.9130859   4.9431024  13.2825899  76.8460312   4.7296314  13.2989035
  75.6897812   4.9700460  12.3521910  31.0045815  11.7808390  35.0588417
  31.5361576  11.2182360  34.4956932  30.1823082  11.3029699  35.1671829
  32.5892067  54.9087486  63.2653999  32.1272507  55.6926079  62.9680939
  32.2069855  54.1965408  62.7526588  49.2989426  28.2348785  52.8405342
  48.4686241  27.7814121  52.6950340  49.1123352  28.8563499  53.5442276
  63.3122940  42.7726440  20.0999737  63.1156769  42.8743210  19.1687202
  63.0571518  41.8724060  20.3017349  10.9451103  44.7381096  65.1759949
  10.9979534  44.3972893  64.2830887  10.3980751  44.1056404  65.6417923
   2.2192574  42.6959991  71.0220718   2.3971629  42.2537193  70.1920242
   2.3105936  43.6274872  70.8215103   1.2783873  39.4510384   1.9970434
   1.0274316  38.9411163   2.7672577   0.4676927  39.5437775   1.4966378
  64.4777985  15.8881512  23.2721405  65.4077911  15.7075338  23.1353092
  64.2582779  16.5350857  22.6016788  30.0803871  46.9086609  45.2049713
  30.3996677  47.3378143  45.9987717  29.7958145  47.6282730  44.6415787
  -0.0933859  17.9052334  64.5054398   0.6704456  17.3341389  64.4239197
   0.2686995  18.7913017  64.5030289  44.1582146   3.8339121  12.1891432
  44.4466591   3.9919348  13.0880651  44.8586273   3.3090467  11.8016243
  39.6072121  50.6797638  32.0438271  40.3518181  50.7740440  32.6378822
  39.4460564  49.7368507  32.0095406   0.3591493  50.1587639  65.6879349
   0.8389297  50.9864693  65.6572266  -0.0019877  50.1239777  66.5737152
  74.5490952  55.4067917  74.2337646  74.8437347  55.0876350  75.0867386
  73.6180038  55.5921783  74.3559723  84.6993866  57.8170433  81.7129898
  85.4629364  57.2566032  81.5746613  84.0997543  57.5841103  81.0041809
  21.3514175  13.8920240   1.7954848  21.8884392  14.6798372   1.8802773
  20.6865520  14.1240110   1.1471267  55.1681213  53.5097389  70.8786240
  55.1581497  52.5606422  70.7547607  54.2446480  53.7520294  70.9473572
  12.1415539  65.2289886  36.2673607  12.8128090  65.4406662  36.9160843
  11.7012043  66.0618057  36.0978546  17.2235813  53.0038261  19.3682632
  17.2064438  52.4473724  18.5896091  17.8635120  52.5878220  19.9459000
  32.0233879  26.6131134  79.5050659  31.7193871  25.8572998  79.0025101
  32.9747925  26.6034031  79.4003525  32.3715134  19.8171463  79.2803802
  31.5638828  20.3263664  79.2121048  33.0710258  20.4641724  79.1894302
  19.1706924  39.3348312  29.9067440  19.7035046  39.7524376  29.2300243
  18.7929096  40.0642128  30.3981857  19.3024387  38.8067780  23.9901829
  19.8133545  38.3556824  23.3180885  18.6310349  38.1741257  24.2455254
  10.3340111  69.1137924  55.1894264  10.7115536  68.8966293  54.3370552
   9.6162891  68.4900894  55.2994003  75.1448288  70.0318146  10.2336626
  75.9369278  69.9315109  10.7616348  74.8273544  70.9103165  10.4426327
  10.2238770  47.5312119  65.3012695  10.5688915  46.6388550  65.2713089
   9.7382603  47.5727081  66.1250916  84.4130249  31.1196232  48.4479256
  84.9700851  30.5568085  48.9856567  84.5032501  30.7694874  47.5616455
  62.4833183  37.5111198  43.3266068  61.9243927  38.1500282  43.7689095
  62.8161469  37.9752312  42.5584526  43.0698662  23.4366169  21.9298325
  42.9760704  23.0784531  21.0471344  43.3367081  24.3455372  21.7924004
  31.5673237  31.7441978  67.6288452  31.2766171  31.6555824  66.7211685
  30.7772484  31.9890671  68.1105652  40.8773918  40.3398476  33.5788116
  40.5731392  39.7805290  32.8640938  41.7566223  40.6100159  33.3138733
  77.0290680   0.6434359  85.2241364  77.5792618   1.3305045  85.6002426
  76.4471741   1.1058871  84.6210022  24.0167866  56.0566139  51.3532104
  24.3784962  56.3618660  52.1852074  24.1226025  56.7995987  50.7590637
  58.1712875  23.6981850  18.7524681  58.7032585  23.6112480  17.9614697
  57.2750854  23.7912178  18.4293575   2.9867811  70.0661011  33.8333664
   2.8752570  71.0143738  33.7657967   3.5339174  69.8351898  33.0826645
  61.0972481  69.7293015  43.8706207  61.0039673  69.2721558  44.7064133
  61.9917412  70.0698547  43.8824158  82.1303864  22.2519875  51.9163589
  81.2333450  22.5697689  51.8135681  82.6741180  23.0336170  51.8181343
  10.3917274  17.9152813   5.2163682  10.7448788  17.2194309   5.7707219
  10.9925299  17.9569530   4.4723711  28.5157795  69.8933792  71.0140686
  28.5933456  70.8465500  70.9730988  28.8888988  69.5869675  70.1875534
  61.3811913  49.6528664  21.0783672  60.9095993  49.0988541  20.4563503
  60.7688560  49.7729797  21.8042126  43.7580109  42.6371651  20.1357880
  44.3286400  41.9906540  19.7202930  44.2873192  43.0037689  20.8440723
   9.3924198  52.9885101  58.6359138   9.2158670  52.5120850  59.4471359
   8.9807100  52.4592171  57.9528503  75.6786270  50.0941391  71.7221527
  75.3178329  49.5726814  71.0051193  75.1574860  49.8448906  72.4853821
   2.6916738  40.7280846  85.1753082   2.0940704  41.0756989  84.5132904
   3.4380770  41.3272095  85.1624222  50.3038330  62.2959251  52.8834991
  49.4166031  61.9519234  52.9870262  50.7054710  61.7284813  52.2255287
  70.3130112  37.5296707  66.8643570  69.5192566  37.9571838  67.1859512
  69.9940796  36.8306885  66.2934494   4.1659608  46.9023170  30.5301895
   3.8849828  47.8173027  30.5396900   4.8278503  46.8478546  31.2195129
  63.8767929  61.1027641  68.8612900  64.7124329  60.6363945  68.8820343
  63.3147736  60.5626183  68.3057632  14.8569956   8.7638474   9.6618071
  14.4459267   8.9041576  10.5147820  14.1236486   8.6258879   9.0623055
  69.6099548  23.4833012  80.5943222  68.7988739  23.9548016  80.4044037
  69.4215317  22.9960098  81.3963699  65.5276413  50.6948814  34.0423660
  65.3551712  50.2557144  33.2095299  66.1889648  50.1494751  34.4682884
  50.4934692   1.9190232  82.5718079  50.7547493   1.2736839  83.2286911
  49.9795036   1.4199810  81.9369583  23.9286366  70.9254837  44.9534340
  23.6532288  71.5845566  45.5906143  24.7959633  70.6516495  45.2517548
  25.6657352   1.2578261   2.1905804  26.3447704   0.7381913   2.6208391
  25.6820183   2.0987163   2.6476040   1.1973635   1.9285407  72.8830948
   0.5199565   1.7602984  72.2280807   1.0699031   1.2446533  73.5405807
   6.8080859  70.0720749   6.2974992   6.1839433  70.5793686   5.7785335
   6.4143023  69.2020416   6.3623800  75.2511139  68.5899277  39.1925392
  74.4469910  69.1086655  39.2154541  75.4171982  68.3649750  40.1079865
  37.6869240  68.8334808  67.8780975  37.3505478  69.6477966  68.2522202
  38.5185661  69.0811157  67.4740219  30.6298027  44.8678246  88.4104614
  30.6038704  44.8960190  87.4540329  30.5384502  43.9395256  88.6252823
  23.8987503   0.8665864  14.8655262  24.1903858   1.7063806  14.5106659
  23.4537563   1.0931906  15.6821432  79.3425980  22.7946930  21.3577652
  79.4839706  22.2364388  20.5931759  80.2181320  22.9314575  21.7196465
  32.9733391  51.1714745  46.1843719  33.6920776  50.6158409  46.4859047
  33.0241203  51.9504128  46.7383614  69.2788620  44.7541466  41.6614799
  69.9398270  45.4202080  41.8504715  69.7831802  43.9832764  41.4013863
  69.8196411  68.2293625  83.6645889  70.7747955  68.2150116  83.7254715
  69.5564346  68.9750137  84.2040024  58.6595306  21.5042114   6.9161959
  59.3740196  21.1888924   7.4696507  58.6330452  22.4479694   7.0738368
  84.7875519  49.8113556  83.4228592  84.9199066  50.7096100  83.7259293
  84.2210999  49.4160194  84.0854874   0.4249292   6.5779233  88.5781784
   0.8273475   5.7701249  88.8971634  -0.4305381   6.6048088  89.0067596
  80.3528214  17.4613667  41.7273140  80.0886307  18.3804798  41.6864777
  79.5333328  16.9729156  41.6493034  62.0422325  32.9701157  77.9947815
  61.3052483  32.3823814  77.8284836  62.8170509  32.4461555  77.7914276
  17.0939980  47.6362534  24.7179775  16.8895969  48.4444733  24.2476196
  16.2518940  47.1892395  24.8032360  47.9384193  68.8278885  44.3143005
  47.4644241  69.6588135  44.2807655  48.8117256  69.0367661  43.9827347
  35.9672623  70.7425461  17.4184036  35.5148773  69.8995743  17.3871460
  36.8609772  70.5452957  17.1380558  36.5621376  43.7844048  37.9616013
  36.8769264  44.6212540  38.3033867  36.8389282  43.1401939  38.6132202
   0.7016181  36.1785164  27.6460476   0.2664946  37.0194397  27.5055218
   1.1209607  35.9828491  26.8081341  77.2590866  10.7220917  65.4486313
  77.2299347  11.4934874  64.8826523  76.8243103  10.9999800  66.2548370
  44.7669029   2.0447054  35.7689743  43.9454231   1.9222212  36.2447891
  44.6023865   2.7935193  35.1958733  66.7886734  39.7830162  45.2527733
  66.3332520  40.5839081  44.9931679  66.5467300  39.1423912  44.5839729
  44.8909683  36.3527298  37.9466476  44.2088699  36.8597298  38.3870125
  44.8671303  35.4968224  38.3745346  72.9137650   7.1006794  28.2179832
  73.3252411   7.8836784  28.5838165  73.5978012   6.4320264  28.2530594
  34.9082832  46.9308929  45.5880966  34.6313667  47.2217064  46.4569931
  35.8163147  47.2248383  45.5152512  56.3646774  21.4429798  20.3541241
  56.9102135  20.8770695  20.9003582  56.9887085  21.9316101  19.8174152
  50.7022934  11.9038181  81.4523849  49.9039497  11.8658285  80.9256592
  50.6403618  12.7358847  81.9214935  47.0094948  68.6250610  50.7528648
  47.2881203  67.7093277  50.7476463  47.6013336  69.0519638  51.3723106
  61.9300117  34.4919701  60.2316170  62.4938164  34.7905197  59.5180206
  61.9459305  35.2090454  60.8654785  67.5616074  55.9942741  56.6791878
  67.7310562  56.5655670  57.4282837  68.4212570  55.6437492  56.4460068
  64.1874619  45.2776108  43.3483963  65.1188049  45.0654678  43.2864838
  64.1629410  46.2324715  43.4106331  27.5042992  33.8046455   8.5701590
  27.9260063  33.7116585   7.7159066  27.7778339  33.0279160   9.0581160
  65.5765381  30.9304752  35.0007172  64.7723770  31.3634396  35.2872467
  66.0007401  31.5685310  34.4269867  62.6011658  68.0629654  64.6402435
  61.8258629  68.6134033  64.7504730  63.1286163  68.5205002  63.9855003
  52.3300705  65.3361435  69.1419601  52.5766029  65.8016129  68.3427200
  52.1775856  66.0285568  69.7850342  15.3344212  19.6105747   0.8979129
  14.8842611  19.9103127   0.1081375  14.6293888  19.3999710   1.5101278
  69.9558105  60.5112762  63.2424622  69.5333176  61.3653107  63.3338394
  70.7244034  60.5622597  63.8107033  66.6456833   9.5380344  43.7094727
  67.1040344   9.0229187  43.0455475  66.1829529   8.8887234  44.2391052
  59.3163872  63.0916672  37.1083679  58.5686760  63.1166267  37.7054749
  59.4420891  64.0029297  36.8437347  63.4704971  59.6907578  86.2651443
  63.3478012  58.8618279  85.8024826  63.2657967  60.3613434  85.6134949
  76.9007111   0.4528436  74.0174026  77.0203781  -0.4291759  74.3694763
  77.4688187   1.0044944  74.5551453  79.2880936  25.5001602  68.5418854
  79.8695068  25.5202446  69.3020096  78.6255646  26.1650658  68.7294693
  70.0593796  28.4339581  48.3436661  69.8629532  28.2699547  49.2660255
  70.3429031  29.3478451  48.3179855  79.9856415  38.8133850   6.5607352
  80.4164581  38.7999458   5.7060704  79.0502853  38.8166466   6.3574438
  78.5349884  70.8948746  78.7986069  78.2370834  70.4511032  79.5926819
  78.0254135  71.7046967  78.7712860  59.3021240  21.1078148  37.1625557
  58.7109871  21.6928291  36.6886902  59.0896568  20.2345104  36.8332672
  13.0959921  45.8139496  55.7482300  13.3135395  46.6073914  55.2589912
  13.9373569  45.3783073  55.8844414  33.4970055  56.0475960  56.1261978
  33.5522041  55.5364494  55.3187866  32.9372902  56.7908325  55.9013557
  49.4059486  10.7876520  54.1563187  49.2944527  11.7366743  54.1001205
  50.1868668  10.6698494  54.6971664   4.8142552  41.5781860  24.2169151
   3.9613364  41.3611183  23.8405590   5.4471674  41.1616745  23.6319599
  75.5355453  53.1522942  28.3820724  75.6630249  54.0806236  28.1866684
  74.6330643  53.0953217  28.6959343  16.7149258   9.2022543  22.4390736
  16.4669685   8.4741745  23.0088520  17.2539787   9.7669792  22.9929123
  41.6705284   5.1629076  88.6312637  42.5585251   4.9302816  88.3600235
  41.7610931   5.4263849  89.5470200  33.5805626  70.9394760  40.9895401
  34.4847221  71.1551132  40.7610130  33.1554718  70.7681274  40.1492004
   6.9756875  23.9116993  10.2470121   6.7665763  24.1729717  11.1438065
   7.0291123  24.7361488   9.7636280  77.9820328  22.9066792  46.7950974
  77.9030609  22.0158386  47.1362724  78.6426544  23.3187180  47.3519058
  32.4042892  21.8431606  76.9978256  31.4765396  21.6813927  76.8265305
  32.8506203  21.5363655  76.2085876  79.3977585  59.7757187  41.3849182
  78.9635010  59.1350174  40.8217583  80.2275696  59.3620758  41.6227341
  77.7635193  68.2407303   6.3294582  77.1181870  67.9803009   5.6722269
  78.2545471  67.4399414   6.5134635   4.1155639  60.4622154  53.7779160
   3.6080618  60.6335564  52.9846191   4.9295297  60.9497681  53.6514931
  74.6845474   1.0136838  11.0568018  74.6456528   1.4588845  10.2103291
  74.4631042   1.6921589  11.6946621  69.9219284  20.2927456  83.4864578
  69.5189743  19.8029861  82.7695160  69.5896759  21.1845417  83.3837585
  13.0704288  33.5943642  42.7941628  13.7709961  34.1464424  42.4468155
  12.4889679  34.2033730  43.2494049   4.8146353  16.4890347  15.9036455
   4.5736475  17.3286343  16.2950916   4.9177341  15.8978777  16.6493912
  82.3626862  65.8705673  49.1480217  83.0561523  65.2777557  48.8583336
  82.8186646  66.5441284  49.6526222  50.1775284  24.2168694  75.6857986
  51.0158920  23.8144321  75.4590302  50.3760376  25.1488285  75.7767715
  58.4888039  36.7807426   6.4668951  58.9917183  36.3453674   5.7785954
  58.9537849  37.6034088   6.6193562  69.5527344  30.9835796   1.0362897
  70.1273880  30.2189941   0.9986898  68.7367096  30.6516972   1.4107027
  37.9015236  67.8013458  31.7201252  37.9637413  67.2895355  30.9136467
  37.0388603  68.2137909  31.6760998  69.7593613  33.4779358  34.0293694
  70.0237427  32.5664749  34.1541672  69.4702530  33.7642365  34.8957863
  25.9841976  50.9663620  67.6099854  26.5063992  51.4587784  66.9766846
  25.7365894  50.1665993  67.1459732   5.1114016  22.8100281  61.7925987
   5.2697096  23.5055676  61.1543274   5.9261637  22.7530155  62.2917442
  79.0417938  56.7024994  86.6931686  79.7874603  57.1621017  87.0791626
  79.0434341  56.9723091  85.7747879  78.0489044   1.6063272  88.3559875
  78.6384125   1.4703035  89.0977478  78.6238403   1.8742183  87.6391068
  23.7898674  64.1408005  82.6348190  24.7385979  64.2623138  82.5977173
  23.4755993  64.4480972  81.7845078  51.0518723  31.9161396   5.6395626
  51.4131927  31.0715256   5.3706675  50.7671700  31.7781715   6.5429678
  52.0149040  69.7063904  55.2337914  51.5493279  69.6810150  56.0697517
  52.8918877  69.3817749  55.4381104   4.2934380  16.6352673  59.2580910
   3.6520007  17.0910454  58.7130623   4.4059763  15.7842436  58.8346214
  13.1344004  52.5295715  47.0707703  12.8468761  53.3337708  46.6385422
  14.0085602  52.3666115  46.7164841  39.1339417   2.6316657   7.7736640
  39.4729080   2.3205879   8.6130476  38.7852020   1.8470534   7.3505855
  66.3891983  63.3991280  19.0765800  66.1432266  62.5818558  18.6432304
  65.7897339  64.0518570  18.7148876  61.9940529  44.6911926  55.0249329
  61.5979462  45.2941399  54.3958206  61.2594261  44.1757202  55.3578606
  58.6752930   9.5018768  20.4572392  58.0493584  10.2212343  20.5406952
  59.2802696   9.7889328  19.7732563  46.6996269  47.4976959   3.8624635
  47.5751572  47.7525749   3.5714066  46.3503380  46.9743271   3.1411333
  53.2240219  11.3808775  32.0090599  52.6793518  11.8494139  32.6415482
  54.0306854  11.8939419  31.9611778  64.1414719  30.4841194  23.8913040
  64.1086884  30.2033234  22.9768047  64.2203293  31.4370174  23.8465862
  60.8442688  46.2136917  72.2181015  60.4325447  45.3499451  72.2437744
  60.1466484  46.8191147  72.4691391  49.8089180  30.9342003  23.6298008
  49.4673462  31.7245007  24.0481129  49.4630127  30.9667072  22.7378788
  62.3695488  18.0645599  73.7510376  63.1024857  18.5191078  74.1662750
  62.4554558  18.2717438  72.8204880  21.5221863  69.4733200  28.0138111
  20.8687153  68.7814331  27.9113312  22.3475952  69.0634003  27.7551556
  58.9438171  68.2946320  33.8227806  58.0996628  67.9209976  33.5697289
  58.7514839  68.8140564  34.6034431  30.0265617  57.3132362  63.9412155
  30.9394360  57.2493629  63.6604843  30.0300026  57.9939270  64.6141815
  42.9385719  56.1533546  40.5189781  43.1640167  56.1148872  41.4484520
  43.7044182  55.7933197  40.0716667  30.4124908   6.4957442  11.6188984
  31.0136013   6.8996429  12.2448092  29.8733139   7.2206597  11.3026419
  69.5283279  23.9145756  27.1219788  69.8578720  24.1980495  26.2691746
  68.9710236  24.6354980  27.4150887  11.4277706  71.5417328  55.7967796
  12.3216934  71.5106964  55.4559441  11.1228733  70.6354828  55.7522850
  86.7338867  61.5757904  62.1064339  86.7520447  60.8814926  62.7651100
  85.9228897  61.4243164  61.6210709  76.5375366  13.3489466  60.7465858
  75.9265518  13.6796999  60.0881500  77.1025543  12.7436247  60.2664032
  20.9670506  64.6558380  68.4775391  21.7926807  64.8348236  68.9275818
  21.0409851  63.7442856  68.1949997  80.1595154  26.7339687   2.4622686
  79.9023056  25.9746284   1.9393170  79.3925858  27.3065128   2.4465182
   8.4119091  58.8482132  13.7025156   9.2300749  59.2756386  13.4492483
   8.6687994  57.9544296  13.9292107  17.0717564  43.3506432  13.6130495
  17.3113594  43.6473465  14.4909945  16.1833019  43.0079460  13.7102022
  71.0015259  22.9187489   9.5362558  70.1712952  22.6820164   9.9496670
  71.4410095  22.0819473   9.3851080  86.1632080  30.7601719  28.1122837
  85.8177872  30.8907719  27.2291870  85.8338928  29.9002094  28.3735256
  18.8170490  44.7364464  51.5982056  19.3373775  45.0124855  50.8436890
  17.9287853  45.0311737  51.3973198  74.0274429  53.1846237  40.3292236
  74.0284424  53.5594101  39.4484520  73.4463043  52.4266319  40.2663193
  50.4471130   2.7314413  27.3287430  50.4088364   3.6871963  27.3647823
  49.6400223   2.4431696  27.7550507  46.8185234  18.2920704  62.4654770
  46.2271271  17.7453747  62.9827805  47.5193939  18.5282345  63.0731277
  56.4433670  51.9584846  27.7914162  56.7221603  52.4410858  28.5696182
  57.2591820  51.7328987  27.3444386  47.5305099  55.9325256   0.4647725
  46.6299171  55.9396973   0.1405599  47.6347427  56.7781067   0.9010718
  44.1078796  58.8835297  37.2021904  45.0487785  58.7347412  37.2959938
  43.7263184  58.0057144  37.1930618  26.2302475  26.3751354  75.7333298
  26.4924679  27.2902203  75.6328659  26.4005394  26.1768951  76.6541595
  27.8392296  64.9780884  22.4824314  27.9695072  64.7968521  21.5516205
  27.1076641  65.5949173  22.5062389  52.0420723  38.5728760  21.2866688
  51.5541573  39.1526718  20.7018547  51.8204994  37.6905899  20.9888363
  35.5543442  39.6566391  41.3691559  35.6281548  39.6785355  42.3232574
  36.3702545  39.2516441  41.0750427  34.5583382  66.1313858  81.5964432
  34.7265282  65.4436798  80.9522400  34.5156822  66.9369583  81.0812149
  27.1239433  49.2599487  43.0566788  26.6412716  49.7795258  43.6995621
  27.9919014  49.1459732  43.4438362  37.3899879   0.2556524  81.3013687
  37.7228889   0.5697714  82.1420441  36.6148987  -0.2584074  81.5276642
  71.1099701  59.3859596  10.4224672  71.3455582  58.6180573   9.9018364
  70.1678772  59.2975235  10.5669518  47.2979698   5.1217384  55.2997513
  47.2860451   4.2759085  55.7477036  47.9761124   5.0288587  54.6306267
  16.0383205  45.3871346  58.2842216  15.2554216  45.2532387  58.8184280
  15.7683525  45.1443481  57.3985558  80.4111328  27.3083649  42.6341972
  80.7925568  28.0758839  42.2079811  79.5392303  27.5942955  42.9067154
  53.0949478   9.5693817  23.0135345  53.8941574   9.3046923  22.5580788
  53.4025955  10.1002331  23.7482338  66.6884155  19.9503536  42.1217613
  67.3056564  20.2934151  41.4755821  65.8935852  19.7680244  41.6205215
  68.2881317  12.1245165  45.3716621  68.3911209  12.4455843  46.2675056
  68.1900330  12.9165401  44.8431664  73.6526871  65.7202454  14.0702610
  73.6586838  66.4697037  13.4748487  73.8415375  66.0959778  14.9301424
  14.3721561  41.3753395  27.2577839  13.5599270  41.2913551  26.7583237
  14.2639141  40.7733269  27.9940548   6.6474996   4.6607461  77.6755524
   6.7024908   5.3293738  78.3583069   6.8237414   3.8377807  78.1315155
  84.2937012  42.2853966  44.6403389  84.2059937  41.7650566  45.4389534
  84.9787979  42.9222717  44.8434677  81.4964447   6.1629643  59.8942833
  81.1358795   6.0341754  60.7715721  80.9574203   6.8561039  59.5131721
  64.3133392  45.3667068  26.7130642  65.1800385  44.9631462  26.6661472
  64.1562195  45.7000656  25.8296528  83.4883270  41.5322800  60.3460274
  82.9825592  42.1475182  60.8769798  83.1853485  40.6686516  60.6263504
  72.2912903  35.3612061  30.6460972  71.8227234  35.6025810  31.4451065
  71.7743912  34.6479530  30.2715073  50.5948982  70.0263443  23.8269997
  49.7140846  69.6603470  23.7467155  50.9144859  69.6991730  24.6678638
  27.4595776  63.2182236   4.0472159  26.8753128  62.5299988   3.7290742
  28.1961803  62.7463722   4.4358091  31.0340118   8.2414570  79.2345810
  30.9741039   7.5003800  79.8374481  30.1466961   8.3422117  78.8899765
  10.1815147  40.7982903  82.7704773  10.7382565  40.7311897  81.9947433
  10.5296488  40.1407852  83.3727493  69.9734268  34.1608505  12.9812889
  70.0859909  33.3208389  13.4261999  69.1849365  34.0470619  12.4506588
  57.6200294  16.7805061  67.3597641  57.8599167  17.6144733  66.9558029
  58.4568901  16.3525581  67.5407639  60.2284164  36.0102043  81.8217392
  59.3270836  35.8460732  81.5444412  60.5633507  35.1485252  82.0698471
  30.8579330  23.2301121  21.5513649  31.3552876  23.9456043  21.1552086
  30.5076237  23.6015053  22.3610458  45.2786140  69.7491760   6.8409586
  45.3586845  70.5683289   6.3522744  46.1396179  69.3383789   6.7625637
  79.4519806  46.8834877  71.3765182  80.2044525  46.9424744  71.9651947
  79.3562088  47.7670212  71.0209503   6.3336301  20.6377811  65.4948654
   5.4815774  20.8492641  65.8763275   6.7485232  21.4880066  65.3492203
   0.5841432  46.7252350  13.4746132  -0.2002306  46.1843300  13.5663290
   0.9581319  46.4640694  12.6330938  10.0508108  14.5455160  80.8305054
  10.5256739  14.1445179  80.1025314   9.7655916  13.8057852  81.3668594
   1.7048999   7.3986244  61.9434319   1.1316921   7.2214584  62.6892700
   1.1460911   7.8562055  61.3152733   6.7260561  38.6300926  71.3110886
   7.3327360  39.2191010  70.8624878   5.8582683  38.9221077  71.0319748
  59.7634010   5.5609818  31.1054955  59.8155861   5.8105612  30.1828804
  58.8332939   5.3918972  31.2556362  22.6728592  47.6245308  53.7197952
  23.0516376  47.1871643  54.4823380  22.5713062  46.9286346  53.0704498
  68.5721512  29.5761185  84.2850342  69.5191422  29.4677296  84.3727341
  68.3625717  29.1769714  83.4406433  38.4493790  68.1649170  64.9761658
  37.9116135  67.3734360  64.9516525  38.3958397  68.5184555  64.0882645
  80.7618637  34.8220787   1.1590518  81.2274399  35.5385704   1.5904500
  81.1456909  34.7800484   0.2831845  57.9563980  33.3681068  74.9468079
  58.6065865  34.0426369  75.1430054  58.1795883  33.0695267  74.0651779
  20.5527153  22.5057564  25.9078407  21.1944332  22.0802002  25.3392162
  20.8029270  23.4296551  25.9019566   2.8402634  11.9174538  71.0077972
   3.0230138  11.1294165  71.5194931   3.6277866  12.4530840  71.1033936
  29.3483925  69.4482880  57.0179214  28.6733513  69.4851456  56.3402824
  28.8755836  69.2056580  57.8140450  66.3871384  60.1654625  18.0039692
  66.4611053  59.5691643  18.7490788  66.7616959  59.6788750  17.2696877
   8.2492828  56.0279007  67.4893494   8.7214355  56.7556686  67.8938980
   7.5315847  55.8419495  68.0947952  10.9761953  33.1251640  26.7826385
  10.1414700  33.5901718  26.7257690  11.6364050  33.7959442  26.6082554
  77.2524338  53.1401978  35.3312607  77.6362152  53.5268059  34.5441933
  77.3978653  53.7943306  36.0147743  65.0569687  47.1804237  85.7582169
  65.2794342  48.1049423  85.6486359  65.4394913  46.7497864  84.9937210
  85.0568542  28.4330902  14.4273272  85.6333771  29.0197334  13.9377327
  84.8526306  27.7291794  13.8116684  41.2980042  57.8961449  55.1006660
  40.9264908  57.0965500  55.4732971  40.8787193  57.9785156  54.2441330
  53.5173798   2.5146201  62.0544968  54.3052292   2.9773583  62.3397980
  53.6369247   1.6196789  62.3723373  54.7042770  61.5161247  81.2162094
  55.1786194  60.9004135  81.7748947  55.3104706  61.7056885  80.5000916
  61.1293755  56.5826454  39.0270081  61.3654518  55.6597786  38.9331055
  61.2309494  56.9465408  38.1475220  20.0336361  29.4582157  52.9811478
  19.4266911  28.9151001  52.4782791  19.6613159  29.4801998  53.8626938
  56.7648201  48.1512756  15.0665798  57.6352997  48.5441437  15.0022020
  56.5876694  47.8162003  14.1876173  83.4617310  53.4385147  70.1466370
  84.2719727  53.0238724  70.4429703  83.7523651  54.1721001  69.6047745
  67.1611786  68.4244232  36.8284988  66.8125687  67.7356873  37.3944855
  67.1524582  68.0410080  35.9514885   1.7058996  26.1388950  10.7440434
   1.2710420  25.2919312  10.6451263   0.9909479  26.7752323  10.7562523
   5.7810111  43.1937027  26.4243946   6.7113767  43.4160957  26.3898468
   5.5647798  42.9285355  25.5304356   0.9428144  39.1655579  59.7828140
   1.6437948  39.4475899  60.3704491   1.3931520  38.6953621  59.0811386
  66.6158295  45.5031929  54.4759636  65.6859665  45.5494385  54.2536125
  66.9522324  46.3781319  54.2821770   8.3432131  55.1401100  52.8591232
   8.8773918  55.6532631  53.4653893   8.9751253  54.7459068  52.2578545
  79.4850693  45.0434799  59.5134583  80.4220200  45.2363281  59.4794312
  79.2032700  45.0624161  58.5988731  45.7909851  11.2780933  22.3157902
  45.0416565  11.8671589  22.4037800  45.4062500  10.4017458  22.3007183
  56.3066635  24.7084866  32.0769501  56.9872246  24.2596397  32.5785522
  55.6105194  24.0583210  31.9826202  34.1965828  15.1189566  74.9422379
  33.7112427  14.6719208  75.6356583  33.9335861  14.6705828  74.1384811
  78.8296738  55.7670174   9.7992773  78.0566635  55.2372475   9.9942875
  79.3276215  55.2424088   9.1723289  47.6298561   1.2084069  33.4620132
  47.4858856   0.3478400  33.8556213  48.3265877   1.0652713  32.8214569
  31.1326733  13.9494934  80.0886536  30.8907261  13.0265112  80.0125198
  30.8202343  14.2082701  80.9556351  23.3085575  59.4114380  80.2661362
  24.0533257  59.6949730  80.7963867  23.6641827  58.7255898  79.7010117
  64.8902512  46.7888641   1.9065710  65.1748276  47.6961174   1.7963827
  64.7416077  46.4744835   1.0147756  47.6984253  43.3864288  51.1168747
  48.2202568  42.6182365  50.8849182  48.2406769  43.8635635  51.7449951
  41.2940826  23.8893890  79.8176041  41.6565170  23.7514534  80.6927338
  41.3027420  24.8395195  79.7018051  61.4819641   3.7419267  28.7716312
  61.1881104   4.6434693  28.6408539  61.6070633   3.6656187  29.7175484
  61.5794983   6.7552228  29.0521603  62.2757950   7.2368913  29.4986973
  61.2661819   7.3576336  28.3775005  81.7149963   5.5943089   5.0724339
  81.8599548   6.4783535   5.4096031  82.4570465   5.0875220   5.4022174
  86.3125687  30.8039150   8.7295675  85.5963745  30.6519337   8.1129618
  87.0450363  31.0851841   8.1812859  54.0720558  63.0665627  63.4292603
  53.7929001  63.4216385  62.5853233  54.5010834  62.2392235  63.2109108
  75.6981735  22.0850182  87.2435226  75.8160934  22.8429337  87.8161392
  76.4909286  22.0641613  86.7074966  45.4688988  66.6995392  18.8478470
  45.9395981  67.2182999  19.5002022  44.5449677  66.8206863  19.0667305
  29.1699314  68.8586349  38.3470345  28.9647007  68.8497314  37.4121361
  29.4089985  69.7670364  38.5311279  56.8670006  66.8410034  54.1790848
  57.4798241  66.5556870  53.5013924  56.2405548  66.1211472  54.2539749
  67.2568817  28.7930737  81.3103638  66.4615631  28.4879856  80.8737640
  67.2201309  29.7466774  81.2360535  54.6384430  57.8555069  68.9631271
  54.1881409  57.0129814  68.9030762  54.3329277  58.2320900  69.7883987
  79.8191376  30.7699471   9.8357000  78.9637833  31.0939369  10.1178846
  80.0804443  30.1551208  10.5212231  55.4528198  62.6458969  40.5444374
  54.5482521  62.3863602  40.7194672  55.9339561  61.8198166  40.4962234
  59.3192863  22.2911568  71.7135849  59.2217560  23.2304325  71.8700485
  58.6471977  22.0855312  71.0637741  47.2857666  32.7807350  13.2233124
  47.9291840  32.2527580  13.6960583  47.7810020  33.1761513  12.5059433
  61.8336372   6.2091947  23.4727345  61.1582603   6.6422215  23.9948292
  61.8750381   6.7194743  22.6639481  85.8993225  20.5009060  56.8103371
  86.8366928  20.4397469  56.6264229  85.7055740  21.4368362  56.7581444
  60.3979836  31.5271950  82.4584961  60.5394287  31.2999477  83.3775101
  60.7609482  30.7881031  81.9704056  67.3002319  21.1675282  36.0697784
  67.8004837  21.0901070  36.8821754  67.2294922  22.1104450  35.9209938
  29.8623199  69.9418259  73.5662766  29.2075920  69.5194016  74.1222687
  29.4625778  69.9596329  72.6967239  50.5020409   3.3834760  48.9987144
  51.3301926   3.2791848  49.4672432  50.1840286   2.4895115  48.8725052
  54.9974518   4.3343801  88.6880035  55.8239784   4.6673236  88.3383789
  54.8787231   3.4879768  88.2570267  64.8587036  69.0105591  70.4701004
  65.1731186  69.1062851  69.5710983  64.1536407  68.3659668  70.4098892
   9.6821728  45.6515045  60.2873421   9.7095680  44.8765602  59.7261467
  10.5316629  45.6579552  60.7284279   0.0957296  32.0898666  55.8651276
   0.5224764  32.9085732  56.1177979  -0.0573562  31.6341801  56.6928635
  12.2906618   7.4700556  11.7987652  13.2406998   7.4544210  11.9145880
  11.9406948   7.2358198  12.6583509  85.6749649  21.3226337  65.4331970
  85.8325806  22.1603127  65.8687286  86.4801865  21.1513538  64.9448242
  49.8279495  18.6613197   6.4486947  48.9008904  18.8047619   6.2583876
  50.1265793  18.0729904   5.7552094  38.9505196  36.8373413  13.0103846
  39.5810699  37.2628822  12.4293928  38.1987114  37.4296761  13.0229006
  50.4846039  65.4092560  23.2516079  49.8426704  65.3693542  23.9605236
  50.0605736  65.9356766  22.5738811  42.6360855  63.9894676   6.6352983
  42.6254845  63.6919823   5.7255607  43.1648903  63.3369865   7.0945039
  15.2462425  27.6988182  83.4958344  15.6863737  27.0050793  83.0046692
  14.4610243  27.2808437  83.8493347  82.1670837  42.9771080  20.1991749
  82.0872421  42.4614296  21.0016289  81.4720688  42.6450310  19.6309223
  82.3793564  52.8836441  42.4954910  81.7546310  53.4987297  42.8796921
  82.1982651  52.9137802  41.5560608  50.4916496  14.8551998  82.4038467
  50.5957336  15.7886477  82.5884399  49.9286842  14.5331554  83.1078339
  81.2454681  32.6103783  15.3281336  80.9498672  31.7877808  15.7182388
  82.0937042  32.7788429  15.7384243  58.1502113   9.4288206  11.5280800
  57.4643211   8.7839632  11.3550367  58.1589355   9.9842463  10.7485561
  48.4894981  25.2696781   3.2765980  49.2055473  24.6561031   3.4410167
  48.5441437  25.8996563   3.9951901  72.3742676  10.5598879  36.7076874
  71.9585571  11.3035679  36.2713852  72.4444046   9.8911438  36.0264473
  26.0070896  37.6395683  68.0629654  26.5369568  37.9886513  68.7796326
  25.1282196  37.5569649  68.4330978  13.0623446  63.5904465   5.8483338
  13.7892437  64.0459366   6.2730403  13.3134375  63.5466957   4.9256911
  71.5322800  54.8199654  71.9434433  71.2386246  54.7901115  72.8539963
  70.7271347  54.9184227  71.4352264  77.3323441   7.8206601  12.5585594
  76.7573318   7.0705471  12.4071722  78.0364227   7.7157178  11.9186401
   6.1960740  12.1766777  25.5967216   5.6082616  12.8818483  25.3257179
   6.0874829  12.1260138  26.5463924  27.1607304  38.5486641  80.3700180
  27.2860565  39.0832520  79.5859604  27.4633961  37.6767387  80.1162949
  25.4726696  51.0899010  14.7199621  25.5270786  50.1549835  14.9179592
  24.9863911  51.4625740  15.4554062  82.7443771  46.8691368  51.7857895
  82.9907227  47.4043846  51.0314293  81.7949448  46.9711914  51.8520660
  78.5299911  57.1017609  79.3050690  78.7020340  57.2961884  78.3837509
  79.1117477  57.6898613  79.7866516  56.7014351  66.5236740  10.9958162
  55.7660675  66.7167206  10.9321451  56.9450340  66.8070602  11.8770561
  83.1266861  60.9295654  24.8864021  82.4304810  60.7656746  24.2502708
  83.0771027  61.8698006  25.0588264  13.2991285  38.0269394  45.4971924
  13.9810791  37.6371918  44.9501381  12.5084038  37.9866638  44.9592667
  17.7825966  55.3545113  88.3681183  18.7071877  55.2333870  88.1520309
  17.6802654  56.3017578  88.4602509  50.8332863   8.1048241  20.3015614
  50.5661926   9.0239964  20.2975941  50.3001404   7.7034454  20.9877701
  25.5642338  58.4593658  15.7216187  25.2767029  59.0431480  16.4235840
  25.6137276  59.0210800  14.9481468  60.3187408  51.1347427   0.1055991
  60.4394417  51.2841148   1.0433365  61.1449547  51.4130554  -0.2895596
  63.2827873  64.3064804  57.2178993  63.7816162  65.0600891  56.9025040
  62.5543022  64.6891174  57.7069054  54.8026123  13.4054718  79.6180573
  54.2017632  12.6695795  79.7349930  54.2519608  14.1135025  79.2838211
  50.3917122  63.8661499  75.3998032  50.7221642  63.7120323  76.2848282
  49.5944176  63.3391457  75.3466797  36.5819359  59.1255493  49.0309639
  36.4638977  59.6932869  49.7925224  36.3508110  58.2515945  49.3456268
  31.5807896  65.5581055  19.7372952  32.4651184  65.2851181  19.9815769
  31.7109070  66.3423691  19.2041550  27.9915714   5.6899271  18.3775177
  27.5454044   5.0958238  17.7740192  27.4627590   5.6629338  19.1749268
  76.5573425  64.4732819   0.2609453  76.5463562  63.6526070  -0.2316054
  77.1858215  64.3206940   0.9666136  53.6775246  49.1536903   1.9283727
  53.0949974  49.8841782   1.7203354  53.8785896  48.7585831   1.0800247
  78.2712479  23.8088474  18.9474621  77.8989182  23.0767460  19.4390182
  78.5253296  24.4429722  19.6179562  67.8737335  25.1900845  51.9123383
  67.7796249  25.7661133  52.6709976  68.8087845  25.2128315  51.7088737
  75.4597397  22.1018810   6.6068330  74.8859024  21.3369007   6.5650544
  75.8505173  22.0607738   7.4796662  23.3484516  55.1758652  30.8440933
  23.8760242  55.5705566  31.5384407  22.8322906  55.9017334  30.4934883
  60.7157631  58.2972755  52.1018028  60.7065849  57.3409576  52.0618095
  60.3148003  58.5752983  51.2782936  36.7369347  35.0101624  16.0225124
  36.8454742  34.5455513  16.8523235  37.5662270  35.4710846  15.8958273
   3.5932837   6.9309778  11.8841524   4.1306915   7.4702067  12.4643736
   4.2257161   6.4424949  11.3572321  62.9524879  17.6586552   1.7806760
  63.7788048  17.2184334   1.9797549  62.9372215  17.7188244   0.8254911
   2.3923728  38.7754669  71.8931122   2.3387575  38.2043343  72.6593857
   1.4805138  38.9543571  71.6634521  81.5712204  31.1508408  50.1809120
  81.7421799  30.8544750  49.2869492  82.0398636  30.5259228  50.7341614
  27.2319088  40.7129135  62.7294083  27.2074738  39.7887115  62.9773750
  27.3261051  40.7029266  61.7769089  25.7911835  16.7366142   6.0587678
  26.2961712  17.2953777   6.6495347  26.3645039  16.6068935   5.3033152
  47.8296089  59.9259109   4.3054323  48.3750076  60.3441429   4.9716573
  48.0298042  60.4012032   3.4990528  70.9240646  45.6621399   2.7482755
  71.6865005  46.1915321   2.9820828  70.1761322  46.2408295   2.8964179
  17.2729340  71.6403503  63.8075600  17.4675331  72.2676392  64.5038834
  17.2299824  70.7940521  64.2527161  35.6401024  10.2218323   8.5035095
  36.2974472   9.7165442   8.9818516  34.8135529   9.7763510   8.6895113
  46.2914085   8.0739136  17.0540142  46.4695702   7.2870283  16.5389404
  46.8343544   7.9761696  17.8362465  81.6572113  22.7589340  42.3720894
  81.4454117  22.4333725  43.2469482  81.1319733  23.5536766  42.2786179
  63.1635132  38.4883575  67.1975174  63.1478691  38.6222153  68.1451797
  64.0927887  38.4090614  66.9821396  69.8159256   6.9175882  66.2285767
  69.7860336   7.0848422  67.1705780  70.6244354   6.4218822  66.0988693
  69.0921936  21.8482876  68.6000748  68.7876205  22.5503960  69.1749725
  69.4604187  22.3021870  67.8420410  34.1863480  65.7080383  58.5807190
  34.8147812  66.3025894  58.9903564  34.3761444  65.7669525  57.6443748
  54.6632423  28.8385277   4.1448679  55.6043587  28.8835239   3.9760168
  54.5780525  29.0300083   5.0788431   1.4725343   5.0217056  84.8533478
   1.3911351   5.0679784  83.9007339   1.6659153   4.1015778  85.0327911
  64.6846695   8.1426344  75.7585602  64.0522232   7.5042753  75.4288025
  64.1536407   8.7839909  76.2306900  68.0498657  43.6581306  72.6841888
  67.5364456  43.1583824  72.0494537  67.4141998  44.2389946  73.1022263
  27.7540302   3.2241962  27.1507778  28.4926910   3.4310150  26.5782070
  27.5260792   2.3209267  26.9308376  73.5217819   0.6684214  34.9356918
  73.1164246   0.0188374  35.5101051  72.8708496   0.8220210  34.2509117
  59.1393509  61.0191917  19.5525303  58.7845039  61.7133293  20.1079483
  59.9578056  60.7658043  19.9793282  50.4649429  23.4700966   3.7882419
  51.2563744  22.9485664   3.6545453  50.1785164  23.2479248   4.6741481
  61.3874855  51.6215706  38.3260422  62.0040398  51.9372520  38.9866753
  61.9190521  51.0820732  37.7407112  34.1168404  18.7455292  17.6601410
  33.6015244  17.9584579  17.4835110  34.6351318  18.8756886  16.8659973
  51.7027435  36.4403648  19.6825943  52.2949295  36.9651337  19.1439228
  52.1468315  35.5974960  19.7752857  65.9198074  47.5578728  13.2035284
  66.1911469  46.6617279  13.0046968  66.7060928  47.9731789  13.5577917
  44.9783096  58.0623589  69.8051910  44.2631721  58.3206100  70.3866653
  45.5452652  58.8325958  69.7661057  25.6604805  59.5605202  64.6290588
  26.4410057  59.5362396  65.1826172  25.3546124  60.4657555  64.6858902
  42.4674263  18.9092159  64.2783737  42.8163757  19.7563877  64.5554428
  41.8436356  18.6712093  64.9642868  33.4258232  61.9142876  46.1186943
  33.0258064  62.7195625  46.4469452  32.8252525  61.6082954  45.4390488
  71.1547546  26.8061619   8.5368576  72.0878525  26.9782829   8.4105806
  70.7221527  27.3179893   7.8533974  61.0326385  23.3603992  83.3370895
  61.4452324  22.5014954  83.4280930  60.2509384  23.3101063  83.8872223
  22.0658512  45.0572586  14.4358397  22.9951878  45.2755737  14.3658161
  21.8995132  44.4769440  13.6930075  48.4085960  35.7811356  42.6412048
  49.1216545  36.0498810  43.2204742  47.6249657  35.8264580  43.1890144
  55.9780312   2.5584857  81.9519043  56.8632469   2.4031489  81.6225204
  56.1034546   2.8072746  82.8676605  16.7337284  47.1575470  85.8528061
  16.4033566  46.4482155  86.4041061  17.5761833  47.3912659  86.2425232
  11.5950518   5.2273817  82.1696701  12.4130793   5.7146983  82.0717621
  11.4501152   4.8278975  81.3119812   7.2733259  49.6092110   1.9427726
   8.1790228  49.8924141   1.8173101   7.2628298  48.7003174   1.6427115
  55.7464790  42.1244774  81.7393570  56.4462814  41.5031433  81.9404907
  54.9400749  41.6202888  81.8477173  54.2334747  34.6190491  68.9511414
  54.6646118  34.2859077  68.1641464  54.8387680  35.2753830  69.2962189
  15.4342079   2.8708246  60.4269676  16.0605717   2.6418579  59.7403259
  15.9360332   2.8078163  61.2396355  26.7073555  37.6051559  20.0768032
  25.9852638  38.0806732  20.4875298  26.9402428  36.9280205  20.7120075
   2.2319605  67.1557846  27.0686073   3.0223663  66.8011322  26.6615295
   2.0683839  67.9746780  26.6007538  18.0277843  68.9279633  54.1336899
  18.7786865  69.0754700  54.7086830  18.2128620  68.0908279  53.7080345
  52.5561523  10.3395004   6.8017859  53.2345657   9.9926481   7.3811684
  53.0264168  10.5942116   6.0079308  38.5014839  45.6712570  25.9148197
  38.0391388  45.6533394  25.0768757  37.8996582  45.2514191  26.5294571
  83.1523361  69.9768982  30.9596233  82.4333649  70.4935379  30.5957642
  83.4789352  69.4660263  30.2189674  74.4312286  37.0136185  76.5481186
  73.6665726  37.5882835  76.5840836  74.9173660  37.2114296  77.3486023
  73.8947067  14.4730053  20.7594929  73.9579010  15.4185228  20.8945293
  74.0092239  14.3575993  19.8162003   0.6797026  52.3325539  46.3632431
   1.2429355  51.5646172  46.2669373   0.5744663  52.4352951  47.3090782
  32.9753189   4.8598251  77.5847549  33.3326187   4.1910605  78.1689835
  33.2900238   4.6114492  76.7155609  80.2470932   1.2563688  69.8773804
  80.4740829   0.7514451  69.0965118  80.5662842   2.1396627  69.6926117
   7.3519139  52.0537910  75.9512100   6.4633851  52.2715645  76.2328491
   7.2325277  51.3814774  75.2804108  21.1488857  31.5321236  36.6804237
  21.0968323  32.4327927  36.3605499  20.8475780  31.5823421  37.5875778
  81.2573318  27.6007919  35.5410690  81.5062714  28.0511532  34.7339516
  82.0101318  27.0471210  35.7483635  50.0721855  43.5084724  29.3858967
  50.6587982  43.8726959  28.7229805  50.5303726  43.6491241  30.2144585
  45.3322678  63.3035698  35.7902565  44.9217453  62.4531364  35.6338387
  44.8641281  63.6602936  36.5451279  17.8549671  64.5398331  20.1620846
  18.3854733  65.1606903  19.6627579  18.4895611  63.9268608  20.5332813
  12.5203209  26.5251141  84.2560349  11.9476013  27.2851696  84.3586884
  12.1692934  26.0616722  83.4956207  80.5787201  22.0851536  17.0429726
  79.6901550  21.7610207  16.8959312  80.9238663  22.2447815  16.1645489
  12.2997446  48.4138908  17.0554028  11.7595978  48.8576393  16.4015217
  11.6745653  48.0964432  17.7070236  20.1219597  14.1186657  27.0049286
  20.7623024  13.8028555  27.6424694  20.5218124  13.9379921  26.1542187
  55.0871391  59.0460129  32.7924767  54.9438286  59.6706238  32.0814514
  55.4318428  59.5760994  33.5111008  60.5684853   0.8474055  15.4022264
  60.1186676   1.5191236  14.8896923  60.6525421   0.1054367  14.8033533
  63.8376007   4.3135819  47.7554665  63.8137283   4.2510347  48.7103233
  63.1597481   4.9542761  47.5403900  84.4978561  68.0944138  17.2700405
  83.6957169  68.3871613  16.8374863  84.2525024  67.9987335  18.1903000
  49.8182335   0.5331419  11.1687927  50.7209320   0.2794911  11.3612289
  49.8309212   1.4901987  11.1794186  74.4614334  18.7841473  28.0869350
  74.5267487  18.5848160  29.0208683  74.0412598  18.0129433  27.7062397
  52.7517052  64.1646194  48.0671463  53.1774826  64.6284103  48.7881508
  51.8386421  64.0811386  48.3420639  30.9519882  46.1676483  16.7410374
  30.9324970  46.1257668  17.6971207  31.1393375  45.2702370  16.4657536
  21.2637138  57.9855957  10.0354319  20.8399200  57.1881638  10.3528118
  20.7398777  58.6976318  10.4026251  54.2966576  41.4537430  66.7046127
  54.2860565  41.7651558  65.7995453  55.1991692  41.5884323  66.9936905
  16.2664642  25.5472565  77.8356247  15.3927097  25.7869339  77.5268555
  16.5766277  24.9023972  77.1998672  28.5605621  37.5541077  23.1358395
  29.2212677  37.0632591  23.6244755  28.3227711  36.9779396  22.4093990
  57.8582191  37.4012756  81.8879547  58.6201515  37.9790840  81.8452148
  57.5456581  37.4833069  82.7889633  22.5445366  49.7153816  71.6442795
  22.1450214  50.5621986  71.8430862  23.0229568  49.8619347  70.8282700
  47.3212700  47.8969574  61.7411346  47.7321281  47.0537109  61.9318199
  47.1851730  47.8882790  60.7937012  45.3674812  47.3963356  47.0648346
  45.3499222  48.2143707  46.5681076  44.7705765  46.8162460  46.5921555
  14.9146538  14.4606905   0.8206366  15.8669338  14.4900351   0.7282608
  14.6332569  13.7970982   0.1908010  16.1907310  63.7718391  50.6728096
  16.0016155  63.8950882  51.6030121  15.4993029  64.2561646  50.2216034
  85.8225250   1.1388682  12.3998013  86.1066589   0.2504193  12.1849489
  85.3646622   1.0483892  13.2355061  60.7688942  44.9423256  58.6280441
  60.4007072  44.5510941  57.8358269  60.7157478  45.8859024  58.4761505
   6.6410728  32.4999580   2.8503861   7.5827374  32.4387245   3.0108542
   6.5546303  33.1894035   2.1920369  70.4764786   2.8354304  19.4029102
  71.0741959   2.5041888  18.7326546  70.0163193   2.0578408  19.7188892
   6.2348595  35.0885201   4.4501052   6.3644118  34.1926804   4.1387787
   5.7999320  35.5341721   3.7231519  40.5687103  64.2214813  11.6379185
  40.5916138  64.1027451  10.6883879  39.9709129  63.5421143  11.9498997
   1.8880402  69.9261017  44.4059334   1.6041986  70.7029343  43.9240646
   1.3529948  69.2157974  44.0517769   7.3722353  10.4623089  13.5041237
   7.9014730   9.7577887  13.8780107   7.5027165  10.3842077  12.5590801
   8.0730057  23.4704399  70.4710236   7.3407059  23.3838825  71.0813293
   7.6602664  23.5431519  69.6104507  10.8781939  22.8735294  16.9726162
  10.9125204  23.8301144  16.9732208  11.0215340  22.6292992  16.0582657
  20.0367870  41.6460342   9.5746536  20.4538288  41.0492210   8.9532690
  19.6043739  42.2999077   9.0253763  28.8619251  15.6208496  37.0466042
  28.5182228  14.9289465  37.6117325  29.7620716  15.3534346  36.8609772
  75.4634705  59.6447868   8.6558113  75.2159882  58.8240204   9.0816336
  76.2626114  59.4328880   8.1734266   7.8854098  17.7620258  56.4250679
   7.9814739  17.2923279  55.5965843   6.9459519  17.7373619  56.6068420
  80.8802032  41.0627823  22.1875687  80.2406921  40.7227554  21.5617580
  81.1986237  40.2874260  22.6498070  32.2115097  58.4450798  46.1046791
  32.2079353  59.3862724  45.9303894  31.3992081  58.1256523  45.7117882
  42.7353859  63.7843361  76.2636948  42.0267258  63.2882233  75.8539352
  42.3036537  64.3015518  76.9436417  18.9230156  49.1482697   6.8221502
  19.7490578  48.7560577   6.5392065  18.4339046  48.4227295   7.2102156
  82.6733704  36.5503883   2.4964085  82.5414581  37.0319748   1.6797667
  83.3981552  35.9540825   2.3084161  11.7332468  51.4294586  50.1957893
  12.5266171  51.9626503  50.1457977  11.4693613  51.3066368  49.2839165
  49.9974251  18.2949047  17.8882847  49.3985748  17.5659466  17.7263222
  50.4074097  18.0861053  18.7276573  71.9878006   6.1154475  77.4393005
  72.5151520   6.9049873  77.5607910  71.3839798   6.3374391  76.7305298
  55.2719612   2.7847502  28.9209862  56.0611992   3.2773395  28.6958466
  54.5673981   3.4316766  28.8848286  74.0380325  36.4735184  51.9169807
  73.9071045  35.5569229  52.1597710  73.1740646  36.8733978  52.0164413
  49.7819252   5.6535511  71.6189041  49.6894417   4.7335920  71.3712006
  50.7199745   5.7673149  71.7717133  18.2392178  39.4305382   4.3398542
  17.6013641  39.8080330   3.7341521  19.0221043  39.2911453   3.8070421
  23.3060875   3.7776163   2.8220627  23.3046703   4.2640858   3.6464274
  24.0447903   3.1740775   2.9013848  13.2562475  69.0734482  85.4907990
  12.5384941  69.2871933  84.8946686  14.0426340  69.1267548  84.9476776
   6.5975280  24.6421528  12.8036146   6.5060368  25.5208664  12.4352064
   7.2344708  24.7440720  13.5108261  74.4006271   4.3470149  23.5105801
  74.7675400   5.0807543  24.0037689  73.7698975   4.7506981  22.9143829
  35.4877014  62.3090553   9.3019791  35.9157028  62.3512878  10.1571178
  35.2923431  63.2210236   9.0866175  60.1013870  21.4316216  47.3108902
  60.5977440  22.1841335  46.9890404  60.7638397  20.8485527  47.6815872
  31.4282646  28.0944824  66.9431992  32.1547241  28.5123425  66.4807281
  31.6968937  27.1803417  67.0349350  77.3836670  40.3275681  60.2976875
  78.1803513  40.5074501  59.7985229  77.0694656  41.1908226  60.5665855
   7.6572371  53.9082642  72.0581360   7.9637480  54.0820045  72.9481354
   8.4171362  53.5347290  71.6117554  80.0217361   8.6249037  36.9241486
  79.8818207   9.2487574  37.6365089  80.1288223   7.7807865  37.3625870
  50.3679962  16.9719028   0.8187479  50.2882690  17.4056816  -0.0307878
  51.3070107  16.8172493   0.9215210  28.9118118   7.9516811  21.1480808
  28.2435913   7.2972093  21.3515034  28.9040356   8.5436954  21.9002037
  53.9149704  69.1681061   4.4016871  53.4236488  69.8824615   3.9960554
  53.9819145  68.5037613   3.7158310  20.8415031  52.4207535  35.8329811
  21.3109818  51.5963821  35.7055511  20.6937561  52.7516632  34.9470367
  71.9865494  35.8869171  57.6321297  71.0489120  35.8025665  57.4590492
  72.0392990  36.4789162  58.3824539  85.8467560  47.8218231  38.6496773
  85.6973572  48.7524719  38.4829369  86.2634888  47.4992142  37.8506203
  36.3686447  62.6362190   4.1917152  35.9240265  61.7892990   4.1560569
  36.2319870  63.0152168   3.3234320  15.3577394  60.0165634  55.2037468
  15.7815247  59.2382469  54.8419952  15.9215307  60.2800713  55.9310265
  36.7786903  61.8585701  76.1961670  37.6659470  61.5003738  76.1696014
  36.3990974  61.6210976  75.3501511  29.7242775  32.9308205  76.8999329
  29.8509407  32.7828445  77.8371048  30.0032883  33.8357735  76.7604752
  54.0309792   5.7223830  68.2396698  53.6463852   6.4851990  67.8078918
  54.8945160   6.0195341  68.5264359  40.9450760  58.3734016   9.1779995
  41.1447525  58.7651062   8.3277483  40.1888428  57.8108864   9.0108957
  19.1330395  60.8936615  70.2364273  18.8779335  61.8051605  70.3789978
  18.3064022  60.4335747  70.0907440  30.7688084  25.6868896   5.5850501
  30.3151665  26.5040531   5.7916532  31.2654247  25.8828926   4.7905779
   7.8818073  60.4250107  64.9445496   7.5040226  61.0195847  65.5926132
   8.4595394  59.8542633  65.4512100  27.8891087  45.1573105   9.9797916
  26.9934826  45.0583267   9.6568527  28.4401894  44.9430809   9.2270317
  86.1975632  12.0252314  23.7540321  86.0687027  11.1343479  24.0795383
  85.5914154  12.5582361  24.2685432  41.6208420  17.7276363  82.7300262
  40.9997787  17.6075306  82.0116425  42.0113869  18.5863781  82.5679550
  80.2287445  57.7231979  52.6640930  80.7706299  57.0389633  52.2711334
  79.8186798  57.3002281  53.4185333  30.6971302   8.7378855  84.5034790
  30.5343056   8.9074745  83.5755997  29.9100456   9.0547228  84.9465866
  85.7375717  10.2763729  28.2842216  85.7252884   9.4909039  28.8311386
  84.8410263  10.6094074  28.3231907  30.7208424  54.3280373  76.8997421
  31.0299015  54.9753914  76.2659836  29.9169941  54.7064056  77.2559662
  70.6527710   2.4572787  28.5551720  71.4908676   2.0400279  28.7544823
  70.8893967   3.2605231  28.0914516  69.1972351  52.5772324  73.3859482
  70.1107635  52.3287125  73.2447891  68.9437714  52.1144066  74.1845627
  26.4981823  37.4078636   2.3841274  25.7015057  37.8823128   2.6216900
  26.2463360  36.8817863   1.6251494  86.1054001   1.8343618  21.7861919
  85.5810776   2.5690711  21.4675732  85.4745102   1.1248467  21.9078522
   2.8429651  17.7646255  57.1253510   2.0181546  17.5501919  56.6895294
   2.7488008  18.6831570  57.3776703  45.8838692  59.0531197   8.3618994
  46.4146385  58.4533691   8.8861265  46.0107956  59.9077721   8.7738390
  35.4324722  19.5848980  85.7391815  36.3478317  19.3052158  85.7502518
  35.3397598  20.1320629  86.5190811  50.0815620  68.6748810  34.4496765
  51.0008392  68.4297562  34.3444443  50.0208855  68.9964523  35.3491974
  49.1846695   3.8615794  29.9115429  49.6015549   4.2349916  30.6880741
  49.4033165   4.4705062  29.2061100   7.9861050  32.6915779  88.6356964
   8.0143461  33.0040512  87.7313766   8.7385893  32.1046448  88.7099075
  24.4307766  19.2650967   1.6372879  24.7244434  19.6993713   2.4381614
  23.6404648  18.7918491   1.8974367  62.1449432   1.7163379  82.9151459
  62.8701172   2.2612035  83.2208862  61.9261894   2.0704029  82.0531616
  23.5367126   1.9521836  26.7006893  22.9291935   1.2127656  26.6803608
  23.2678699   2.5033309  25.9657116  73.2735901  47.0287743   0.9812536
  73.9751434  47.1168327   0.3360359  72.4725876  47.2134781   0.4908424
  79.1085892  43.1422272   4.0538106  79.1169739  43.6544075   4.8624091
  79.8526764  43.4748459   3.5518818  11.3673038  16.1664276  29.9483547
  10.5778904  15.9337358  30.4371414  11.0631657  16.7814331  29.2808971
  67.6100159  18.0415897  24.9257736  66.7229462  18.4001560  24.9536171
  67.6391754  17.5374985  24.1125870  73.6140976  17.9707699  53.9658928
  74.5579147  17.8155193  54.0025482  73.4915161  18.5193481  53.1911240
  16.4036388  43.5354576  81.3055267  16.6457119  42.6699715  81.6350250
  15.4485989  43.5106544  81.2462387  76.5148697  30.9023666  18.0769215
  76.4888687  31.8193970  17.8037777  76.5875931  30.4107533  17.2588387
  61.4273415  49.4497986  60.1811371  62.1015778  49.7758141  59.5850220
  61.5060463  50.0038147  60.9577370  73.0785828  16.3040524   3.4188938
  72.7239685  16.5639839   2.5686495  73.7784271  15.6861038   3.2077322
  37.7510185  55.1692772  52.6444244  38.0067635  54.4274025  53.1925545
  37.3889542  54.7693062  51.8537521  30.0570641  47.6650391  26.7739830
  30.4679184  46.8495445  26.4869289  29.1805840  47.6397209  26.3900909
  50.4940262  38.6874123  84.2054062  49.5764923  38.4223824  84.1411896
  50.7327576  38.9419327  83.3140869  44.2789497  66.4437866   7.3661513
  43.6716537  65.7365799   7.1487002  43.7249413  67.2208023   7.4406214
  49.7382736   0.9166043   6.9514694  49.1488380   0.7791541   7.6930251
  50.3287735   0.1635325   6.9720893   8.1060848   8.0221024  74.2780075
   7.5213313   7.7958374  73.5547485   8.6768980   8.7023392  73.9206772
  69.8993073  26.5054169  70.8334122  70.1878281  26.1682949  71.6815491
  70.7069168  26.7726765  70.3945923  84.8670425   1.5241021  44.3237877
  83.9221115   1.3899813  44.2506561  85.0554962   2.2379467  43.7145691
  26.4127922  70.6328430  47.6538391  27.1310310  71.2654572  47.6668777
  25.7020416  71.0676880  48.1249847  81.9726257  30.7630653  73.3158112
  81.9480591  29.8069553  73.3543015  82.8216400  30.9652119  72.9226990
  43.7868500   3.4724188  49.2842369  43.3196030   2.9068995  48.6693420
  43.3448372   4.3186007  49.2147293  48.4668465  62.3063087  13.7304707
  48.0358353  61.4645538  13.8785076  48.3933983  62.7635994  14.5681591
  71.1737823   2.3783076  71.8716278  70.8326416   2.2559183  70.9856949
  72.1006241   2.5814447  71.7454529  54.3765602  32.4596710  11.7496080
  55.0848312  31.8165169  11.7189655  53.6906319  32.0361671  12.2657232
  58.2490120  67.7795563   9.1689739  59.0828094  67.7941666   9.6388683
  57.6355629  67.3747406   9.7821894  20.4964676  12.3515120  21.2631264
  21.4144440  12.6152868  21.2001076  20.3113098  11.9266405  20.4256096
  60.3688622  55.5487022  32.8895683  59.4229889  55.5181770  32.7459679
  60.5715446  54.7216949  33.3268509  81.2260971  36.9769783  72.1969833
  80.3156204  37.1049995  72.4632034  81.5123367  37.8405685  71.8994675
  63.1101494  54.3815765  80.2315063  62.6298981  54.1712646  79.4306564
  63.9121895  54.8051071  79.9255905  17.0689125  58.7645264  26.7521667
  16.3995953  58.1236763  26.9920807  17.6976929  58.7355309  27.4732952
  46.2845001  46.3028297   9.8425579  45.9704247  45.6089630  10.4223309
  46.8866844  46.8131180  10.3840494  50.5679855  17.0957699  40.2052422
  51.3591309  17.3049870  39.7087097  49.8963394  16.9556866  39.5377846
   0.2300446  54.9044762   9.1654959  -0.0747030  55.3307495   9.9665260
   0.6744192  54.1130600   9.4695082  64.3314590  20.1819210  70.8465881
  64.9923172  20.5869350  70.2849274  63.5554237  20.7316742  70.7380981
  52.4107208  31.8217125  13.5833635  51.8542671  32.5942307  13.6823902
  53.1579971  31.9896164  14.1574879  36.1181641  17.2948685   6.7886229
  35.9747849  17.3500786   5.8438339  35.2384605  17.3094978   7.1656384
  18.0729237  13.0079136  86.3185501  17.2300034  12.5761003  86.4573135
  18.0593624  13.2694578  85.3978806   2.5853012  36.1316872  32.0494270
   2.2564652  35.8183746  31.2068520   1.8016690  36.4080429  32.5245895
   7.8745027  48.1622353   8.9138336   7.7983222  47.8048859   9.7985535
   7.3242130  47.5919724   8.3769789  61.3172150  59.7606583  61.4430656
  61.9837112  59.6352310  60.7675781  61.5320625  60.6059341  61.8374977
  68.3404083   3.0107810   0.6578725  69.1621399   3.4967971   0.7269566
  67.6942978   3.6681697   0.3997799  25.7705746  61.5768700  25.9361668
  26.3520012  61.6632080  25.1807060  26.2340508  60.9849854  26.5286980
  12.6801634   2.9404469  68.9322433  12.6285086   2.8364282  67.9821167
  11.7714319   2.8891187  69.2285614   1.0974935  20.5073051  64.3953247
   1.5173694  20.1576042  65.1812286   1.6787606  21.2106247  64.1060181
  34.9179764  68.4453888  79.8398666  35.7233696  68.0659637  79.4882812
  34.5724220  68.9791336  79.1243668  78.8763275  25.7557583  38.8991776
  79.4897156  26.3082962  38.4147301  78.5535278  25.1303616  38.2504044
  79.9623184  33.8656921   9.3780327  80.2546768  33.3244514  10.1113949
  79.9196396  33.2617035   8.6366749  27.8933945  32.3413162  18.7585316
  28.5135326  33.0704155  18.7497368  28.4240227  31.5783081  18.9876232
  13.3465767  47.5059052  58.1216049  13.2324018  46.9735603  57.3343277
  13.2828131  46.8814850  58.8442841  54.7367134  50.4948120  55.2631111
  54.0104675  50.9118195  54.7995338  55.0526733  51.1667900  55.8671379
  81.3928299  18.4864864   8.7451439  81.4585419  18.6221714   9.6903973
  80.6909332  17.8436203   8.6436777  20.6854343  46.3217926  63.1706848
  21.1381721  45.6916351  62.6101837  21.1802578  46.3123589  63.9900093
  38.7873192  40.0932922  23.0193329  38.6985207  39.3684387  22.4005127
  38.8875618  39.6695595  23.8717632   2.6931276   4.6487565  33.0247307
   3.3056679   4.4922872  33.7434387   3.2323389   4.5992527  32.2354050
  54.9815636  61.2703819   8.7665348  54.8215904  62.2140579   8.7773533
  55.7700081  61.1550140   9.2968903  77.5781403  66.0400238  86.8660812
  76.6813202  65.7895279  86.6442871  78.0585556  65.9653320  86.0415497
  65.5533371   8.5873861  20.4162426  66.5038071   8.5470810  20.5221310
  65.3134995   7.7254853  20.0758972   7.7379913  34.2122688  72.9066391
   7.6130328  34.9327431  73.5243301   8.0146332  34.6378136  72.0950928
  30.1825752  65.1880112  78.1451645  30.5866795  64.7044983  78.8656769
  30.4767151  64.7325134  77.3563385  72.5822220  20.0798721  77.9043121
  72.8123474  19.2147388  77.5654602  71.6481552  20.0181293  78.1041794
  52.7969170  11.7289639  15.2984762  52.4109917  12.5653887  15.0383081
  52.0671387  11.2339621  15.6708059   1.8236873  59.8582230  16.0658054
   2.6890976  60.0985603  15.7348452   1.7027006  60.4070091  16.8406773
  59.1930542   7.2373562   7.9449768  58.9036636   6.4029002   7.5759692
  58.6702881   7.8957715   7.4873376  46.5658646   0.8596271  65.5278397
  46.5701065   0.3383838  64.7250214  47.2044907   1.5540167  65.3659363
  12.6616507  45.3916206   5.9730787  13.5301819  45.7626953   5.8175545
  12.0867119  46.1527786   6.0525355  35.4796753  70.1860886  72.9934464
  35.6804390  70.3055954  73.9216995  34.9919090  70.9730835  72.7506485
  37.5942116  56.8683624  79.0100937  37.1923599  56.6342697  78.1734695
  37.5281830  56.0729065  79.5384140  55.2797394  19.5092297   3.8787186
  55.2471504  18.9583015   3.0966384  54.6052475  19.1484165   4.4541364
  38.6124763  18.2971001  74.7059097  38.7171021  18.4743233  73.7710953
  38.0124130  17.5522556  74.7427902  36.2395020  13.4721308  15.4500151
  36.0033684  14.1224451  14.7885294  35.5489082  13.5395279  16.1093845
   2.7996380  54.6174126  12.0684052   2.9074197  55.5272408  12.3455782
   2.9862700  54.6293068  11.1296511  40.7426338  70.3546295   7.8630319
  41.5208359  69.8424149   7.6433401  41.0158310  71.2651901   7.7513199
  20.5400105  41.9705887  79.0129471  19.7139282  42.1924210  78.5832825
  20.7753696  42.7594681  79.5013199  85.0827789  21.3402920  84.5532379
  84.6878357  21.2722740  85.4225082  85.9408340  21.7344227  84.7101822
  15.2215891  69.6787491  39.6796761  14.5327892  69.9806137  39.0875015
  16.0328159  70.0029907  39.2885094  50.4774475  59.0752296  30.5163136
  50.2445755  59.9990883  30.6084232  51.0481339  59.0474892  29.7483406
  17.1823692  32.6114464   1.7241517  16.5589790  33.3193588   1.5614421
  17.0104427  32.3436890   2.6269140  65.4489441   0.8663422  61.6398125
  65.4644089   1.7445163  62.0203438  64.7788925   0.9126022  60.9578133
  26.9102612  68.0191345  29.7653255  26.9828320  68.5189362  30.5784473
  27.5999565  67.3583603  29.8279781   1.4433306  40.1317673   7.5260921
   1.2890178  39.4063530   8.1312284   0.5675898  40.4134254   7.2615581
  19.9382381  56.3575172  16.6756897  19.1380730  56.8181610  16.9282341
  19.6859951  55.4344444  16.6523647  70.3031235  44.1047897  22.0278797
  69.4072266  43.7682037  22.0102901  70.4227142  44.5124474  21.1701221
  24.2236156   6.5452981  27.6016502  24.6382465   5.6953640  27.7497234
  23.6051788   6.6395593  28.3261375  64.2476807  61.6759262  65.8405762
  65.2013397  61.6131783  65.7874832  64.0806274  62.5872536  66.0810165
  60.9097176  39.6021843  24.4460449  60.2381630  40.0942192  24.9184361
  60.6080742  38.6943016  24.4775391  21.3007355  45.4868660  25.2515411
  21.4053516  46.1043816  25.9753895  20.5011349  45.7705421  24.8083725
  41.5807686  23.2272224  65.4340363  40.9603119  23.6376781  66.0363617
  41.1083527  23.1736660  64.6032639  46.6171188  26.5574398  88.2440338
  46.1399460  26.7064762  87.4277420  47.3198853  25.9535751  88.0038223
  77.3134689  25.6077557  58.3355446  76.8132324  26.1673031  57.7414932
  76.6488266  25.1171341  58.8190384   2.2433743   5.8619928  15.3650866
   1.9338652   6.6957321  15.7190847   1.5583938   5.2346005  15.5961981
  31.6270180  25.4629250  68.8366852  32.4486427  25.9281769  68.9938660
  30.9558296  26.0244217  69.2245789  52.2812271  27.3133850  46.1716614
  51.7850380  27.8580303  45.5606079  51.6283798  26.9998894  46.7975540
  24.5877094  12.0664368  87.8881073  25.1834965  12.3198490  87.1830902
  24.6204700  11.1098394  87.8971405  27.9036198  57.5098724  16.6023674
  27.0340080  57.8583946  16.4060555  28.3567696  58.2298622  17.0411148
   2.9578671  32.7298470  69.8273849   2.7282491  33.1916771  69.0210266
   3.4141011  31.9423790  69.5307770  18.1150818  10.6438551  88.6492538
  18.1186657  11.1955709  87.8670654  18.3698006  11.2331924  89.3592072
   8.2799416  34.5800209   9.7511053   8.9944334  33.9658661   9.5821409
   7.5779443  34.0376968  10.1107092  46.0231743  45.2856560  13.9744482
  46.2257462  44.6704941  13.2696257  46.4532661  44.9163055  14.7457008
  42.5703430  56.0017433  70.0179520  43.1913338  56.1581573  70.7293854
  43.0939255  55.5934868  69.3284378  18.4648838   4.1572781  76.9152451
  18.6707211   4.5239973  76.0553741  17.5387249   4.3602018  77.0467072
  42.2603760  26.2267799  46.4401283  42.6549377  27.0724812  46.2271805
  42.2168007  26.2167797  47.3962822  19.6676598  48.2849274  26.0872917
  18.9331627  48.3817139  25.4811745  19.4178677  48.8047562  26.8512402
  71.8013992  56.9686012  85.7316132  71.8095703  56.2397118  85.1112213
  70.9372559  56.9250183  86.1409760  47.3473549  57.5779037  33.4040565
  47.4503593  56.7100563  33.0135880  48.1333618  57.6953278  33.9375648
  83.8936310  58.0910950  61.1308441  83.2118149  57.4455605  61.3170013
  84.3430786  58.2127113  61.9671669  10.3010263  49.0166092  32.0867691
  10.6931038  49.8460693  32.3597183  10.8491316  48.3466606  32.4954033
  66.4081116   9.4466610  73.7816544  66.2806396   9.2718325  72.8492279
  65.8728180   8.7879972  74.2242050  15.7250271   6.3300791  27.6869202
  16.1908283   5.8258901  27.0197945  15.8339586   7.2420650  27.4173870
  67.1011124  49.6553879  66.9867020  66.7985611  48.8717804  66.5277252
  67.0790482  49.4140892  67.9127274  58.6003304  35.4538116  67.3416672
  59.2510719  36.0739822  67.0128021  59.1071091  34.6758881  67.5745773
  23.2127361  27.6169682  10.4802475  22.4788990  27.9677963   9.9756374
  22.8014812  27.1411095  11.2018156  70.3601608  62.7342987  73.7101440
  69.7633972  63.0441208  73.0288773  69.7892456  62.3265915  74.3613434
  76.1366501  41.0733871  35.7641907  76.4298477  40.7166557  36.6026497
  75.4001617  40.5166740  35.5114403  67.9742355   9.3037834  46.1070976
  67.6073456   8.6140375  45.5540390  68.0693054  10.0550556  45.5216217
  78.1468964  62.7360611  86.0852127  78.0935364  61.9318123  85.5689087
  77.8925171  63.4291229  85.4759598  51.2859612   0.8038743  34.3722649
  51.4142418   0.2610646  35.1501656  50.9034615   0.2100584  33.7262688
  23.0739880  34.0267677  79.5268021  22.4526138  33.3869972  79.8743896
  22.5428772  34.6014519  78.9755325  22.4283752  70.1502914  77.8052139
  21.6870327  69.8158188  78.3099594  22.0294056  70.6894073  77.1222687
  59.9473343  63.9994202  50.3932114  60.5180511  64.4956589  49.8064690
  60.4082146  63.1721344  50.5325584  78.5367355   3.7731321  13.1839285
  79.4222031   3.4178970  13.1065016  78.1075897   3.2086630  13.8269205
  55.9295616   4.6788306  34.2364197  56.5995178   4.0153108  34.4011421
  55.1000137   4.2146244  34.3486595   5.2320504  32.0254936  16.3293934
   5.9369092  32.4751740  16.7954330   4.4803467  32.0826378  16.9192314
  82.0541000   8.6811419  69.4367447  81.2668686   8.9539557  69.9079819
  82.7114639   8.5555916  70.1210938  81.6888657  23.6375542  81.3676071
  81.4142914  23.1297035  82.1311035  81.6853180  24.5456905  81.6701126
  36.5533104  43.5575943  18.7585506  37.1598282  44.2660179  18.9742012
  35.8734932  43.9766426  18.2308388  34.9008293   2.2586718  66.0903244
  34.2858047   1.6519712  65.6781540  34.9940414   2.9714551  65.4582825
  27.2825451  22.3192310   1.3396029  27.5628586  23.2319851   1.4069407
  28.0024509  21.8804035   0.8863933  61.7050972  62.7238655  16.9382000
  61.8166199  63.6025887  16.5753822  62.5737381  62.4868469  17.2630405
  64.3891220  51.6169357  14.7347870  64.2167892  51.7764015  13.8068304
  63.7108917  50.9962082  15.0011301  81.3829422  65.2187424  26.1728344
  82.0603485  65.2515945  25.4973507  80.8307953  65.9802780  25.9955502
  42.8332253   0.7195855  56.8182068  42.1398087   1.2110900  56.3779488
  42.8732948  -0.1125466  56.3468437  68.2897797  71.1277237  23.9557629
  67.3609085  71.2146988  23.7416115  68.3089294  71.0435181  24.9090595
  16.7125206   7.0930042   8.0328636  17.0216007   7.6724048   7.3364468
  16.1484032   7.6468830   8.5725126  35.2771988  56.8606873  65.9863892
  35.4180374  56.1782303  66.6426239  35.3591042  57.6810989  66.4726410
   2.2044959  56.7447548  49.6571045   1.5895731  56.3452950  49.0418510
   1.8252542  56.5744858  50.5193214  20.2798996  32.6747093   1.0568703
  19.6779919  32.2796059   0.4261315  19.8794632  33.5162239   1.2753454
  67.5008469  46.9126167   5.5109134  66.5895081  47.1099205   5.7271566
  67.6546707  46.0468063   5.8889856   2.8325260  14.2791338  11.9328136
   2.6168661  14.7591858  12.7323589   3.1889756  14.9436483  11.3432407
  64.0381546  40.9876022  39.4636154  64.9282227  41.1411133  39.1466789
  63.8939514  41.6743469  40.1146317  28.4314365  23.0264893  73.1889954
  28.5737476  22.6629295  74.0629501  29.2026539  23.5698624  73.0271225
  65.0660400  18.0114708  14.3769407  64.8974991  18.7369347  13.7756662
  65.5396805  18.4104271  15.1068249  59.2362442  40.6328354  88.8085175
  58.7965431  41.0900879  88.0917053  59.6320152  39.8651581  88.3958740
  85.9392090  67.8599396  61.5722313  86.2470932  67.3204651  60.8439445
  86.3329773  68.7185593  61.4174728  65.8806915   2.1944807  15.1229973
  66.8144836   2.3696532  15.2395020  65.7947845   1.2513080  15.2618399
  41.8032379  65.8244095   3.7548692  40.9960442  65.6936722   4.2524428
  42.1549034  66.6523361   4.0821376  20.8026505  69.5413895   7.8356090
  20.0220203  68.9933929   7.7546911  20.6228333  70.2982635   7.2778945
  46.6723862  62.0243301   7.0852590  47.4959984  61.6424980   7.3887401
  46.9180641  62.5491333   6.3233805  16.8570576  25.5794067   6.4419055
  17.1059475  24.8838825   5.8331933  15.9198017  25.7041206   6.2928128
  60.5529366  49.4774055  17.6852570  59.6247025  49.3269997  17.8641281
  60.5737038  49.8035774  16.7855835  38.6697617  33.8585815  12.1610632
  38.9931068  34.6165161  12.6481133  39.4577293  33.3623962  11.9393864
  22.0131264  23.2644138  31.5303459  21.1644020  22.9971790  31.1775208
  21.9439583  24.2141914  31.6271439  45.6114159   1.6589625  70.5027542
  44.6976166   1.8251309  70.7342606  45.9131203   1.0279721  71.1562500
  54.9215736  23.2420654  63.3093376  55.3934441  22.8219185  62.5902786
  54.8715096  24.1639538  63.0566597  73.5111771  34.4086990  20.1296406
  73.4573212  33.7972031  19.3951988  73.9371414  33.9093094  20.8263474
   7.3613615  45.5161324  77.0103836   6.8578477  46.2534409  76.6653061
   7.1953678  44.8031807  76.3936386  75.3493652  17.0487766  85.8446426
  74.6446381  17.6528511  85.6108017  75.6877136  16.7387886  85.0046005
  42.3347359  50.1089554  51.3250885  41.4384918  49.8889771  51.0709496
  42.7115593  49.2788239  51.6168442  73.6087341  64.5330200  43.0998688
  73.3251572  64.0109787  42.3493423  73.0089264  64.2860336  43.8037605
  36.1226463  50.1789856   4.4865026  36.3604431  49.4482994   5.0572767
  36.1969910  49.8247452   3.6003768  41.7088814  38.8676338   0.2962365
  42.4165688  39.5008888   0.4162281  42.1383400  38.0954018  -0.0718037
  25.2791023  36.4011421  22.4841766  24.6892109  35.8718452  23.0209293
  26.1069813  35.9207611  22.4931812  73.5190201  50.3781586   9.4122877
  73.8931122  51.1912880   9.0730104  73.8118439  50.3414307  10.3228579
  28.1696453  48.2954063  68.1306915  28.3474903  48.1612625  67.1997757
  28.9306126  48.7785797  68.4527206  15.9274473  68.6829071  11.0095043
  16.8206654  68.3437576  10.9514408  15.7649117  69.0775146  10.1527071
  51.9347229  54.8498192  26.8414726  52.1867409  55.7050476  27.1897659
  51.0196609  54.9571114  26.5818939  85.1830826   1.2582051   7.5819473
  84.6010208   0.9740682   8.2867184  85.1788712   2.2137296   7.6383996
  72.4774780  39.5983925   8.1511707  73.0077667  39.3340874   7.3993955
  72.7675552  39.0264893   8.8618135  40.9746895  40.9666977   8.0083199
  40.5157928  40.1906319   8.3298273  40.7879257  41.6425056   8.6599598
  43.8478699  35.3607254  53.8171806  43.5687561  34.9922867  52.9789810
  44.7944756  35.4706192  53.7271805  48.3718719   4.3349385  66.6422958
  48.3465729   3.8021557  65.8474808  47.8726273   3.8306303  67.2846832
  62.2484779  19.4474277  32.5793228  61.8759804  20.3218994  32.6923561
  63.1356888  19.6049271  32.2563896  63.3325005  57.1849327  69.3901138
  62.6589355  56.5098267  69.4724197  63.0527763  57.7124023  68.6419373
  40.2820587   3.1680119  70.2166290  40.2043343   3.9694107  70.7342682
  39.3869362   2.8344021  70.1558228  44.2419777  47.0663681  23.3555584
  45.0896149  47.0858307  22.9113026  43.7684326  47.8189125  23.0010605
  51.1979980  33.1760025  82.2529907  52.0640717  32.7687645  82.2355652
  51.3728371  34.1140442  82.1772156  82.4664078  34.8505020  85.2836609
  82.5076218  35.4193878  84.5149612  83.3694763  34.5626717  85.4173126
  75.5707855  16.5791626  76.9371872  75.2945786  17.4927063  77.0105133
  76.4752655  16.6265297  76.6274948  42.1496429  24.4448948  10.8826599
  42.7574005  24.8370171  11.5096359  41.3886948  25.0255070  10.8914967
  47.7066269  26.0446205  25.9090061  48.0090637  25.2582588  25.4546947
  48.3504448  26.7153454  25.6812859  48.1339684  57.8778610  75.3834915
  48.7533531  57.6925011  76.0893478  47.8328819  57.0157623  75.0965042
  33.2695160  54.2122917  66.0574951  32.3537369  54.3266563  66.3114624
  33.3296204  54.6138496  65.1906815  15.0962467  13.7948503  10.0221567
  15.0240030  14.7478790   9.9697189  15.7323780  13.6409445  10.7206430
  43.8958778  66.5080948  88.8841629  44.8275719  66.4336319  88.6776810
  43.7140350  67.4466019  88.8355103  64.7946625   2.8625562   0.9562086
  64.6198196   2.0441098   1.4207592  65.1770477   2.5879328   0.1227844
  56.6286316  18.0043564  32.9031792  57.1222267  18.7683392  32.6049690
  56.9519310  17.2841167  32.3619156  15.9778996  11.3865881  17.0565739
  16.7178326  11.7049170  16.5394707  15.5286560  12.1807308  17.3459721
  68.5626373  42.0183678  80.5293961  68.2031631  42.5550270  79.8229904
  68.8543243  42.6508369  81.1859970  46.5966530  47.6138992  14.7858677
  46.4027634  46.7510109  14.4197197  45.9051552  47.7611618  15.4311399
  33.2736244  14.6913652  83.8749161  32.7701569  14.2848120  83.1696091
  32.7919769  15.4921703  84.0821838  18.5652313  58.6414719  24.5223122
  18.2865562  58.3330803  25.3845558  17.7569542  58.9298363  24.0983257
  11.5950985  66.2062988  80.7755814  10.9191723  66.6956406  81.2445145
  11.2768488  66.1622620  79.8739090  65.0694122  19.4476109  67.0868149
  65.0008469  18.9262123  66.2870178  64.2230911  19.8890705  67.1582184
  74.0690079  47.9649925  53.5559349  74.7438889  48.2785606  54.1579666
  73.2773056  48.4349174  53.8178673  53.9649200  10.8484621   1.8255579
  54.2935371  11.7339001   1.6698557  53.4689255  10.6346550   1.0353009
  33.5493622  60.0105324  59.6511726  34.3336411  59.9972229  59.1025772
  33.7679749  60.6070518  60.3671379  27.8413773  27.3856983  80.6640549
  27.3301601  27.5187588  81.4622879  28.6641254  27.0021362  80.9676971
  25.6888065  69.0351410  38.8489037  26.0069237  68.6319427  39.6566582
  26.4258633  69.5601196  38.5368500  58.3020363  33.8445320  34.5099907
  57.3686409  33.9832649  34.3494911  58.3730927  33.7711258  35.4617233
  32.6173706  26.9911423   1.4517275  32.0104752  27.3843555   2.0788565
  32.6117401  27.5901375   0.7051319  81.2252197  50.1519890  43.1124077
  81.4214935  49.2987022  42.7256088  82.0252991  50.6620064  42.9859962
  32.4687996  46.8997536  66.0138168  32.9567490  46.9040451  66.8372955
  32.1774559  47.8048172  65.9033279  67.6791229  16.6301460  29.5385132
  67.6899872  16.2120190  28.6775360  67.5139465  17.5546970  29.3537064
  67.9552155  62.2676010  38.5858879  68.2551727  61.3657036  38.6992073
  67.1572113  62.3224487  39.1116447  68.4415131  69.7204285  48.6049423
  69.3298569  69.5563965  48.2884293  67.9480362  68.9415512  48.3479195
  26.5012836  43.5938721  28.0377121  25.9421921  43.0195694  27.5144329
  26.0097256  44.4126625  28.1023998   3.0617316  20.3456783  26.0780525
   3.9336057  20.0695610  25.7955151   2.7061672  20.8213730  25.3273716
   5.8484497   3.4916506  52.0806656   6.3819513   3.8008096  51.3485260
   4.9504538   3.7106488  51.8319206  54.5875778  27.5046539  47.6183357
  54.0486946  27.4903851  46.8273659  54.5458031  26.6087646  47.9528046
  17.5817337  46.9676056  60.8823471  17.8902187  47.8601418  61.0387039
  17.8613472  46.7707176  59.9883194  50.7482872  30.6080875  62.2119331
  51.6371422  30.4813461  62.5437508  50.8613434  30.7488403  61.2719154
  71.3857193  63.7299767  29.9289703  70.4412460  63.6537704  30.0646076
  71.7423401  62.9050751  30.2585068  73.5903549  18.2843170  48.2095490
  73.8463974  17.9499359  49.0691223  73.4487152  17.4997444  47.6798172
  75.3829880  52.1124382   8.6311693  76.2558670  52.2344704   8.2577734
  74.8904572  52.8817711   8.3452168   6.3909340  19.6057377  54.0958366
   7.2206984  19.2357693  53.7944298   5.8696213  18.8456821  54.3542595
  59.9621353  10.8108158  87.4549179  59.9731483   9.9453945  87.0460739
  59.8788300  10.6321564  88.3916016  71.2289505  15.3129530  29.4815578
  71.9909210  15.8752432  29.3420200  70.9927216  15.0079508  28.6055431
  82.5824356  50.7355080  62.8176308  83.2982788  50.7750473  63.4518509
  82.3297577  51.6490898  62.6843796   4.8239160  33.9582481  34.5866241
   4.0148544  33.6700401  34.1640282   4.8004918  33.5502815  35.4522133
  16.8816833  52.8576660  32.2958374  16.3625183  53.1588554  33.0414810
  17.2619171  52.0291595  32.5877762  38.1066360  51.6762352   5.7404804
  38.9366226  51.8976402   5.3181896  37.5676460  51.3170471   5.0357056
  46.9298477  65.0502396  84.5069427  47.8337021  65.1191330  84.8144073
  46.7857132  64.1105270  84.3955688  32.4640274  48.6094894   2.1263103
  32.4094276  49.0742683   1.2913060  32.0007477  47.7860565   1.9728272
  73.7074432  32.8807755  10.4298496  74.3529816  33.2085876   9.8037109
  74.2035522  32.7469864  11.2374411  36.5815010  16.8839779  18.8279190
  35.8780937  17.4763775  18.5623837  37.3759766  17.4148369  18.7710552
  39.4096222  54.1827888  86.3802490  39.2308540  54.0146790  87.3054581
  39.9639626  54.9631310  86.3813477  65.2298965  11.4397392  76.5268402
  65.9771271  11.4448490  75.9286346  65.4093933  10.7169228  77.1281281
  65.0818481  11.4327478  14.3284912  65.0380325  10.9348574  13.5121469
  64.1698227  11.5179625  14.6063032   1.9982406  36.9233131  89.2153015
   1.8611171  37.3560944  88.3726120   1.5085491  37.4569740  89.8411179
  68.6980438  33.2011566  88.9727097  69.4046326  33.8468781  88.9756470
  69.0520477  32.4565239  89.4589462  52.2758179  29.2128181  66.5268478
  52.1419792  28.9242287  67.4296417  53.1029243  29.6940880  66.5493622
  39.0228424  54.0362930  45.8641548  39.4858322  53.7338715  45.0828667
  39.4519997  54.8607903  46.0927620  31.1095924  60.0498734  50.1184006
  30.8391495  60.4203300  49.2782478  32.0330238  60.2885513  50.1992722
   4.1204615  67.1574860  73.0161133   3.9283125  66.8287354  73.8943176
   5.0761557  67.1533279  72.9626083  72.9956360  16.8057232  11.8991728
  72.4316254  16.3876724  11.2485123  73.4021454  16.0766373  12.3675900
  39.4266701  48.1044121  24.1394501  39.4337082  47.8933601  25.0730648
  39.4978027  47.2561989  23.7016048  81.3914108  51.7353287  75.1687393
  80.7807465  52.4396477  75.3861160  82.1007919  52.1707535  74.6960754
  74.1114502  12.7739067  43.4713631  74.7109680  13.4605331  43.1792107
  74.3661652  12.0023222  42.9653931  20.5462894  44.5081673  66.0534210
  20.5941105  43.5959473  65.7674179  19.6125031  44.6674194  66.1909561
  32.8190460  69.8698578  83.9561005  31.9283924  69.5229034  83.9052124
  33.3404236  69.1424408  84.2955933  12.3778868  53.1782265  78.5108414
  12.6502457  52.7212486  79.3065948  11.7355089  52.5944595  78.1073608
  86.1243668  37.8136940  36.3709030  86.1205444  37.7855873  35.4141235
  86.9612732  37.4207573  36.6187248  73.1330948  48.2433739  46.6562309
  73.6837387  48.8601456  46.1739349  72.7888031  48.7527313  47.3898849
   9.8209629  34.9444160  23.7283878   9.7012920  35.8600655  23.4764004
   9.7848806  34.9525452  24.6848736  57.4722443  44.9469948  75.6334915
  56.6329613  44.4874763  75.6595078  57.3368225  45.6577759  75.0068436
  51.0941772  29.4261837  82.5851135  51.2783813  28.9349270  83.3857193
  50.5032883  30.1257114  82.8639450  27.1381855  53.7298088  14.2143583
  26.7437611  52.8601151  14.2799253  27.4941368  53.8977699  15.0868950
  68.5768433  54.5272522   1.9813458  69.3535080  54.5802536   2.5383177
  67.8752594  54.2569733   2.5737634  48.9082603  24.8766117  81.1512909
  49.3765526  25.7087975  81.0849228  49.0841141  24.4358635  80.3199997
  76.3081741  22.7044353  58.0396690  75.8790741  23.2629356  58.6878815
  75.6937180  22.6728935  57.3064041  58.9856682   3.4362586  15.4937477
  58.2934341   2.8229215  15.2470484  58.9134521   4.1475554  14.8572941
  30.0273685  31.3315182  83.7541580  29.4677067  31.9953175  84.1571198
  29.4615746  30.5649338  83.6622009  81.7709427  15.3709021  73.1920929
  82.4236755  16.0341835  73.4162140  81.5318146  15.5666924  72.2861633
  41.7302055  37.7828140  13.8416481  42.0192261  36.8894882  13.6554594
  40.9844818  37.6751404  14.4320145  79.3023453  33.4740486  36.4581223
  79.5360947  33.8629112  35.6152802  79.3343201  32.5299721  36.3034286
  39.5870171  58.1751328  63.1517372  38.6510277  58.3234940  63.2864532
  39.6279907  57.5261536  62.4493256  75.9443207  23.4551506  33.4983788
  75.1662445  22.9047775  33.4093781  76.1391068  23.7406788  32.6057625
  20.6261559  28.3861504  13.1642313  19.7695274  28.4016533  12.7374105
  21.1911182  28.8988132  12.5861101   9.8219490  57.5085144  49.3789330
   9.4892168  57.1916084  48.5392380   9.0680885  57.4648361  49.9671669
  29.5990906  49.9609375   1.3603821  28.9083138  50.6234932   1.3514926
  29.2374611  49.2448845   1.8826139  22.7341290  53.9752655  56.8349419
  22.0994377  54.6916580  56.8215790  22.6437778  53.5914726  57.7071686
  27.9925518   4.5098271  35.7526932  27.7193336   3.8451123  36.3849411
  28.2484856   4.0113730  34.9766273  37.4836235  45.1240692  31.6325970
  37.5737801  44.4752960  32.3305931  36.7668152  44.7946014  31.0904980
  56.9317589  13.3406296  66.9846268  56.7299194  13.4126301  66.0517197
  57.2704926  14.2033844  67.2236710  32.8654671  26.2378712  12.7240143
  32.3842392  25.4133644  12.7935925  33.7312012  26.0408230  13.0816593
  28.0997581  44.8088455  49.4594345  28.8813992  44.3736076  49.7997894
  28.3324947  45.7370796  49.4383621  14.9604378  44.4372826  15.6063976
  14.1436892  44.8900528  15.3962727  14.6989031  43.5288239  15.7565308
   9.3086605  57.9727707  84.5211411  10.1316919  58.3519287  84.2127762
   8.9436798  57.5349579  83.7521591  75.3134537  65.4961014  81.2920456
  75.6847839  64.6212006  81.4056015  74.5768967  65.3679504  80.6943130
  56.7022743  25.5284119  46.2718620  57.0231400  24.9904289  45.5480881
  56.1996880  26.2243938  45.8484840   2.2853103  44.6105461  28.8637085
   1.8378026  44.2309914  28.1074638   3.2093117  44.4032516  28.7241268
  69.9603271  42.3396530  13.0993242  70.6393433  42.8304367  13.5622520
  70.4371033  41.6537170  12.6319771  80.4789810  61.1857338  76.5900116
  80.7077866  60.9257088  75.6976700  81.0847855  60.6949234  77.1452866
  85.9215851  62.3855629  46.3401375  86.4108582  61.5776367  46.1849136
  86.2873154  63.0109978  45.7145996  58.5871124  38.9728432  85.7767181
  57.6574402  39.0097237  85.5518112  59.0142670  38.6603394  84.9791565
  62.6386833  49.3764725   2.9336288  62.9659767  48.5371056   3.2570074
  62.8203583  49.3584404   1.9940008  59.9662361  69.8443451  64.7532654
  60.2331696  70.2128677  65.5953903  59.4669151  69.0604782  64.9823227
  60.6234016  50.3480225  79.4643250  60.2942009  49.5353508  79.0803680
  59.8368340  50.8176804  79.7417603  77.0928040  65.5596161  61.7436485
  76.6620331  66.3927078  61.5522919  76.3735733  64.9526520  61.9183846
   7.0256538   1.8030154   7.3674226   7.1056967   1.9296045   6.4220123
   7.2259483   2.6609151   7.7417507  35.7737122  50.5935822  34.7450371
  36.4197121  49.8997498  34.6127014  36.2951508  51.3725319  34.9388695
  54.5179253  29.1317329   6.7372179  55.4476662  29.3572292   6.7683263
  54.3950119  28.5215015   7.4643636   7.4291167  10.9527493   7.9133797
   8.2282448  10.9018030   7.3889461   6.7845254  11.3524942   7.3294811
  18.3140182  55.7665253  56.0601540  17.8047409  55.1562958  55.5267792
  19.2007313  55.7139397  55.7034874  26.2436810  18.5479050  73.6015701
  25.6095085  19.2265282  73.8329315  27.0156918  19.0316315  73.3079071
  53.3621216   6.1022716  31.8871593  53.9909554   6.8214655  31.8274708
  53.7339859   5.5128078  32.5432701   3.8225117  49.0090179  15.7791815
   3.1693628  48.7593842  16.4328709   3.3101392  49.3572960  15.0495176
  55.3518066  19.5233440  25.5454826  55.7070122  20.4102535  25.4867496
  54.4503365  19.6456051  25.8432045  30.6145115  21.4681702  88.7345886
  30.3598557  20.5456638  88.7536697  30.9977531  21.6287289  89.5969009
  46.8514748  29.5141506  22.5093517  46.7475243  29.8777332  23.3886890
  46.5425987  28.6113529  22.5854015  52.6040878  44.6568413   0.2812653
  51.7382126  44.3528595   0.0090732  52.8009415  44.1467705   1.0669554
  24.4433136  54.5330200  87.7280045  23.8995838  55.3064194  87.5781937
  24.2996883  53.9860268  86.9557343  47.7167397  42.8869934  69.2010803
  47.1012726  42.9048347  69.9339600  47.4733429  42.1067657  68.7028427
  55.3561020  35.0807495  21.8385715  55.1224136  35.4092979  22.7067184
  55.5699387  34.1586761  21.9810066  13.1630154  58.3904343   4.6186819
  12.6367836  58.1922531   3.8440611  13.0567703  59.3332100   4.7456245
  11.7564974  69.1388245  75.2703629  11.3192072  68.7365112  76.0208054
  12.6190434  68.7245483  75.2453842  54.8803825  71.4548569  41.9467812
  55.6171608  72.0093231  42.2036018  55.2863312  70.6961823  41.5274353
  15.3583260  48.8527336  59.6450691  14.6320019  48.3670197  59.2542191
  16.0750484  48.7577667  59.0177574  30.8802395  52.8214073  33.0435677
  31.2924595  52.7620316  33.9054146  29.9878368  52.5043373  33.1825485
  12.2181120  34.4389610  36.3836555  11.7460012  35.0623627  35.8316460
  12.7287159  34.9862251  36.9803238   2.8680549  68.1025162  23.8105965
   3.0492556  68.2843094  24.7327404   3.0327339  67.1644974  23.7145443
  25.2239513  69.8009949  83.2024765  24.9109974  69.4644394  84.0421295
  25.3347187  69.0213928  82.6582413  37.2453537  37.7776413  32.9852943
  37.2032356  37.2125053  33.7567062  36.4611282  38.3232269  33.0449753
   2.0356078  19.1135044  37.4102173   1.8848131  19.9805393  37.7867050
   2.7710814  18.7598000  37.9104195  84.3075485   1.3776067   0.5863437
  84.1404114   0.4510237   0.7587992  84.7934952   1.3838941  -0.2383075
  85.8468933  42.5189095  76.4456024  85.8245926  43.2641144  77.0459366
  86.4833450  41.9180984  76.8331451   6.6582050   8.3821192  65.2526627
   6.6598849   7.9130321  66.0870361   5.9578347   9.0283556  65.3426208
  32.4343147  46.2649574  84.6435013  32.0693932  47.0898209  84.9639130
  32.8420448  46.4920273  83.8077774  18.6380768  36.6561317  31.0970249
  18.9078388  37.3710327  30.5205059  17.9742069  36.1820908  30.5962296
  55.6327705   1.6951234  74.5141983  54.7098236   1.4919350  74.3621750
  55.7770500   2.5178437  74.0467072  48.8228340  42.9473228  17.2246094
  48.4371262  43.0301094  16.3524799  49.5766106  43.5371017  17.2101040
  29.2717476   1.1204817  36.7678108  29.7401314   1.3374867  35.9617386
  28.5438786   1.7414634  36.7964630   8.5079384  63.2292862  14.9361858
   8.2221012  62.9724655  15.8128681   9.4467926  63.0430412  14.9262257
  50.1327591   4.3035636  80.3698273  50.2869835   3.8754010  81.2119217
  50.6326523   5.1182981  80.4202805  80.4735489   5.7373438   1.2114551
  79.9126816   6.0257120   1.9315264  81.0619965   6.4760361   1.0555902
   6.4021688  13.7693014  22.3816662   5.8967204  13.2735653  21.7374611
   5.7573142  14.0399666  23.0352211   0.4081710   8.4380169  21.8575001
   0.0084271   9.3030891  21.7675724   1.0878272   8.5560465  22.5211029
  18.2809277  45.1070633   7.4900651  19.0348549  45.6964874   7.4699488
  18.6144505  44.2796593   7.1430826  33.5163689   0.8254102   4.6257715
  33.3539238   1.4249145   5.3540831  33.9377594   0.0666895   5.0295129
  64.5868759  21.1511383  80.9258575  63.8464737  20.5890942  80.6975250
  64.8581696  20.8494511  81.7928162   2.0049083  31.6411800  72.4721909
   1.1159093  31.3952141  72.2164307   2.3673539  32.0695992  71.6967392
  70.5929489  70.5295334  22.7480125  69.7859116  70.8050613  23.1827621
  70.3472595  69.7408600  22.2644138  67.6756744   5.7325435  46.4213982
  67.9050064   4.8760300  46.7819901  68.5179062   6.1579671  46.2604752
  71.0577469  47.5299606  88.7420349  71.3875504  47.7492523  87.8706131
  70.7918930  48.3700600  89.1159134  57.3534660  35.2699738   1.2342908
  56.7370834  34.6479988   0.8476997  58.0868073  35.2939072   0.6195765
  50.3873367  47.7972717  59.3251686  51.3169289  47.6501503  59.1506767
  50.0980568  47.0004654  59.7697487  17.7623310  58.2103806  86.7439346
  18.2723446  59.0203934  86.7424545  17.4119682  58.1495705  87.6326294
  76.1739807  45.5723457  31.7424088  75.7645798  45.8922501  32.5463295
  75.5109482  45.7081871  31.0655270  40.5269547  36.6591454   9.9238453
  40.9710693  35.8415604  10.1486702  39.7382011  36.3827934   9.4572315
  40.0871010  14.1392670   7.3127441  39.3279839  14.6323633   7.6239138
  40.7187386  14.8102045   7.0536923  19.1430340  45.5817909  20.1026917
  19.3808346  46.5072403  20.1595001  19.6352081  45.1642036  20.8095264
  53.8965454   9.5935726   8.9994593  53.2480392  10.0395975   9.5441914
  54.7271729   9.7310972   9.4548512  74.4544601  34.1668129  68.9889603
  74.3688736  34.7223473  68.2141800  75.1636887  34.5660439  69.4927826
  57.3441315   7.5901246  41.5799751  57.3576927   7.9561410  40.6956253
  57.9848289   8.1106863  42.0644913  65.2397461  53.8325806  53.1440849
  65.6446991  54.5860786  53.5736046  65.3290405  54.0136871  52.2084236
  83.9304657  68.2290726  19.9662666  83.7502136  68.1249008  20.9005527
  84.8249130  68.5681381  19.9312458  84.8458710  15.3430719  54.2789001
  84.1454697  15.4340954  54.9249573  85.0283279  16.2390022  53.9956131
  52.9359360  42.7527542  51.0439758  53.3998413  42.3756142  50.2964592
  52.0231857  42.8012123  50.7597771  30.5878773  65.4528809   8.6735573
  30.1715450  65.1205215   7.8782973  30.5275230  64.7283936   9.2962179
  72.0581512  23.7282524  40.7022667  71.1961746  23.5908298  41.0951195
  72.1248856  23.0516911  40.0284386  51.1964531  49.9317322  79.5418396
  50.5823555  50.5730896  79.8992996  51.9630356  49.9904633  80.1120453
  63.6679306   9.8725824  28.5737476  63.1837006  10.6846657  28.7229977
  64.4817505  10.1525383  28.1547527  55.9173203  12.8356323  82.1443100
  55.6981621  13.2653799  81.3175583  55.7859573  13.5124912  82.8082657
  82.1004257  36.7235184  18.4260178  82.7700043  36.4841690  17.7852345
  82.3093948  36.1981659  19.1983967   2.1704969   5.4776893   1.8549722
   1.4056560   5.5623322   2.4242575   2.7598736   6.1758766   2.1402812
  52.4959145  43.7938118  68.1566620  53.2036400  44.0928154  68.7275772
  52.7948418  44.0072823  67.2727432  15.9085331  70.9243317  30.4182892
  16.6307716  71.4327011  30.7872868  16.2482662  70.5945206  29.5863991
  64.5433273  32.2704391  46.0312004  64.3889084  31.8185692  45.2016220
  64.2934189  33.1783524  45.8595352   6.1614728  58.6487617  39.3759613
   5.2465806  58.7861519  39.6215820   6.4704418  57.9682846  39.9740601
  50.6838989  22.2521629  38.9904556  50.1523018  23.0458775  39.0508957
  50.1797142  21.6688290  38.4232254  73.1084442  23.1687775  83.5545731
  72.1800156  23.3700619  83.6717682  73.3676682  23.6740952  82.7840652
  57.8696899   3.8860931  40.9044189  57.7919464   4.6949143  40.3984604
  58.7394028   3.9344914  41.3012695  81.4747086  55.4163208  31.7993946
  82.1113663  56.1086006  31.9772892  81.3019638  55.0240784  32.6552811
   8.3316021  60.2554512  80.0028229   8.6529627  61.1549301  79.9403839
   8.9884768  59.8025970  80.5316620  83.1650848   1.4384506  60.3886185
  83.6022797   0.5960585  60.2642441  83.4117889   1.7080132  61.2733269
  65.6919708  64.4157562  59.2747726  66.1601105  64.7298203  58.5011826
  65.6162415  65.1859970  59.8380051  31.5728569  28.2226181  18.9178200
  31.5373249  27.3403015  18.5483780  31.6993446  28.0843258  19.8564930
  12.7149715  54.3277817  52.1391373  11.7664146  54.3582840  52.0144730
  12.8281069  54.1257057  53.0678978  23.6380424  13.5090227  53.2453079
  23.4593163  13.6779060  54.1703835  22.8763027  13.0161209  52.9402924
  79.4334641  26.5788975  47.1395836  78.7345657  27.1920204  46.9118767
  79.1924591  26.2521839  48.0064201  30.1898155  46.5299873  13.4571829
  30.0615959  46.5566826  14.4053802  29.4828434  45.9705467  13.1355476
  39.0802383  34.9215088  53.2204742  39.2977028  34.0050430  53.3908615
  39.8460617  35.4096222  53.5229568   3.0958269  27.4122715  54.1563568
   2.8039188  26.9915905  53.3476257   4.0018630  27.6662045  53.9807205
  76.9043961  41.2574196  52.6044273  76.5620346  40.3636398  52.6178703
  76.6633530  41.5932732  51.7411041   0.8033568  20.4871960  61.5829468
   0.6858884  19.5421219  61.4866753   0.6378185  20.6558685  62.5105133
  83.3953857  14.1783648  17.2926388  84.0193329  13.9251337  17.9729233
  83.2757645  15.1200323  17.4158726  17.3251820  41.9753113  34.8912354
  16.6099567  41.6083946  34.3715668  17.2907925  41.4952850  35.7186584
  79.5814133   6.8681693  71.3812714  78.8538437   6.3787155  70.9974594
  79.4294739   7.7739263  71.1115417  16.4479046  34.4522743  84.9130936
  16.8336086  34.6884880  85.7566986  15.5833836  34.8630829  84.9215698
  69.2540817  29.7058468  42.9685135  69.1963043  29.5685024  43.9140434
  70.1458282  30.0234909  42.8266754  14.5304041   7.9377236   0.9944967
  14.4191561   8.7599449   1.4717894  13.6542425   7.7281251   0.6710138
  45.1960716  53.1581230  77.9175720  45.7751579  52.4989548  77.5349655
  44.8076897  52.7238884  78.6770630  33.1001778  66.6633606  22.6232395
  33.6163902  66.1203537  22.0275021  32.1912460  66.4911652  22.3774300
  59.7099304  67.9646759  42.1762009  60.1249924  68.4027939  42.9191742
  59.7459793  67.0338440  42.3963852  40.1349640  27.0748901  76.2661209
  39.9473610  26.1366158  76.2922134  40.1345253  27.2933998  75.3341904
   7.9883885   3.6725924  68.1655350   7.9825869   3.6938796  67.2085953
   7.9060683   4.5899825  68.4260178  75.1106491   1.0255698  38.1952553
  75.0857010   1.8876754  38.6104469  74.8054276   0.4238248  38.8742065
  34.8227196  52.9781837  11.0810747  34.1267624  53.6188812  10.9348326
  34.3941040  52.1295013  10.9703550  15.9515543  55.1806183  14.0912495
  16.0931416  54.6721306  13.2927332  16.7603035  55.6801338  14.2036734
  60.9401207  62.4074173   2.2882524  60.7205391  62.5518379   3.2086644
  61.2427979  61.4999847   2.2537630   6.0180259  11.0726032  80.0677032
   5.0880413  10.9376125  79.8856659   6.0703382  11.9711008  80.3935776
   0.8528131  48.7330170  50.2150154   1.6360210  48.8771439  49.6839371
   0.1936968  48.4274902  49.5917587  58.6972008  27.3933773  86.0341797
  58.0807953  27.5433235  86.7509689  59.2964630  26.7263851  86.3691940
   1.2784892  63.0416222  79.9449158   1.0626251  62.1355782  80.1656494
   0.9427950  63.5538483  80.6805573  65.6908875  38.8680305  12.7080336
  66.0602875  39.1824799  11.8828707  65.0325089  39.5227585  12.9406366
  45.0114059  61.0977135  67.6649857  44.2699623  61.0078239  68.2636642
  44.6194000  61.3816109  66.8391724  77.5517960  41.5459213   7.3830976
  77.2048950  42.3139687   6.9292312  78.4611282  41.7729988   7.5774670
  61.6796303  56.8040237  11.8332148  61.3703232  56.7960663  12.7390289
  61.4848862  57.6878014  11.5213804  78.3862839  39.4754715  13.9294643
  78.7834167  38.6187859  14.0863056  79.0568848  39.9671631  13.4553709
  47.4191055  43.3635864   4.0932393  46.5894585  43.4017258   4.5691195
  47.8366890  44.2061501   4.2719564  27.7152939  56.0209656  68.7763672
  27.5780621  55.8878212  69.7142715  27.2535915  55.2926025  68.3609772
  76.4394302   2.1078913  27.1879387  75.6653137   2.5216312  26.8061123
  76.3155670   1.1726426  27.0260773  40.5807343  18.1195202  76.4187469
  41.2800903  18.7466640  76.2348328  39.9228745  18.2898712  75.7446289
  13.8285599  56.2600822  81.7961273  13.2344599  56.4540291  81.0711060
  14.0585508  57.1178360  82.1533356  65.9146805   7.1322646   9.9529400
  65.6211166   6.3299360   9.5212946  66.6095581   6.8450675  10.5453110
  51.7298012  57.8673859  14.3486490  52.3997688  57.7150230  13.6821966
  51.3152161  57.0133667  14.4711294  29.7839718  61.5718079  19.0378952
  30.6575584  61.3715210  19.3739910  29.8543701  61.4375496  18.0927753
  31.2821560  69.6652374  61.4463615  30.6914330  69.9924927  60.7679939
  30.7743607  68.9944687  61.9029274  53.4426498   0.8028031  52.2441025
  54.3063622   1.1857668  52.3976250  53.6243439  -0.0973096  51.9738884
  74.7385025   8.9324398  13.9615259  74.7077255   8.1231890  14.4718170
  75.6331863   8.9683561  13.6231747  57.6766968  68.4682999  48.4984627
  57.6182213  67.5135880  48.5350990  57.1968613  68.7073898  47.7054749
  64.9466934  25.9580727  83.1276779  64.3681488  25.8428211  82.3738632
  64.5003357  25.5057983  83.8435287  19.5761051  28.8484287   4.5730457
  20.2624092  28.4056377   4.0738916  19.8891048  28.8317757   5.4774714
   4.4495192  53.8910637  69.4475708   3.6796858  54.2450714  69.8928452
   4.1399755  53.0816612  69.0410309  47.6089668   6.2856503  10.9002542
  47.5037956   6.4540000  11.8366461  47.6476669   5.3317242  10.8312693
   7.0498204  67.4628906  67.4021683   7.2026701  66.7458954  68.0176239
   6.6457415  68.1506577  67.9312515  74.2268143  12.8225403  35.3620071
  73.4535217  13.0226126  35.8894768  73.8760223  12.5802517  34.5049934
  16.8393536  38.8041267  26.9896297  16.3614025  38.2740860  26.3517818
  16.1862240  39.0276375  27.6527271   4.8040543  21.7901211  83.9642258
   5.6481967  21.3691769  83.8015594   4.2231445  21.0723667  84.2164307
  30.7091942  35.2722511  76.0392151  31.0404243  36.1007538  75.6926575
  30.3815289  34.8050690  75.2707062  24.3766441  41.5254669  72.6723709
  25.3335247  41.5350456  72.6951904  24.1146526  42.1486168  73.3500671
  47.2191811  14.4402819  83.1370468  46.7831650  14.6962528  83.9498215
  47.8024750  13.7257652  83.3929138  44.6224480  21.0780506  21.9561615
  45.3154602  21.4150715  21.3883724  44.4715919  21.7780781  22.5913277
   4.0129714  47.4493370  83.9778671   4.5663342  47.8619690  84.6410065
   4.6220384  46.9475174  83.4361572  70.6767578  56.7233925  80.9808655
  71.6313629  56.7731133  81.0307465  70.4805756  56.8144608  80.0484238
  84.8572922  34.9652443  42.5001678  85.5657578  35.5050774  42.1496010
  84.0569305  35.3960609  42.2000923  31.7555523  37.7099037   2.7861857
  30.8251953  37.8931351   2.6554329  32.0214348  37.2432938   1.9938401
  37.5825806  26.4770527  17.8416214  36.7847404  27.0033627  17.8933754
  38.2227936  26.9606228  18.3636551  16.8895645  14.6799517  23.1982803
  17.8198662  14.5227633  23.3597221  16.8298340  14.8133802  22.2523098
  31.9537601  22.1615505  85.4024124  32.5723724  21.5783596  84.9626007
  31.3379002  21.5725994  85.8384018  22.5094967  58.5301247  44.5967674
  22.3566227  59.4251976  44.2939339  22.6533508  58.6173706  45.5390663
  60.7191963   0.8117071  42.9536133  60.5895157   1.0988336  43.8574791
  60.9571495  -0.1124812  43.0276909  80.0069962  44.1088028   6.7606950
  80.7546234  44.4331512   7.2627735  80.1539841  43.1652565   6.6947398
  60.5938225  -0.0405328  18.0815086  60.1507530   0.0823418  17.2419720
  61.4500961   0.3704931  17.9628448  73.1856155  51.8862839  24.5022717
  73.7728119  52.6318207  24.3773460  72.9710922  51.5990181  23.6147518
   4.8450933  44.4920235  22.3840065   5.3197193  44.1318398  23.1331577
   4.9797416  43.8521042  21.6850052  12.4239540  68.1887207   1.1350315
  12.8198481  68.5642014   1.9214883  12.9187937  68.5725937   0.4111492
   1.5605077  31.5772934  25.8118725   2.3743670  31.4647617  26.3029957
   1.5778010  30.8797760  25.1565838  34.0613823  67.7267761  29.3499832
  33.9993286  67.4058533  30.2496433  33.9314728  66.9482422  28.8084755
  68.7040939  12.9996624  18.5388927  67.7766800  12.7799158  18.4503098
  68.7657242  13.9052906  18.2351341  59.9557877  53.7142296  74.0361786
  60.0906792  54.5645905  73.6179504  59.0910416  53.4342194  73.7361145
  19.2432537  59.8689651  57.8257065  18.3854580  60.1967926  57.5556221
  19.0500164  59.2264404  58.5083885  78.9971390  19.6237316  85.7239838
  78.8509064  19.4307938  84.7979050  78.3712311  20.3193474  85.9254532
  63.2751198  37.1192741  39.3662186  63.2665405  36.6678581  38.5221939
  64.1504898  36.9549141  39.7168579  30.3542576  26.5148010  81.7790451
  30.7085896  25.7719498  82.2677689  30.8692150  26.5384331  80.9725113
  77.0402756  32.4496078  62.1650734  77.9637833  32.3370667  62.3902321
  76.5842743  31.7896481  62.6873245  46.4880409  14.7428141  46.4333115
  47.2573547  14.1860600  46.5533562  46.8027840  15.4752760  45.9035339
  70.4351883  65.6104584  70.4527054  70.3067093  66.2222748  69.7278519
  69.5498276  65.4077682  70.7548447   5.4091630  33.8999939   8.5919733
   5.7635732  34.7648811   8.3855858   4.5059843  33.9297028   8.2763519
  59.2271042  36.5820427  72.1109390  58.4399567  37.0162849  72.4396820
  59.0644226  36.4680748  71.1745758  29.4024868  62.4068298  48.9159088
  29.8861561  63.0173683  49.4722672  29.3694096  62.8364182  48.0611649
  48.7588234  43.5545349  24.9662037  49.6520271  43.7453918  24.6798649
  48.8616714  43.1922264  25.8461952  12.1983223  67.1517334  17.6437531
  12.3822775  68.0850220  17.7504044  12.6923256  66.8977966  16.8641968
  85.0051498  48.8152390  34.7784119  85.5599899  49.5611687  35.0063934
  84.2372284  48.9066887  35.3424797  14.6348076  53.5883636  20.6253433
  15.3622990  53.4286003  20.0241241  14.2690744  54.4261589  20.3414955
  81.9055405  40.2928810  86.9436722  81.3886108  40.8855553  86.3980026
  82.2975159  40.8596230  87.6080475  59.6232109  61.9711075  65.3379745
  59.5143700  62.7580681  65.8719025  60.1615791  62.2553864  64.5993423
  13.2407026  13.0088148  17.4262753  13.4710579  13.3406210  18.2940712
  12.7771540  12.1892462  17.5985012  22.5166721  65.1801605  80.5457840
  22.5408859  65.2300720  79.5901947  22.2949562  66.0680237  80.8264542
  59.1237793  11.4791098  79.0547333  58.3344269  11.2052946  79.5218277
  59.3538628  12.3215714  79.4465866  67.9233246  69.0372238  75.9862213
  67.9066238  69.5942993  75.2080078  68.8497543  68.8342209  76.1156311
  52.4445610   3.6902752  67.2749939  52.8184166   4.4017172  67.7949066
  52.2799759   2.9916804  67.9083252  80.0298462  46.4015694  14.8134594
  79.8052063  45.4716797  14.8462658  80.9868774  46.4172363  14.8223076
  15.7244415  57.8860626   2.2112236  15.0097980  58.2510643   1.6894095
  15.9119701  58.5596657   2.8649244  14.3095665  25.9673405   6.6191506
  13.6247129  25.7888165   5.9746852  14.3206110  25.1905365   7.1783352
  22.8996506  63.9017258  60.4690857  22.7678299  64.3490067  61.3050270
  22.6248207  62.9997978  60.6340790  67.4597092  52.5258331  68.4646835
  67.0074997  52.7373848  69.2813721  67.5119095  51.5700684  68.4604416
  69.9593658  36.8395767  35.9561272  70.5155716  36.3777237  35.3287888
  69.9438019  36.2712440  36.7261848   5.9189410  18.9215298  59.5966110
   5.1444783  19.3027287  60.0102882   5.5996709  18.1187992  59.1843948
  71.2245178  14.2822819  14.5298643  72.1524811  14.1144562  14.6940269
  71.0949478  15.1924906  14.7962551   6.4657440  57.9691696  36.4973526
   6.2892070  58.1768112  37.4149323   7.3416700  57.5832329  36.5033569
  37.6521416  45.3596382  43.2449417  37.3762283  45.7987289  42.4403915
  38.4979172  44.9683723  43.0263062  64.7979431   5.7264733  57.1200790
  64.6295853   6.0600724  58.0013313  65.3269424   4.9408150  57.2584000
  59.3106956   3.3077857  26.6818562  59.4389305   2.5113277  26.1666451
  60.1410599   3.4319801  27.1415291  79.1648483  38.5769043  46.7167282
  79.8418427  39.2315254  46.8881493  78.4212570  39.0818748  46.3876228
  65.8711014  32.8275833  79.0395050  66.7387848  33.0093956  78.6785202
  65.4231720  32.3365974  78.3506546  48.3861809  22.2991447   5.7681136
  47.5215836  22.7008457   5.8537660  48.2474670  21.5546913   5.1826391
  79.0830612  22.7069664  25.1478310  78.4054260  22.8120384  25.8156662
  79.9057846  22.8418007  25.6181221  39.5428123  68.0639420  38.0208206
  38.9267120  67.3317413  37.9976845  39.8708534  68.1293716  37.1239700
   7.8348742   1.3007137  84.2477951   6.9532094   1.0700811  84.5405579
   8.3822527   0.5712664  84.5385132  46.6707115  41.2472420  24.6143131
  46.4548073  42.1767731  24.6890526  46.4348412  41.0180931  23.7153759
  53.1821098  21.5260410  14.7484627  53.1643181  22.4826794  14.7209024
  52.4120293  21.2576313  14.2472973  10.0721254  28.1187248  14.5984449
  10.6203938  28.7547455  14.1389761  10.4885445  27.2743759  14.4255199
  81.8989792  28.4151382  70.0954742  82.5838852  28.5408192  70.7522354
  81.0923233  28.6813736  70.5366745  28.9512959  24.1443920   4.6647973
  29.7620163  24.6044750   4.8822513  29.2298908  23.2516899   4.4605923
  27.9985218  51.9983063  66.0176697  27.5667591  51.6255493  65.2489929
  28.6478901  52.6026764  65.6580963  51.3728676   1.0900177  60.4401855
  51.2125854   1.8151002  59.8362045  52.1577568   1.3493526  60.9228096
  42.2037163  48.0682907  54.2162704  41.5286598  48.4256172  54.7931976
  41.8217964  47.2608871  53.8720779  38.4763832  58.2400665  70.6704483
  38.4879799  57.8056793  69.8175659  37.8622208  58.9660721  70.5611343
  78.7478638  49.0250626  14.9565220  79.1088943  48.1420212  15.0347738
  79.1205978  49.5027504  15.6975441  14.1210318  39.6993141  71.2042618
  14.5355692  39.0089378  71.7217255  13.2902746  39.3188324  70.9191132
  32.8503914   2.5253413  69.7982178  33.4539490   2.5583756  70.5404205
  32.3576355   3.3440948  69.8535919  64.6684570   2.2177343  81.0062103
  64.0849609   2.6051984  80.3537979  64.7115173   2.8693182  81.7060776
  29.9439964  -0.2657880  39.0955696  30.2799931   0.2263572  39.8446579
  29.7976513   0.3964312  38.4200859  38.8905144  67.8223267  58.9784164
  39.6695976  67.7810516  59.5329933  38.3821564  68.5515442  59.3334503
  70.1078720   0.8090201   9.7951889  70.6871567   1.1726195  10.4648590
  69.7405930   0.0221033  10.1978054  24.2658749  16.1147766  69.7513809
  24.6729813  15.7882252  70.5537872  24.2497730  15.3577881  69.1657639
  35.4439850  38.3807602  29.2527275  36.0879059  37.7380066  29.5501518
  34.9928436  37.9496193  28.5269032  61.1227722  61.7932014  31.5027504
  61.6126099  62.6068726  31.3834515  60.2398186  62.0775986  31.7388439
  51.7170677  21.3313904  81.2316666  50.9898720  21.0608292  80.6711273
  52.2466660  20.5407982  81.3352127  46.7540398  58.3860474  64.8652725
  45.9912415  58.5054169  65.4310608  46.6080132  58.9886665  64.1360550
   1.4596018   1.3207831   7.3902783   1.4433994   2.2627578   7.5595508
   0.6068399   1.1332166   6.9980435  26.5596066  63.2815895  84.4960175
  27.4568596  62.9559937  84.4242325  26.0373363  62.5034904  84.6910172
  39.1612549  24.3550110  75.4676437  38.6680717  23.7296600  74.9366608
  39.5637283  23.8220062  76.1533203  85.7346497  37.3537445  57.3413162
  84.8380356  37.5803299  57.0943832  86.2714081  37.6776466  56.6179848
  63.6658974  48.8193932  40.8869209  62.8942070  49.1313820  41.3595581
  64.1535568  48.3100967  41.5342560  75.8564835  16.7284050  22.4711151
  74.9060211  16.6284885  22.4175491  75.9982376  17.2515068  23.2601032
  83.0315781  30.1523495  26.4694405  83.7191620  29.9074574  25.8501797
  82.3050690  30.4429092  25.9180832  85.2885818  55.8726959  73.2340393
  85.9307632  55.1922188  73.0320663  84.5202026  55.3927574  73.5430374
  57.0435982  51.6546173  62.3684578  57.7690659  51.5341377  62.9811707
  57.4666405  51.8252678  61.5269432   4.4578357  32.2161636  60.3912430
   5.3887920  31.9941444  60.4073563   4.0363374  31.4527378  59.9965897
  56.8927841  61.9138680  10.5110226  56.4637947  61.9434090  11.3661995
  57.3807869  62.7357063  10.4593487  75.6090469   3.3663559  21.2498856
  75.4367371   4.2020774  20.8161697  75.4158936   3.5311666  22.1727943
  43.9859543  33.1303444  22.4479141  43.8681679  33.4017029  23.3582573
  43.8964462  32.1775627  22.4685020  19.1525040  53.7075157  16.7178688
  20.0653381  53.4434357  16.6028500  18.6464939  52.9316788  16.4764900
  59.6240730  28.3567543  11.1941814  60.3046150  28.8810177  10.7719946
  59.1178398  28.9881954  11.7052984  40.0009346  67.0705719  33.2815437
  40.4002876  66.2478409  32.9989204  39.3170624  67.2398682  32.6335526
  44.4256821  53.9507828  84.6332550  43.7713165  53.2535172  84.5901413
  45.1020699  53.6086693  85.2177963  62.2803078  23.4605141  18.3029957
  62.0197792  22.6087818  17.9524136  61.6366997  23.6449757  18.9870834
   3.1179557  16.3883839  69.6510239   3.4432225  15.8036118  68.9665756
   3.8401816  16.4504910  70.2761383  64.6287689  27.0677147   4.4391818
  64.9416885  27.7651939   3.8631287  65.1121521  26.2905712   4.1587925
  39.8824272  53.2463722  28.0534706  39.9847794  52.3648148  28.4121037
  38.9978676  53.5078049  28.3092899  71.4413986  32.6355133   8.8429661
  71.9199448  32.8574944   8.0442476  72.0457077  32.8533554   9.5526075
  59.0581512  23.5497551  85.2793961  59.4073372  24.1271896  85.9582748
  58.5983810  22.8630009  85.7623138  53.4742012   7.3733625  74.4154892
  53.6819191   8.1821489  73.9475708  54.1799202   7.2787642  75.0552139
  85.7959671  70.0279541  40.4827309  85.1109543  69.4732666  40.1094818
  85.9973450  70.6580963  39.7909203   6.1904726   7.9765987  31.0153046
   6.4494548   7.3507652  30.3389225   6.3280172   7.5093074  31.8392906
  68.8886795  51.4979858  65.1644974  68.3579254  50.7015228  65.1509323
  69.7814484  51.1883125  65.3171310   5.0331178  14.7833633  24.4207802
   4.4512968  15.3866882  23.9584866   5.4761472  15.3287020  25.0708294
   9.6466808  49.0255547  84.8880386  10.3848085  48.4510002  84.6848526
   9.9929810  49.6409340  85.5342712  77.4268799   0.6825721   7.8716402
  77.4630356   1.5955540   7.5863533  77.8915253   0.6745465   8.7084618
  12.4041815  56.8475266  88.6367111  11.8325558  57.1374168  87.9257660
  12.9977179  56.2190323  88.2256851  59.4695053   9.9640188  23.9477425
  58.9783287   9.2481565  23.5446072  60.2709236   9.5523548  24.2710037
  41.3344536  68.6403732  69.1124039  41.1000023  68.7876053  68.1961136
  41.0502930  69.4355850  69.5630951  71.8214340  22.6280689  31.9229755
  72.3579788  23.3601933  31.6190815  72.2653809  22.3170509  32.7119064
   9.6212244  36.5914612  66.5922928  10.5495787  36.3778419  66.6858673
   9.1779575  35.7431526  66.6033401  78.7931137  45.0840302  25.5712109
  78.2219238  45.7838821  25.2547054  78.3290939  44.2769928  25.3484802
  10.4751329  64.9088058  68.0052872  10.6042109  64.7969055  67.0634537
  10.6455259  64.0424805  68.3749847  25.0314388  45.8994522  27.4269009
  25.1525078  45.7008667  26.4983864  24.1651745  45.5498161  27.6356373
  84.7288132  14.0267849  37.5498657  84.0841522  13.4250278  37.1776657
  84.5697403  13.9947100  38.4932098  55.8134537  68.1597214  59.0239716
  55.3724937  68.5718079  58.2810211  56.1000938  67.3093948  58.6907768
  13.2284536  61.3616104  48.1010170  13.2703562  60.5638008  47.5737839
  14.0205526  61.8453217  47.8668556  42.6006279  44.6982956   4.9799185
  42.0826073  43.9395103   5.2484999  43.5012856  44.3754501   4.9513569
  33.2995987   1.4031470  24.4496155  32.5709419   1.1626608  25.0218563
  33.0391884   1.0869335  23.5844994  18.6081505  70.2919617  74.2651443
  17.6717339  70.2702713  74.4623337  18.6886730  70.9286270  73.5549316
  22.8415909  48.1204109   1.4100577  22.9304256  47.5620461   0.6376798
  23.5310440  47.8209305   2.0026777  83.9056854  26.5167217  23.7043991
  83.5246735  26.9588871  24.4630527  83.9236832  27.1865482  23.0208492
  31.8913555  68.0288162  17.8243713  31.3101807  67.7279205  17.1258526
  31.5205517  68.8671341  18.0999718  73.8954849  43.7019730  26.7065201
  74.2824860  44.5558777  26.5133610  73.8768768  43.2509842  25.8624268
  72.4238358  18.2665863  35.5764236  73.2687531  18.7140713  35.5305061
  72.0316544  18.4063187  34.7145081  52.1511345  62.9934158  45.6791534
  52.5815468  63.5664978  46.3136215  51.9287872  62.2075958  46.1784401
  33.4283524  46.9470291  10.1719532  32.5051155  46.7141266  10.0738668
  33.9039803  46.1736641   9.8687725  46.5252953  31.8135872  62.8558693
  45.8778152  31.4104748  63.4342308  46.3167000  31.4706287  61.9869080
   9.5723495  34.1676178  33.1370659  10.1573648  34.8577995  32.8245888
   9.7249031  33.4355888  32.5394936  72.0671997  37.3193245  49.9152908
  72.3301544  38.1381912  49.4951172  71.1561737  37.4632683  50.1713142
  61.4361115  17.1493320  31.3309975  62.1708221  16.8439541  30.7988548
  61.7838669  17.9012794  31.8104458  30.6934834  65.7347794  63.7310715
  29.8969154  66.2586670  63.6459122  30.3909645  64.8923035  64.0701141
   8.3536348  33.5795517  85.2298355   8.9133806  33.5946617  84.4535065
   8.7743921  34.1849632  85.8403091  86.8922501  39.9174232  31.3115082
  86.1828918  40.5424461  31.1618633  87.2630768  39.7634430  30.4425945
  32.2926941  61.3168106  19.8822937  32.1846848  60.5253983  20.4097672
  32.8915672  61.0579491  19.1818848  48.7305450  13.3608341   2.9450867
  49.6634331  13.4564209   2.7532139  48.4981804  12.5053463   2.5840068
  34.2539635  19.6386814  81.8236237  34.9522705  18.9844532  81.7994232
  33.9467964  19.6947136  80.9187775  55.3861809  51.0618095  64.4281158
  55.9070282  50.3222275  64.7411118  55.8920898  51.4192429  63.6983681
  14.5201988  34.5820503  16.2100239  14.0053368  34.0159607  16.7850838
  13.9333897  35.3089828  16.0015640  23.1777344  62.9453087  86.4957581
  22.8974609  62.9740181  85.5809631  23.8595257  63.6142311  86.5584793
  58.1171837  34.4312897  56.8536224  58.7472343  35.1250153  56.6586456
  58.5997391  33.6191673  56.6992645  14.5133839  68.3577957  74.6861115
  15.1055174  67.6646423  74.9779129  14.9033508  69.1639709  75.0241013
  65.0391769  63.0050507   5.5318336  65.4297028  62.7462654   4.6971173
  65.6519775  62.6831970   6.1929784  77.1242981  18.1523991  63.2112274
  76.6964264  17.5544720  62.5983315  76.4070663  18.6603088  63.5904884
  79.6642838  48.8368187  37.3533325  79.1884537  49.6141548  37.0608139
  79.0656738  48.1102638  37.1800842  34.1437645  22.4033108  78.8755951
  34.8045311  21.8935509  78.4068069  33.4579201  22.5607681  78.2267075
  51.0148926   2.9936652  86.1031342  51.1252136   2.5325758  86.9346771
  50.5002022   3.7693760  86.3258438  74.4340591  37.3056793  47.1564827
  74.9618607  38.0673485  47.3963165  74.7154083  36.6192513  47.7613716
  76.6765823  34.5838165  74.5591888  76.7267761  34.4075050  73.6197052
  77.5655060  34.8427010  74.8021317  72.0783615  61.5666351  51.0908623
  71.5705948  60.7745171  51.2668114  71.7357254  62.2128487  51.7083092
  50.0192146   5.9566092   8.9262800  50.4923553   6.2108836   8.1339931
  49.0967178   5.9787292   8.6718464  12.7649994  42.6526985  72.7773056
  12.0070171  43.1800537  73.0294876  12.8028994  42.7283745  71.8238525
  57.3586121  29.1570778   6.3636732  57.8911171  28.3961048   6.1321726
  57.7347221  29.8760300   5.8558559  29.2934761  57.9198265  49.7771263
  30.0749912  57.4266663  49.5276070  29.6288433  58.6608353  50.2817726
  17.6565762  57.9910889  51.9494476  17.1741600  57.9279366  52.7737770
  17.0276394  57.7163696  51.2822151  56.5373497  58.9548645   1.8462099
  57.1185799  59.1044388   1.1005356  56.9178543  59.4743233   2.5544534
  11.3553305  66.5876617  76.4535904  12.0078878  66.5128479  77.1498718
  10.5140381  66.5397263  76.9076385  79.2362366  49.6522369  33.5320206
  78.5119019  50.0782928  33.0737076  78.8156662  49.1494865  34.2295799
  14.0736675   6.3396220  84.9813843  13.2442713   6.7643056  85.2004242
  14.3765068   5.9646802  85.8083954  66.4033737   4.7897277  79.9291840
  66.2164230   3.9907172  80.4219971  67.1013031   5.2187114  80.4242554
  32.1608887  34.2960358  18.9150505  31.5629921  33.9966545  18.2301235
  32.0511246  35.2468033  18.9300098  11.5540838   8.2993803  21.9678745
  11.0996456   7.4728618  21.8048267  12.3602972   8.2344694  21.4559765
   3.9660709  59.0803223  25.4373932   3.4646485  59.0913467  26.2526760
   3.9200497  59.9806747  25.1157093   5.8714051   9.0479650   5.0930686
   5.8658686   9.9045525   5.5202217   5.6371961   8.4324255   5.7876825
  43.6582642  39.6506119  82.8790207  43.4834137  39.1771736  83.6923523
  44.1518555  39.0305138  82.3422928  61.8701134   3.7406719  54.1764450
  61.7417908   3.1726642  53.4167557  62.3908195   3.2147508  54.7834930
  14.2924604  71.0170898  35.0699348  14.7104826  70.5760880  35.8095284
  14.4319201  70.4270020  34.3292694  10.2334976  13.5713930  75.3522034
  10.1168776  14.4762087  75.6419296  11.1440535  13.5289001  75.0601196
  56.0143776  61.4520569  12.8748550  55.6973152  60.5604095  13.0186262
  56.8581772  61.4818420  13.3257961  16.0574493  30.6514168  30.6136780
  16.9824390  30.8679390  30.4964409  16.0347481  30.1207256  31.4099712
  17.6059265   0.5599110  17.3695831  18.4311981   0.3032073  16.9581661
  17.0552979  -0.2207408  17.3093967  79.1898270  53.4623451  78.6595459
  78.4206009  54.0310440  78.6928940  79.6967316  53.6993217  79.4361572
  11.7720509   4.7888155  21.7897739  11.2047033   5.2514338  22.4064846
  11.8082075   3.8924694  22.1236744  19.8230228  47.8252754  86.5116882
  19.3582458  48.6544991  86.6239395  20.7492294  48.0604210  86.5671768
  75.2213364  70.2863388  72.4905624  75.9670181  70.4904480  73.0549469
  74.5568237  69.9415359  73.0870209  51.1105232  47.1144791  26.4238338
  50.1745262  46.9872017  26.2691021  51.1522484  47.8064766  27.0838566
  44.4064064  29.2157593  82.0846481  43.5027771  29.3511486  81.7994156
  44.8781586  28.9850368  81.2843628  27.6332283  29.3997173   7.7779498
  27.6773739  29.2403603   6.8351412  27.7722836  28.5390472   8.1731014
  82.5077667  19.8430252  28.1353207  83.2838058  20.2431602  28.5276070
  81.8635941  19.8254776  28.8431129  81.1372375  40.5430603  54.9283409
  81.1411591  39.5886078  54.8559837  80.2107773  40.7744484  54.9944382
  73.9104843  35.2642860  61.7499580  73.8429947  35.0295143  62.6754646
  73.5797043  34.4967194  61.2834167  48.2202530   7.3767052  52.0130768
  48.1421204   7.3634543  52.9669914  47.3405685   7.1693683  51.6978073
  69.6149979  70.0040970   6.1682057  69.1603546  70.8461227   6.1911225
  70.0750732  70.0030823   5.3288245   1.3325472  47.4317894  29.0327530
   1.7835418  46.8921661  29.6820908   1.9647951  48.1143494  28.8077927
  50.7609787  27.1403103  80.9046936  51.5371895  26.5844078  80.9732666
  50.8862953  27.8105698  81.5764694  46.0254707  32.1595993   7.7208486
  45.2163544  32.5875092   8.0009499  46.4896278  31.9680519   8.5357714
  16.6366673  40.1937904  56.4544907  15.8689423  40.7558327  56.3498917
  16.4821720  39.7277718  57.2761879   6.1837397  68.3167877  10.8224401
   6.3809185  69.2507172  10.8939552   6.2205291  68.1354523   9.8832932
  54.3876801  28.1205273  72.4502640  54.6378708  27.3149338  72.9026489
  53.5781479  28.3954411  72.8807449  17.5265045  42.6746178  40.6990013
  18.2112293  42.0729408  40.4068222  17.7120361  42.8159790  41.6273499
  75.3572464  30.9433289   8.1334476  75.3698883  31.8888702   7.9850507
  75.4346313  30.5625381   7.2586665  22.5706711  44.5264893  62.2972336
  23.3802891  44.3317337  61.8251953  21.8742771  44.2350769  61.7087250
  82.4680023  58.3590202  66.0461044  82.2150269  58.5027733  66.9580078
  83.0159531  59.1129112  65.8278656  15.4796753  11.5672235  26.5304260
  15.5230131  11.2899847  27.4455719  16.3760090  11.8255129  26.3157082
   8.9820585  30.4959564   1.0505270   9.0099840  31.1266060   1.7700644
   8.0724354  30.1988163   1.0276407  50.4195366  46.8490753  17.9532146
  50.2730522  46.5680695  18.8564358  50.2032166  46.0805435  17.4252033
  76.0528946  22.6129780  67.7316360  75.5238724  21.8684063  68.0179596
  76.8850021  22.2253609  67.4603806  44.5977211  22.0804272  77.3776016
  45.4969177  21.8905964  77.6452560  44.1382179  21.2461777  77.4730911
   1.6286566  24.7201099  84.0799332   1.0737574  24.7372150  83.3001709
   2.5017436  24.5108261  83.7480392  37.2774963  30.8682232  43.7587852
  37.6085739  30.4641647  44.5608788  36.5694733  30.2903824  43.4741173
  85.0864182  33.2549438  87.9585648  85.0177231  33.3148880  87.0057220
  85.6979752  32.5342674  88.1097488  73.4009171  25.7130890  52.2558098
  73.4315948  26.3545418  52.9656181  74.2507782  25.2742252  52.2926903
  69.3750381  10.0564480  83.7485886  70.2727203   9.8506622  83.4877243
  69.4393463  10.2715178  84.6790924  56.9890175  41.5889778  26.2080383
  56.5744858  41.9285889  27.0011711  56.8924561  40.6390343  26.2752686
  49.5213165  61.2595100  44.5747566  49.6711884  61.0911827  45.5050430
  49.0185928  62.0738640  44.5566559  45.2481537  44.2035370  45.6727524
  46.0116119  43.7899818  46.0756569  44.6958961  43.4713402  45.3986511
  66.4709320   3.4955969  57.4653549  67.3832321   3.6210439  57.2042046
  66.4971542   3.4684703  58.4218102  79.2793045  47.9121742  21.4833012
  79.5325241  47.9026680  22.4063511  78.6297531  48.6124268  21.4203339
  42.7994041  42.4174194  38.5672150  43.1155510  41.5525627  38.8285713
  41.9797096  42.2430916  38.1046791  33.7478485  42.3042793  86.4940491
  34.1630745  41.4941597  86.1981964  32.8179970  42.0867538  86.5595627
  58.1748199  65.8331985   6.7172489  58.0110321  66.1681824   5.8356647
  58.3389397  66.6153717   7.2440262  51.4046783  67.2405090  27.8442860
  51.8576431  67.8780136  27.2923412  52.0659561  66.9580154  28.4760628
  47.3991814  65.9365997  31.8664818  46.5628967  66.2347183  31.5087299
  47.1766014  65.1608887  32.3812218   4.7567906   7.9148970   7.7774730
   4.0670733   7.3404574   7.4449954   4.2943182   8.5588360   8.3138447
  52.0746422  57.6546822  51.8600769  53.0201492  57.5128136  51.9061279
  51.6952438  56.8715248  52.2587662  48.1211090   8.4932756   0.7105274
  48.1237869   9.1891460   0.0532685  48.7016792   8.8136091   1.4008580
  64.4851532  17.3886280  34.8504448  64.8943787  17.3420887  33.9863815
  64.5384674  16.4949493  35.1891556  61.6035500  50.5795860  49.1660118
  62.3063660  49.9755478  49.4056282  61.3096962  50.2764473  48.3069496
  70.7507248   8.5455465  43.9413643  70.0013733   8.1415167  43.5038109
  70.6380920   9.4842062  43.7914848  26.0931854  24.9805641  22.7766457
  25.5337963  25.6957016  23.0797882  25.7432575  24.7511978  21.9157314
  63.9894257  48.9524994  21.1730461  63.9224815  48.2251778  21.7917194
  63.1241570  49.3614769  21.1896477  84.4852982  32.3043289  79.4271545
  84.9375458  32.8311272  78.7682266  83.6865311  32.0085793  78.9904099
  85.8369980  21.8659458  22.6768627  86.4216843  22.6020050  22.4963207
  85.2899094  22.1669941  23.4023228  71.4706955  17.6178246  55.8452797
  72.0761871  17.4388218  56.5647049  72.0322495  17.9062138  55.1257477
  82.6125412  43.9328995  53.4092026  82.1927261  43.8175545  54.2616615
  83.5248337  43.6829376  53.5557213  32.3670158  38.7881927  65.6562271
  33.1270409  38.3966141  65.2258072  31.7518597  38.9626503  64.9439240
  19.0658989  51.0038223  47.3446236  19.9879589  50.8025627  47.1848335
  18.7910194  51.4971886  46.5717964   9.1378031  42.4722595  22.7420807
   9.5599155  41.9208908  22.0832596   9.8325996  42.6693459  23.3702888
  70.1996155  16.4001369  34.1860237  70.3348236  15.4612513  34.0577965
  69.6538544  16.6667614  33.4462357  42.1387367  48.5451851   4.6439447
  42.4295006  48.4333687   3.7388558  42.9455643  48.5272026   5.1586647
  10.6228132  23.9606190  70.3852158   9.7006674  23.7050514  70.4089661
  10.6335688  24.8514175  70.7353516  66.7254868  64.2138824  42.8314247
  66.5245438  63.3707657  43.2376328  66.6748657  64.0446243  41.8906708
  71.3704681  46.4655533  63.5323906  71.9633713  46.9541321  64.1033478
  70.4954453  46.7509003  63.7953377  27.2458153   8.2737894  68.5794220
  27.2543888   8.9319820  67.8844833  27.9597626   8.5317764  69.1624756
  30.8610592  50.5624504  27.2570038  30.5638943  49.7896538  26.7766819
  31.4855976  50.2211342  27.8970718  26.2927036  61.7047920  11.1201582
  25.3389874  61.7457809  11.1906939  26.5123444  62.3606834  10.4584961
  14.2195396   0.6648395  54.4897499  14.1777763   1.4008595  55.1002922
  14.6776867  -0.0221929  54.9738121  47.6291351  20.4952507   3.5779860
  46.8980598  20.4175606   2.9650233  48.1955109  19.7519550   3.3707063
  20.9255657  48.2975426  41.0815048  20.1998367  48.3722382  41.7011566
  20.7425461  47.4943810  40.5939903  75.8137970  43.2510223  20.0263844
  75.5550385  44.0660286  19.5962143  75.0703964  42.6630783  19.8925915
  73.6696014   4.4480834  74.3521881  73.8198700   4.7289758  75.2548218
  72.7210541   4.3350382  74.2912827  86.5518723  38.0436935  33.7099495
  86.9746552  38.4202232  32.9381256  85.6146927  38.1394272  33.5403328
  43.4200172  37.7118835  28.2710476  44.0480499  37.0638351  28.5901737
  42.5999184  37.4873734  28.7106647  65.3708572  66.0005798  28.2475471
  65.3460464  66.6820526  28.9192677  65.0078430  65.2265701  28.6780834
  30.7345943  48.7460213  16.2630959  30.0173359  48.8668022  15.6408567
  30.8015900  47.7971878  16.3701401  24.2839584  64.2346115  74.9867706
  23.4520340  63.8282852  74.7438049  24.2570515  65.0991135  74.5767212
  41.6216049  46.3034363  39.3342171  41.3409157  45.9623680  38.4850311
  40.8370972  46.7129250  39.6990395   9.0330601  41.6994591  42.3412590
   9.6991253  41.0138702  42.3918533   9.5314589  42.5109329  42.2446136
  34.4355354  52.2207146  61.5136108  35.1049042  51.6681099  61.1101227
  34.7053757  53.1150093  61.3046646  67.6328201  11.3215561  75.3549118
  67.8575287  10.4920540  75.7764130  67.2242966  11.0668726  74.5275803
  64.6754761  19.9545116  31.5901775  64.8295441  19.6060772  30.7120628
  65.1489792  20.7862740  31.6042976  70.9822922  39.0521431  30.8772945
  71.6078873  38.8073196  31.5591488  71.5133667  39.4863281  30.2097034
  57.5207825  44.8960724  14.9718676  58.0586243  44.1055565  14.9266491
  56.6477852  44.6073341  14.7058973  74.7302856  60.5049400  32.3692665
  75.2629242  60.2229767  33.1129189  75.3103180  61.0712280  31.8602390
  41.8198433  27.2584763  25.9432678  41.1498680  26.5765057  25.8955078
  42.3237038  27.0446587  26.7285309  72.6855850  29.1283321  17.2287045
  72.3041840  29.5224590  18.0131989  73.4324646  28.6248131  17.5525436
  65.2830734  54.7660751  71.8493500  65.1077347  55.2973404  71.0726624
  64.5083237  54.8827553  72.3992386  82.2208405   7.2090530  81.3621063
  82.8101273   7.9337058  81.5715103  82.3600388   6.5759587  82.0664139
  19.6604443  46.1872330  56.4808578  20.0465183  45.4399796  56.9377937
  20.0966549  46.1984520  55.6289024  45.6333656  59.4393120  30.4110260
  45.9329834  60.2509155  30.0014400  45.0441399  59.0486832  29.7656937
  76.6806870  18.3886471  80.0949936  77.4780579  17.8622856  80.0369034
  75.9873123  17.8085480  79.7804260  49.6865425  61.8813133   5.6642089
  50.4771271  61.8920174   5.1246772  49.0553818  62.4088478   5.1747460
  72.9851990  35.2904015  16.2046242  72.7064972  34.4708138  16.6130733
  73.1089630  35.0681648  15.2818413  75.7352295  41.7294922  84.5842438
  75.8906937  41.2416573  83.7754898  76.4939117  42.3075294  84.6648865
  82.0607452  62.7587509  61.0740204  81.1257935  62.6526337  60.8984108
  82.2731705  63.6245422  60.7254333  50.9029503   5.2923927   1.7777921
  51.0429916   5.1874318   2.7188573  50.2328033   4.6440182   1.5615829
  37.9944305   6.8785810  69.9699326  38.2670097   7.1648879  70.8416901
  37.9444504   7.6855464  69.4575424   5.9762030  40.5608177  32.6532211
   6.0535507  39.7753181  33.1947403   5.6038156  40.2477188  31.8288841
  19.8742313  56.1411285  61.7354393  19.7313251  55.4026222  62.3274002
  20.6745815  56.5553284  62.0581017  31.7443790  24.9120560  84.5304413
  32.0467415  24.5265846  83.7081146  32.1532135  24.3767109  85.2105026
  19.7710438  53.3443069  26.1221027  19.2113075  52.5937767  26.3211823
  20.5880222  52.9570885  25.8077145  52.8644485  35.6833000  27.1131229
  52.0544357  35.6460686  27.6217690  52.9056549  34.8378830  26.6661301
  84.5677414  18.2247391  27.1964512  85.2233582  18.4842796  27.8437805
  83.8139191  18.7849846  27.3811398  19.9414349  37.4555893  21.4036369
  20.8793583  37.2733879  21.4613686  19.6253815  36.8691292  20.7163181
  70.8667603  70.2560196  53.1393623  71.5931168  69.9663544  52.5873337
  70.0980301  70.2018585  52.5716057  56.2726326  37.5888367  21.2439785
  56.1315613  36.6454773  21.1639633  55.4222221  37.9765625  21.0373173
  78.4118118  38.8765640  49.4538956  77.7410278  38.1996155  49.3643112
  78.9171295  38.8218575  48.6427917  46.3034744  38.9236755  39.4677582
  45.9287720  38.1741371  39.0051384  45.6148834  39.5881577  39.4444618
  79.2656097  47.8919411   2.4335716  78.6429825  47.1842690   2.2669365
  78.9539566  48.2998772   3.2414641  37.3465805  59.2324753  38.5442963
  37.2241936  59.3018951  37.5974960  37.7425957  58.3704529  38.6720467
  31.4041996  52.4695892  54.4885178  31.0140934  53.0416260  55.1494408
  31.9228249  51.8415451  54.9913292  82.7051544  63.3170395  76.5580139
  83.0250931  62.8123894  75.8102188  81.7836533  63.0703659  76.6368027
  80.2164078   9.8952761  45.9977226  80.2727203  10.8166389  46.2510033
  80.0933380   9.4269829  46.8234253   2.6892760   1.2552176  33.6649971
   3.3369067   1.4797181  34.3331337   1.9023241   1.7349352  33.9234734
  30.8874607   0.7359956  41.3538551  30.4173927   0.8988169  42.1716309
  31.7973270   0.6077451  41.6220474  13.3468819  53.4871521   7.8662477
  13.0922203  54.2159271   7.3003259  14.1332369  53.1281357   7.4551716
   4.7002630  68.0753937  13.9582157   4.5714145  68.3513260  13.0507517
   5.0464315  68.8520050  14.3978462  77.7790375  10.6941347  73.1012726
  77.4402008   9.8680477  73.4462357  77.3416672  11.3682480  73.6213760
  12.3974705  25.9521847  62.9879036  12.0967636  25.5035934  63.7782059
  12.1523380  25.3661346  62.2718849  72.6373062  39.0784760  86.7016144
  72.7922440  39.9260788  86.2847214  71.9352646  39.2456207  87.3304443
  54.4189453  13.9023457   7.5912709  53.8634300  14.6137695   7.9098821
  55.2456627  14.3276443   7.3634877   1.1406748  13.0853281  10.2109528
   1.4715387  12.2044697  10.0353117   1.8481932  13.5156212  10.6910543
  78.2245941  62.1432495  88.6554565  78.2416611  62.3387451  87.7185898
  77.5035553  61.5220070  88.7574005  29.3575897  58.0781097  54.9466553
  29.4859409  57.5610123  55.7418747  28.8474159  57.5088577  54.3705406
  21.7995491  11.4859142  66.8905563  21.5786934  11.5916910  67.8159027
  21.7755527  10.5401220  66.7451859  60.2090225  66.5490265  71.7045517
  59.5319023  67.1703262  71.4367447  60.6944084  67.0053024  72.3918991
   6.6502018   6.8580122  72.1226654   6.2707944   5.9803343  72.0783539
   6.0945220   7.3882737  71.5514603  24.9301777  46.1054916  73.6253204
  24.2387428  46.3579636  73.0134277  25.6890659  46.6229553  73.3559647
  64.5207672  57.1207390  37.4158287  64.4435196  58.0324707  37.1347351
  65.1930542  57.1362610  38.0970230  40.8969040   3.1125536   4.3750315
  40.5484734   3.6213963   3.6429746  40.8541336   3.7085431   5.1228271
  69.0781708  15.0285807  55.5413437  70.0277252  15.1242533  55.4676552
  68.8637466  14.3059893  54.9513283  78.2001419  38.0757217  61.9540062
  78.0802917  38.8694000  61.4325256  77.6542740  37.4196625  61.5205956
  19.3058300  63.6740074  49.5201035  19.0982246  62.8947945  49.0043869
  18.9948578  64.4047470  48.9857368   0.2941542  66.9317245  78.4275055
  -0.1816813  66.1320724  78.2030945   0.8097870  66.6952286  79.1984940
  57.4323044  32.4642410   2.6012509  56.5241280  32.4559402   2.9035428
  57.3696022  32.6188927   1.6587104  21.3613186  16.0388279   7.9267058
  21.7980156  16.3194942   8.7309170  21.2833786  15.0889444   8.0154581
  25.7600975  33.3629036  76.5678177  26.0383511  32.4564590  76.6988525
  26.4160328  33.8841057  77.0307693  79.9869995  50.0597076  51.8865395
  79.6207123  50.5727310  51.1662102  80.3203354  49.2652397  51.4694824
  37.7969780  34.1348991  21.7920113  37.4015808  35.0051308  21.8428574
  38.7399025  34.2994118  21.8000240  67.9446564  10.7305050  35.6180611
  67.5171814  10.1946096  34.9499969  67.2348862  10.9948044  36.2033844
  57.7655525  48.0263138  79.7157669  57.0377274  48.0368118  80.3373718
  57.4227676  47.5598145  78.9534607  74.7673798  15.4380169  82.8787994
  74.3790283  14.5904970  83.0958862  75.6431656  15.2247229  82.5567093
  23.7643623  71.0449905   1.7998475  24.2385025  71.8527298   1.9972534
  23.9059868  70.9069061   0.8633066  29.1900387  70.7488251  80.0505905
  28.6562691  71.4813614  79.7428360  28.5557594  70.0680237  80.2751541
   8.3944788  14.9076996  88.9591980   8.9780817  14.6137114  88.2597656
   8.1955042  15.8176079  88.7385025  67.6948929  41.9158058  11.6806307
  68.4340897  41.8535767  12.2855654  68.0607986  42.3253441  10.8966532
  66.2307358  43.6945610  67.6205368  66.5628967  43.8433037  66.7352219
  66.9477692  43.9651985  68.1939850  43.2588997  14.9924641  88.5576935
  43.2366638  15.8043766  89.0641861  43.5539017  14.3290491  89.1814651
  80.0486984  66.9978867  78.2662430  80.1679077  66.7033386  79.1691589
  79.1175537  66.8619766  78.0909271  21.3144970  68.9206924  44.9296341
  21.9558010  68.4995804  45.5020142  21.7462921  69.7226868  44.6353531
  67.3384476  66.1917496  17.9739933  67.6491776  66.4407196  17.1035366
  67.8314819  65.3993454  18.1867218  62.1030006  53.3224792  88.7835312
  61.9531822  53.7810516  87.9567871  61.8410645  53.9505615  89.4566803
  44.2126083  31.9204235   5.1293688  43.7317886  31.5609818   5.8749170
  44.8148727  31.2218342   4.8734717   6.2821097  39.6662521  26.4393215
   6.4670630  39.7708359  27.3726425   5.6710782  40.3742790  26.2354317
  56.4834480  33.7480354  80.3797913  55.5687370  34.0054741  80.4949341
  56.8429680  33.7381516  81.2668533  79.1619873   6.4053316  10.1430340
  79.3341751   7.1385689   9.5523176  79.8205566   5.7507443   9.9105921
  71.5134811  26.1189671  80.9009933  70.8360901  25.6953087  81.4281387
  72.2862473  25.5655994  81.0143738  46.4396324   3.6031961  49.7611732
  46.8073616   3.7179842  48.8849144  45.4921379   3.6380341  49.6297531
  67.4402771  25.7226143  38.0092354  66.7342300  26.2334328  38.4052086
  67.6795197  25.0838890  38.6808205  32.9777908  42.6252174  65.8294907
  32.5360031  42.9855194  65.0605774  32.5725365  43.0746803  66.5711060
   3.4323049  45.3935776   4.5860696   3.2846079  45.7811966   3.7234170
   4.3318048  45.0680923   4.5515742  43.0546951  61.0857277  29.6503658
  43.3821182  61.8012314  30.1954155  42.4618416  61.5094223  29.0296898
  65.8200684  23.4620228  51.6606331  65.8620529  22.9215679  50.8717232
  66.5553055  24.0688705  51.5746307  10.0643368  19.9095650   3.0540135
   9.4314690  20.6198101   3.1601369   9.6891356  19.1789894   3.5456572
  73.2447357  70.7684250  89.1036606  73.9039841  71.2551956  88.6090164
  72.4978561  71.3645859  89.1583939  25.4512615  37.6673851  17.5004559
  26.0535717  37.9138451  18.2023907  25.6828403  38.2442741  16.7725792
  38.5711250  40.6944351   2.5589950  37.9530029  40.6855354   3.2898021
  39.0278587  41.5315552   2.6417861   7.7176790  20.7891407  78.4878235
   6.8763061  20.3559303  78.6315384   8.0840931  20.8978348  79.3654099
   7.5119915  69.8928680   2.3664188   7.3360276  70.7829056   2.6715276
   8.3338089  69.9642029   1.8808694  30.5575256  36.8865891  30.5885162
  31.4558220  37.0695572  30.3131618  30.0245628  37.5127258  30.0984764
  49.5645752  65.2200012  84.9315491  49.7553406  65.4796295  85.8329010
  50.0704002  65.8298569  84.3944778  86.8325806  41.3704681  67.7030945
  85.9001236  41.1562843  67.7327423  86.9823837  41.6643066  66.8045197
  49.7578354  24.5962868  30.6278820  49.3163872  24.2103138  31.3844395
  49.0626488  24.7178402  29.9812222  68.5187607   9.2289600  52.7159958
  68.9143524   8.7100496  53.4163361  68.7838745  10.1289339  52.9057198
  39.0777168  46.3194389  29.8242836  38.5542908  45.9289703  30.5241356
  38.4842567  46.3577843  29.0742378  47.5734444  13.7543640   5.7616148
  48.3547173  13.6494617   5.2186236  47.2575226  14.6349516   5.5591516
  48.7910538   0.6274509  15.9616518  48.8549232   1.5823231  15.9809284
  48.6558075   0.4150445  15.0381680  30.6100578  56.7215118  17.0982456
  31.1518421  57.4985962  16.9609680  30.1281872  56.6175003  16.2777500
  16.8349762   1.8195243  24.6495380  16.7834969   2.0681024  25.5724621
  15.9651642   1.4762279  24.4450760  61.3431702  56.3453636  55.9969063
  61.3561516  57.2099571  55.5863724  61.3676491  55.7313499  55.2630005
  62.5573578  27.2941246  44.4293976  62.7340050  26.3562088  44.5024796
  62.8465462  27.6582203  45.2660789  85.5890198  18.7601376  45.3165016
  85.0737991  17.9637318  45.1879692  85.0527115  19.4562168  44.9369164
  60.4179382  24.7034874  56.0481720  60.2947388  24.2758675  55.2007103
  59.6086121  25.1949921  56.1883469  69.6852722  19.2554893  78.2768707
  69.6866226  18.7771759  77.4477463  69.0288010  19.9416313  78.1564789
  63.5919685  49.6309395  64.6003342  63.0754547  49.0184212  64.0766220
  63.5615311  49.2724838  65.4873581  47.6697006  50.7766571  42.4655495
  48.2771378  50.1692963  42.8878860  47.0698471  51.0395966  43.1635971
  65.4931793  37.7252350  63.9949150  64.5875626  37.4153366  64.0016403
  65.9600143  37.0890503  63.4530945  12.2246819  51.1006737  85.0875244
  11.7473688  51.3918457  85.8644562  11.6782351  51.3788033  84.3524933
  31.4671936  59.9995270  11.0411978  30.9457836  60.0822639  11.8396444
  30.8599987  59.6392136  10.3948841  47.0128899  47.1952972  58.9439011
  46.1493759  47.5050240  58.6706963  47.5497131  47.2546692  58.1536293
  83.1676102  19.9150696  53.0292854  83.0542145  19.3908234  52.2364807
  82.9520950  20.8076801  52.7590446   7.7451553  39.3922462   6.4637957
   8.5186319  38.8658676   6.2615795   7.1334958  39.2022705   5.7524486
  25.0593948  55.6695671  22.8389225  24.2525787  56.1620483  22.6881199
  25.0176983  54.9447289  22.2151413  21.2143879  33.2254486  75.9824753
  22.1389141  32.9819870  76.0295105  20.7551308  32.3967705  75.8460693
  59.0944824   6.5734363  55.7842140  59.6775970   6.2696400  56.4798546
  58.5278358   7.2164512  56.2104492  72.0730591   2.8204474   6.1455235
  72.1560669   2.9492962   5.2006741  72.5178375   1.9897631   6.3139586
  18.3987904  41.2345161  27.0567608  17.8798447  40.4401665  26.9305153
  17.7500992  41.9325638  27.1470890  62.2226715  45.3183975  35.1495705
  61.6854019  44.7507591  35.7021675  62.3093796  44.8384285  34.3259583
  19.2673512   6.4270625  88.6859741  18.5603008   6.9813643  88.3557358
  20.0573483   6.7744651  88.2719116  11.3530035  56.6074409  70.5672302
  11.9725809  56.3496628  71.2498093  10.9594460  55.7843170  70.2777328
  14.3155861  40.4961128   6.0432606  13.4836168  40.1446304   6.3603096
  14.5704536  41.1406326   6.7034664  74.7297134  21.2398052  22.4065361
  74.3217239  21.8071995  23.0606327  75.5571136  20.9707012  22.8055592
   8.0746298  42.2007713  79.1284561   8.4857311  42.2840919  78.2680588
   8.2012558  41.2823219  79.3664703  29.8832207  13.1559811  76.1161041
  30.1081390  13.9516907  76.5982742  30.7268734  12.7919312  75.8478699
  24.5343132  42.0844765  26.4766998  24.1971130  41.3064384  26.0326462
  24.3351650  42.8059845  25.8800430  66.7229309  67.6703415  24.7824459
  67.4354477  67.4168243  24.1956997  66.8334274  68.6138840  24.8996925
  68.9541397  50.5319214   8.6772938  69.4247665  50.6759949   7.8563290
  69.6195145  50.6397285   9.3569098  40.7565651   1.9269466  53.0145302
  39.9979858   2.4213319  52.7040939  40.6632233   1.0651129  52.6086235
  73.7666245  31.7202740  56.4443207  73.5448761  32.5193748  55.9663086
  74.3550491  31.2455177  55.8573036  61.9777260  50.1509819  27.7782879
  61.5073662  49.4905968  27.2694836  62.0460663  50.9028435  27.1898422
  62.8936424  31.4852009  56.8610573  62.5697556  30.8782043  57.5265541
  63.8184395  31.6057415  57.0765915  79.5887680  69.3820648  76.9617691
  79.9094772  68.6051788  77.4198303  79.1001663  69.8674240  77.6265488
  67.5366364  55.0497093  77.0412903  68.0835114  54.8897247  77.8104248
  66.6873703  55.3065262  77.4004898  15.8213854  65.2699051  54.6305542
  15.2749701  64.5397110  54.3399048  15.6434441  65.9679337  54.0002174
  47.4584351  25.9593830  74.6093216  47.8841019  25.2743874  74.0937347
  46.5985298  25.5979710  74.8242111   8.1636410  18.3365917   8.2516499
   8.0923595  18.0989246   7.3271689   8.0041885  17.5184631   8.7222586
  39.1878319  41.1561432  75.6651459  38.9028816  42.0287628  75.3939056
  38.8971214  40.5789948  74.9590149  72.8673325  45.7632713  56.3014984
  72.9468307  45.7491760  57.2552872  73.6806870  45.3681831  55.9874954
  45.8616257  12.3321781  18.9666901  46.2253113  11.4702959  19.1694756
  45.4321632  12.2175026  18.1189613  70.7825775  53.7362480   0.2459903
  69.8317642  53.6683655   0.1589518  70.9374084  54.6529961   0.4736558
   0.6843596  53.6410446  53.4032211   1.6224353  53.6926193  53.2199593
   0.5018005  52.7028809  53.4557152  34.4778671  44.4467773  82.0060730
  34.0479546  43.7809792  82.5428391  35.4066353  44.3665276  82.2232971
  42.7162628  60.8075676  69.4355469  42.1560211  60.5279007  70.1595230
  42.1221199  60.8851738  68.6890869  38.9440155  47.9352226  54.5238037
  38.3522148  47.8613091  53.7751122  38.8903084  48.8554802  54.7816200
  76.1515579  22.4818382  83.0733719  75.9139175  21.6494980  82.6647568
  75.4266739  22.6718750  83.6689072  82.4660110  23.0779533  31.6837082
  82.6200027  22.1541023  31.8812370  81.8247757  23.0672970  30.9731216
  52.9136086  23.5571976  16.9739037  52.7733078  23.6327515  17.9177456
  52.0985413  23.1826401  16.6398277  11.7017975  29.2652454  17.1736412
  10.9768972  29.1922722  16.5528145  12.4451113  28.8655987  16.7219772
   0.2639288  36.2698212  41.7680283   0.3081247  37.1684189  42.0948219
   1.1510531  35.9292221  41.8830681  66.3263321  39.7940331  54.0164528
  66.2299805  40.7407951  54.1193542  65.6207581  39.4225235  54.5459557
  22.6946869  41.9677620  19.8419037  22.7899284  41.3250732  20.5448322
  21.7755146  41.9044342  19.5823936  22.9828358  11.5839338   8.0920267
  22.4057808  10.8719606   7.8157434  23.2464314  12.0089998   7.2758961
  49.6964340  65.1839447  29.3657837  49.9685364  65.9238205  28.8228531
  48.8380966  65.4383469  29.7045631  73.1312180  29.3185101   5.4977422
  74.0292664  29.6124096   5.3449044  73.0561905  29.2630997   6.4503875
  23.0047607   1.8762866  65.2492599  22.4497509   2.0504277  66.0094376
  23.8364563   1.5836617  65.6219330  50.7747955  66.0816574  41.0788574
  51.1440125  65.7776947  40.2496872  51.5359917  66.3312302  41.6028099
  41.3875465  11.2711563  11.4606266  41.1239929  11.8786621  10.7694626
  40.7701263  11.4365454  12.1731348  58.7882729  15.8726692  14.8527222
  57.8391953  15.9680681  14.9326162  59.1151047  15.9721708  15.7468758
   4.2288780  22.7232742  49.9799080   4.8957510  23.3351898  49.6683426
   4.5831680  22.3802071  50.8002815  45.7074776   6.9829926   9.1791372
  45.9984322   6.1287313   8.8600540  46.2773094   7.1664653   9.9260378
  65.5774536  12.3254662   2.2691584  64.7528229  12.4943085   2.7249093
  65.3153458  12.0893393   1.3793410  69.7502136  57.7903557  68.1941605
  69.9571075  56.8807335  68.4086685  69.3421555  58.1367188  68.9877319
  44.9339867  32.4331779  33.3924789  45.2353439  31.5639324  33.6567307
  44.8228340  32.9086647  34.2157555  31.0384636  13.8894005  70.4615631
  31.2015057  12.9523859  70.5695114  30.1349468  13.9409370  70.1497421
   4.9586434  70.6730881  51.1992340   5.0043621  69.7398453  51.4070892
   5.6024151  70.7948608  50.5014076  63.2487068  62.6717300  47.0453682
  63.8736687  61.9926414  47.2993126  63.3741226  63.3664742  47.6917686
  81.2197495  26.5333443  19.1624660  81.5325851  25.7204876  18.7654400
  81.9538498  27.1411915  19.0738583  37.5416870  59.3982162  83.7149200
  37.3305397  58.8891068  82.9323196  38.0044174  58.7826805  84.2834473
   7.6076961  28.4951134  69.9906006   8.4474401  28.9534302  70.0223465
   7.3244429  28.4506321  70.9038544  40.5890007  67.9362640  29.7023182
  41.0612679  67.2880859  30.2248745  41.1393929  68.0687180  28.9304657
  55.2451935  50.9892960  13.6060076  55.9497986  51.3227425  13.0505095
  55.6659393  50.3279877  14.1554413  17.4288330  69.3432465  17.4758110
  17.9386272  68.9789429  18.1994305  16.8235035  68.6427231  17.2327690
  74.3881226  58.8484497  68.8930130  74.0598984  57.9609604  68.7485657
  74.4606857  58.9251022  69.8443756  85.0829926  52.3478622  28.2396698
  85.7806244  52.5783806  27.6261597  84.2750931  52.4737892  27.7419949
  42.4884987  41.9336357  70.8852844  42.5152702  42.8814125  71.0165558
  42.6658325  41.5667725  71.7514267  54.1104469  58.7583237   9.6251411
  54.3534889  59.6127167   9.2685213  53.1895828  58.6522903   9.3863945
  33.7814674  24.3096447   3.4585886  33.6141510  24.0848064   4.3738399
  34.0315437  25.2333355   3.4807272  46.2798157  59.4872131  46.3704987
  46.0871277  58.5500221  46.3983727  46.5459824  59.7036896  47.2640991
  78.7535172  51.1964493  60.6001282  78.0222702  50.7148590  60.9868889
  78.3615875  51.6878624  59.8782349  67.0170975  21.6638832  26.2743931
  67.1963120  21.8813248  27.1891785  66.9597244  22.5115700  25.8335228
   7.1172009  67.4529495  49.4736671   6.3927321  67.1540604  50.0232506
   6.6930819  67.8884964  48.7343025  71.1656342  49.0990601  80.3693314
  71.2518311  48.8042297  81.2759018  72.0646057  49.2626839  80.0841827
  52.7925797   7.3376098  42.2435150  52.3968010   6.4664593  42.2697601
  53.6296196   7.2341361  42.6961632  85.4864960  20.6918678  34.5445824
  85.5463181  20.0838223  35.2814217  85.9907303  20.2731476  33.8469734
  85.2641373  10.6076126  39.3608971  85.6259613   9.7288637  39.2463760
  85.6348801  11.1152372  38.6390266  50.8315811  33.5317879  72.4851227
  51.7040825  33.7330017  72.1467667  50.9888420  33.1915169  73.3658676
  27.0083389  47.3088303  17.5661087  27.0051117  48.2296906  17.8273411
  26.0865307  47.0515709  17.5839577  75.0704727   3.4036663  44.3748550
  74.7811356   2.7692628  45.0306358  74.5684052   3.1830640  43.5903244
  20.1896496  47.8691254  13.8065338  19.3222427  48.1688232  13.5344715
  20.1749783  47.9288330  14.7617569  72.5966034  57.5302696  47.1061783
  73.4053040  57.9169998  46.7705040  72.6007462  56.6349449  46.7676392
  72.3269348  22.7926979  57.8003159  73.0111084  22.6980286  57.1376152
  72.4258728  22.0214825  58.3585892  67.6025162  67.6814041  44.4459229
  67.1755066  67.4004974  45.2552338  67.7188568  68.6255951  44.5517502
  17.5096302  27.4965992  86.7442398  17.1189785  27.9499187  87.4913177
  17.4084873  28.1071358  86.0140076  83.0594864   7.0599489   6.7521448
  82.8937759   7.6610808   7.4783750  83.9794998   6.8143711   6.8496680
  58.1855125  60.2368088  54.3786278  57.2912636  60.3286858  54.7074203
  58.1624489  59.4461861  53.8395424  80.6898804  51.5053673  36.1392708
  80.0374374  50.9447212  36.5590668  80.6054153  51.3132935  35.2053528
   0.4342712  49.0273743  12.2094564   0.7167839  48.2192307  12.6376228
   1.2453969  49.5096397  12.0490675  83.2701645  49.2942238  85.6697311
  83.6313705  49.4738731  86.5377655  82.5574646  49.9255981  85.5715179
  34.8525620  60.9645119  77.9411163  34.1468811  61.3889542  77.4531631
  35.6183395  61.0436211  77.3722916  76.4628372  46.1838570  21.5999489
  76.3588638  45.4274940  21.0225964  75.5826569  46.5531082  21.6718063
   4.7910933  22.3792686  37.9911842   4.2732625  21.8721771  38.6164360
   5.2444963  21.7202244  37.4655266  42.4608841  51.6111221  39.9352646
  42.9627686  50.8152199  40.1110001  42.6626205  52.1888962  40.6712761
  46.7208900   3.9237652  13.5954046  47.1284828   3.7882261  12.7399931
  47.4456825   3.8658543  14.2179451   0.1992483  28.5664291  10.5863161
   0.0372247  29.3493786  10.0600367   0.4920041  28.9033661  11.4330750
  59.0849495   1.3843720  24.6461220  59.7251740   0.9873331  24.0556126
  58.2369919   1.0934405  24.3106270  15.2276621  25.3186131  88.7811279
  15.0266075  25.0221043  87.8934937  16.1499443  25.0945663  88.9053497
   1.5845963  52.7791290  62.3055992   2.4439404  52.3959160  62.1297874
   1.0733131  52.5920410  61.5183144  21.7791977  10.1374731  37.6444283
  21.5243607   9.6795959  38.4454498  22.7242661   9.9998074  37.5801888
  65.2967072   3.6493030  35.4244232  64.6226807   3.0065987  35.2033958
  65.5447617   4.0348458  34.5841484  21.1422768  19.2941570  81.7681885
  21.0614643  20.2467327  81.8161697  20.4060879  19.0185375  81.2220306
  54.4468994  40.3267670  22.4068756  54.0404320  41.1435814  22.1173458
  53.8249664  39.6457672  22.1506081  71.6984711   9.6950865  46.5191536
  72.2206345  10.4900808  46.4116249  71.3296280   9.5315599  45.6511421
  68.4249878  44.0524979  64.5227509  68.8382797  43.5710335  63.8060875
  69.1484833  44.2811661  65.1062698  15.8416300  51.9578094   6.6260719
  16.3517208  52.7664986   6.6714339  15.7284088  51.6945000   7.5393524
  69.5148621  24.7095928  47.7759972  70.2818756  25.2747631  47.6837845
  68.7787018  25.3161087  47.8562660  16.9025574  51.8655930  72.5865250
  17.6704750  51.6815033  72.0455627  16.7225456  52.7940407  72.4388428
  61.3338318  15.4597979  21.0716400  60.4784508  15.0682440  20.8948879
  61.9148865  14.7123137  21.2126160  53.5255280  31.6652508   7.1955948
  54.2646408  32.1731873   7.5301790  53.8401184  30.7612572   7.1878009
   5.1859913   0.2952814   8.9987288   4.7928324  -0.4676124   8.5748768
   5.8137960   0.6284705   8.3575754  72.9183350  47.5991745  65.5248718
  73.1738663  48.3813095  66.0139542  73.6086655  46.9631958  65.7124863
  43.3999138  16.7431393  70.9249725  42.6479874  17.3035831  71.1166534
  43.9399033  16.7886868  71.7140045  73.9575729  10.4792337  15.8479729
  73.1797714  10.9399729  15.5333710  74.2889328  10.0158014  15.0787754
  71.6908188   6.9520884  37.5660896  72.1501617   7.7172756  37.9121056
  71.1079636   6.6815486  38.2755432  75.2476654  37.1156006  11.1973524
  75.7996063  36.5598679  10.6471233  75.3876953  36.7876930  12.0856657
  70.2909012  23.7256584   4.7749877  71.2195053  23.5056591   4.7006440
  70.1711121  23.9503155   5.6977077  70.3362656   9.0997515  57.0255585
  70.5472488   8.3013620  57.5095940  70.6371918   8.9257345  56.1337128
  47.2019920   9.8512869  19.5065708  47.0677948   8.9868956  19.8952255
  48.1434212  10.0055771  19.5848980  82.2753220  24.1615734  61.7186890
  82.5841675  23.3972378  62.2051392  82.2795029  24.8716946  62.3605156
  36.2958794  68.3988495  71.4280930  36.0019417  69.1184998  71.9866104
  37.1302605  68.1253204  71.8091660  65.6287842  39.6548424  19.2379055
  65.2290192  39.5084229  20.0952129  64.8872833  39.7887001  18.6475792
  64.1998215  15.1649799  14.6481953  64.2451096  16.0970211  14.4349327
  64.9227829  14.7719870  14.1591988  48.6272736  47.4047127  73.1873093
  48.0891724  46.9026031  73.7993240  48.8007317  48.2291756  73.6416245
  78.4441757   1.0661321  19.1051712  78.4490967   1.6966667  19.8253345
  78.1276855   1.5651037  18.3521175  74.3237991  37.5799828  55.0743217
  74.6323700  37.6288071  54.1695404  73.8220673  38.3853912  55.2000580
  54.3679161  32.6380959  15.4813166  55.1081123  33.2018547  15.2565660
  54.6736984  32.1293106  16.2322273  39.3292999  65.7698593  79.0549316
  39.9798508  65.0832977  78.9077988  39.8416824  66.5306320  79.3286514
  20.5715694  26.8051796  16.5639496  20.1058960  27.5719414  16.8978004
  21.1868191  27.1593914  15.9218941  28.1809978  42.4275475  24.5721645
  28.1635914  41.5790215  24.1295185  27.7870789  43.0333099  23.9443817
  70.5835800   8.2681913  33.3552475  71.4556274   7.9211435  33.5431595
  69.9882584   7.5512042  33.5737724   4.7146602  31.2085457  26.2901764
   5.6005249  31.4999676  26.5059319   4.6376486  30.3491440  26.7045784
  12.1356525   7.3130803  68.9870224  12.6278620   6.8318291  68.3219147
  11.6732721   6.6352711  69.4799805  64.4930191  42.9780731   1.2864233
  65.3257904  42.5563316   1.0746145  64.7077408  43.9078369   1.3617325
  57.9895897   4.4792643  88.4498444  58.4602318   3.8006337  87.9659119
  58.0392914   4.1997056  89.3639603  13.2599745  38.1522408  34.9222374
  13.9785900  37.7138214  34.4665909  12.5313177  37.5336037  34.8714485
  54.6408463  65.7750626  57.4046669  54.2848816  65.2717819  58.1369476
  53.8703842  66.0640564  56.9156837  36.7507248  40.4967766  11.9662018
  35.8341522  40.5138283  12.2415743  37.2292213  40.2100945  12.7440758
  31.5764103  54.1564674  48.3149033  31.2719021  54.5729942  49.1211357
  32.4297333  54.5560684  48.1463928  21.2489491  68.4978256  10.7328415
  20.9960785  69.3905792  10.4977264  22.2053242  68.5205002  10.7654533
  84.9759064  54.3764877  65.9025803  84.3231735  53.6820869  65.9918823
  84.5893707  54.9895821  65.2773361  79.2919540   0.4560455   1.6929190
  79.6921234   1.1451426   2.2232440  78.5771637   0.1215553   2.2346051
  49.9758415  43.7231026  65.8139343  50.5764656  43.6822701  66.5581207
  49.2457848  44.2586555  66.1244736  80.4561005  18.7935982  33.3553009
  80.7479553  18.8956356  34.2611923  81.1062698  19.2700787  32.8390846
  21.9173603  36.3187294  15.5164566  21.8563328  36.3267899  16.4716759
  21.2132149  36.8987083  15.2265663  53.8752632  63.5201683  13.2163649
  53.2333984  63.1064644  13.7935028  54.5054054  62.8262177  13.0225039
   1.4488345  52.3853149   9.7925034   2.3445692  52.7034569   9.6799088
   1.4633560  51.4973831   9.4352932  79.6125336  10.8927345  51.8215065
  79.0901184  11.6706486  51.6261406  79.5306320  10.7808857  52.7686157
  37.2145157  69.8925323  46.2373009  36.3400841  69.8409119  46.6232185
  37.4651299  70.8112717  46.3339729  46.7486115  38.1284523  19.1481342
  46.0746040  37.7981567  19.7421474  47.4920769  37.5398064  19.2784595
  61.5176086  15.7337265  25.2480049  60.8806877  15.0573683  25.4784412
  61.2587280  16.0177994  24.3713551  60.6347198   1.8359901  66.1314774
  60.3770027   0.9285163  66.2936707  60.8958664   2.1679847  66.9904404
  72.3455887  52.2297134   2.7046001  73.0310364  52.8609962   2.4858067
  71.8899765  52.0744934   1.8772193  59.7546501  47.3561668  20.1382942
  59.0879631  46.8123665  19.7187157  60.5862808  46.9947548  19.8316956
  80.2175217   8.1148405  54.1490822  79.5773392   8.6416264  54.6275177
  79.9188690   7.2126660  54.2636261  83.2701797  56.1948318  64.4926147
  82.5673676  55.6130638  64.7821579  83.0340576  57.0513802  64.8487091
  73.9241791  13.0468378  18.4738922  74.4226074  12.2340231  18.5583458
  73.0083694  12.7718620  18.5177155  19.6524391  69.7826157  31.4163399
  19.3060112  69.8759308  30.5289211  20.3816013  69.1691742  31.3255348
  15.1961269   0.0762358  71.4195786  16.0277061   0.5092958  71.2267914
  14.9979925   0.3287525  72.3213577  21.0218449   4.8340116  52.5526237
  20.2196693   5.2973852  52.7935219  21.6627769   5.5283098  52.3996964
  27.6501446  57.8675461  66.6672668  28.5717316  57.6712265  66.4988403
  27.4007206  57.2640457  67.3671265  28.7808495  57.0007401  19.4142685
  29.1701832  56.8054581  18.5619106  28.2255192  57.7638817  19.2547398
  69.1568985  70.7003479  70.6580734  69.0531693  71.6515350  70.6313553
  68.8745193  70.4042206  69.7927399  33.0209160  61.4407806  75.6928406
  33.2156105  62.3482780  75.4587936  33.4235611  60.9221382  74.9963303
  75.2645111  15.2311611   5.4996047  75.0322037  14.8001127   4.6771317
  74.8320923  16.0838795   5.4535856  78.8787766  10.0666304  20.2760162
  79.0640259  10.4633217  19.4248123  78.3592987  10.7241154  20.7387104
  23.6791134  19.4993286   4.9914446  23.8652401  19.1057777   5.8439155
  23.7829361  20.4401169   5.1341639  59.6186829  13.0469236   1.3031771
  60.2164841  12.3128204   1.4444439  59.9161377  13.7193813   1.9160001
  36.5571518   2.9067585  81.2330246  36.9840584   3.0332618  82.0803604
  36.0537109   2.0992689  81.3366547  56.5229759   6.2356873  69.4462433
  56.9191246   5.7942820  70.1975479  57.0376587   5.9393110  68.6955872
  35.7661972  53.7712288  22.5902424  35.7923355  52.8450432  22.8305111
  34.9829826  54.1092911  23.0244331  46.1855164  48.2000275  80.0097504
  45.8082733  49.0778198  80.0680695  47.0180626  48.2655716  80.4775085
  31.1722851   3.5934868  43.8075905  31.8378067   3.9640369  43.2279320
  30.3396721   3.8443968  43.4075508  80.9786606  11.0756025  40.5158806
  80.3359451  10.3681078  40.4648972  81.3221054  11.0233698  41.4078140
  29.7436371   2.4943025  61.4397392  29.7563324   1.5491064  61.2891579
  30.4916344   2.8260303  60.9430618  46.0328865  45.1835861   7.1970549
  45.6041985  44.3291473   7.2460008  46.1443253  45.4482994   8.1101484
  79.7467346  12.0362043  43.3509216  79.7661209  12.9875994  43.4543724
  80.6683578  11.7781191  43.3356171  71.0934601  35.4297943  85.7748108
  71.5519867  35.9288597  85.0988541  70.5883636  36.0855675  86.2555084
  34.3647537  53.0879860   2.4370580  33.4453392  53.1112480   2.1717825
  34.7068825  52.2845459   2.0450525   0.5454891  63.0171623  12.9898310
   1.3322229  63.5016899  13.2398586   0.5031716  63.1041222  12.0375290
   7.3315101  43.8473091  67.9648438   7.6532207  44.1366425  67.1110153
   7.0191379  42.9552803  67.8133774  63.8699722  16.6026592  29.9569263
  63.7014580  16.0978680  29.1613007  64.2094879  17.4402828  29.6417294
  65.0919037  52.7373695   1.8853450  65.7855301  52.9516487   2.5092022
  64.3018417  52.6655350   2.4209490  51.5467644   1.3775802  69.5458984
  51.6660042   0.9757403  68.6853561  50.6738434   1.7685561  69.5087891
  76.7851486  11.0275402  86.5876999  76.3561249  11.8762493  86.4787750
  77.6221848  11.1221905  86.1331024  44.5882149  44.3623962  67.8814468
  44.2519875  43.9195862  67.1022797  44.2784004  43.8283272  68.6128922
  14.7661877  33.9154129  20.4083557  14.0489016  33.8333702  21.0368481
  15.4661427  34.3465271  20.8987007  80.6483994  17.0174255  75.4368973
  80.7010193  17.4474964  74.5833740  80.8347473  16.0967140  75.2530594
  83.2288055   1.6157846  48.6824188  83.2406693   2.2368488  49.4106827
  83.1697769   2.1646926  47.9004669  69.9469376  43.7097244  61.9544983
  70.8623276  43.4835014  61.7898102  69.8108368  44.5244827  61.4708939
  85.2508698  68.5581970  81.4897995  84.9063721  69.4505920  81.4554443
  84.7163849  68.0708313  80.8628693  69.8126221  55.6133614  11.4918537
  69.0230713  55.1935806  11.1503515  69.8286285  55.3752861  12.4188347
  70.0291595  39.4171219  20.2883797  69.4369125  39.0398178  19.6379032
  70.8902969  39.3922958  19.8711796  14.3437023  37.9650574   4.6110640
  14.4899387  37.4732094   5.4191070  13.8556623  38.7406197   4.8877411
  46.8007431  71.8973770  59.9340706  46.8153191  71.5294189  60.8176003
  47.1709557  71.2088318  59.3817291  54.1103287  30.6531963  41.7440529
  53.4232025  31.0196075  41.1874313  54.0636444  31.1658649  42.5510368
   1.9142026  12.7886133  23.6021557   2.0049920  12.3799992  24.4629822
   0.9806016  12.9864893  23.5282211  17.2281628  31.9511166  84.2222900
  18.1566353  32.1250114  84.3769913  16.7983456  32.7928581  84.3738098
  55.6717300   0.4183136  67.1479263  54.9060249   0.2740019  67.7039032
  55.7912025   1.3680272  67.1466293  62.1499519  42.3983078  17.1970882
  62.6587219  43.1883430  17.3793888  61.2389946  42.6675720  17.3148994
  12.3567305   2.5876236   5.2675271  12.0386047   2.1310828   4.4886832
  12.3783112   3.5099516   5.0124245  59.4684067  29.3837643  79.4046249
  60.3514900  29.2880268  79.0479279  59.3030510  30.3263683  79.3849945
  56.7761917  64.7256699  16.2975292  55.9901581  65.2451706  16.1286926
  56.5830650  64.2558136  17.1088028   7.0034957  51.4532394  61.4352989
   6.9610238  52.3894081  61.2403221   7.8901973  51.3181992  61.7695999
   3.0653436  37.4723091  48.6488380   3.7346067  37.1089058  48.0689621
   2.2402282  37.3171921  48.1891022  31.8432655  25.8053360  87.7448959
  32.1693916  26.4896088  88.3293991  30.9002075  25.9617271  87.6957626
  25.4181461  55.0212746  29.0071697  24.9545650  55.3262062  29.7871342
  26.0330887  54.3651886  29.3352318  60.1861267  50.9206085  32.9104042
  60.0041580  51.3479424  33.7473679  61.0808220  50.5920601  32.9987602
  18.3055630   4.0342312  32.0466270  18.1834221   3.7414446  32.9497299
  18.5351486   4.9602604  32.1240387  25.1335716   3.8263409  27.7824364
  24.8139324   3.0316305  27.3552380  26.0395641   3.6246636  28.0163937
   9.0210886  38.0098457  69.2088699   8.0795565  38.0158424  69.0364914
   9.4213009  37.8840294  68.3485031  65.8974228  42.5362167  75.8032761
  65.4668884  43.3485680  76.0696640  66.8166046  42.6642838  76.0376892
  20.7886658  71.4829025  87.4664078  20.3392487  72.3278351  87.4849625
  20.1096363  70.8558578  87.2174759  45.7050972  35.0551758  82.5140915
  45.2868576  35.6022415  83.1789398  46.3028793  35.6474762  82.0579453
  60.3788528  15.5762348  33.3900375  60.4767723  16.1914062  34.1168175
  60.4743538  16.1156864  32.6051140  52.4352150  27.2519722  22.4247837
  51.6971474  26.7267990  22.1154575  53.0072517  26.6243916  22.8665352
  28.4553947  54.5161781   4.1887412  28.5407696  55.4684219   4.2353611
  29.3393421  54.2057762   3.9924743  79.4019547  64.2961121  28.3990917
  79.4610443  64.5764313  27.4857693  80.2936172  64.3859940  28.7353840
  65.4848557  56.8278160  83.0934906  66.0307007  57.6129112  83.0497513
  65.2032623  56.6812706  82.1904602  78.1795425   9.6023655   1.9859678
  78.5850983  10.4448242   2.1909499  77.8279800   9.2960749   2.8219230
  53.0309563  46.6551666  54.4031372  52.1456490  47.0190964  54.4077034
  53.1304855  46.2782898  53.5289001  79.5382233   0.4896150  57.7657814
  79.8845596   0.0216388  57.0059891  79.9599991   0.0722215  58.5168648
  18.9059849  51.3127289  81.3446350  19.2307796  50.9762192  80.5094681
  18.9466991  52.2645149  81.2514725  15.9779797  41.2822609  85.5166397
  16.5364799  41.0385017  86.2548065  15.5928822  40.4560432  85.2245865
  83.8640747  10.2555237   9.8813791  83.7146683  10.7642097  10.6783400
  84.8162384  10.1774893   9.8220243  18.4760971  23.0990391  20.5734196
  18.3495750  23.1562443  19.6263447  17.6750755  22.6873608  20.8976364
  15.6759434  42.5466537   3.8991501  15.3138628  42.3406868   4.7609539
  15.0707111  43.1915016   3.5329585  80.1928482  55.3265228  83.2301331
  79.4264069  54.9032326  83.6169586  80.1194687  56.2433281  83.4953079
  37.5683403  35.6817131  76.8606720  38.0001831  36.3198814  76.2927933
  36.9061470  35.2739449  76.3025818  15.8318243  62.8382263   1.4231571
  16.7107315  63.2173615   1.4202330  15.6530714  62.6408234   0.5037486
  53.1778526   1.8967769  41.4842834  53.6043434   1.0760109  41.7306252
  53.7325859   2.2566290  40.7921791   5.0818577  39.0891914  83.5426331
   4.4898868  38.4868279  83.9931412   5.2387571  39.7893982  84.1761322
  84.9358902  68.7509460  35.1190681  85.1591492  68.7025375  34.1895294
  84.0328522  68.4368896  35.1651649   1.2330835   8.2730389  74.9078445
   1.4530213   9.1456966  74.5817642   0.7477052   8.4349346  75.7168121
  42.1781807   0.6753123   6.6332631  43.1070633   0.4445838   6.6463542
  41.9867058   0.8457749   5.7110310  63.1938972  36.5208321  36.4863892
  62.7663536  37.3280334  36.2002792  62.5050125  35.8574982  36.4456482
  67.8630371  71.1329346  26.9087582  67.0649185  71.3751068  27.3784256
  68.5330353  71.0735397  27.5897942  66.1898880  35.9895248  19.4894257
  66.4685287  35.1331024  19.8136597  67.0029221  36.4855995  19.3939419
  45.7434120  59.7008514  54.1477890  45.1001472  59.3332253  53.5417404
  45.8629227  59.0214233  54.8113594  30.9687252  58.1576767  86.1711426
  31.8744354  58.2797813  86.4557648  30.4975281  57.9163322  86.9686127
  65.2425156  19.5461388  25.2344208  65.8992920  20.2050648  25.4595814
  64.4851837  19.7679539  25.7761536  74.7868576  45.1428337  18.4280453
  74.9738922  46.0782661  18.5068855  75.5190201  44.7942200  17.9194775
  17.8994617   8.0614424  11.7012310  17.0030460   8.3808594  11.5980682
  18.0385704   8.0398741  12.6480227  19.7134762  48.2274742   1.8194339
  19.7110367  49.1834908   1.7719122  20.6381435  47.9871063   1.7607507
  35.4603462   7.2806020  38.6372414  35.6054649   6.5584249  38.0259857
  34.7674294   7.8019247  38.2318764  65.9419022   8.7420816  52.5868225
  65.9714432   7.8032870  52.4023666  66.8514862   9.0300665  52.5096970
  64.9091949  35.0800629  11.7137003  64.1002274  35.0306816  12.2229776
  64.8737488  35.9378471  11.2904024  63.5812416  47.2592354  14.7036304
  63.4213524  46.3364372  14.5058718  64.2159271  47.5390663  14.0440073
  68.1779861   6.0308075  85.6120758  68.2739258   6.3766885  86.4994278
  68.8593369   6.4745898  85.1070633   5.5382762  64.4657440  68.7980499
   6.4192448  64.8108139  68.9431381   5.0801759  64.6238174  69.6235123
   4.2197213  21.8251877  81.2792282   4.4328933  20.9846516  80.8739014
   4.5433354  21.7472401  82.1766815  39.0313721  47.9807281  72.6279602
  39.9610062  47.7825775  72.7408600  38.8268929  48.5850105  73.3415909
  59.0579987  27.4716625  83.3217010  59.5183334  26.6388779  83.2177963
  58.9006882  27.5425262  84.2632217  47.7405128   0.6388304  88.5045090
  46.9443474   0.7027950  87.9770050  48.4473000   0.8644626  87.8997192
  58.7363701  -0.1281797  55.2098389  59.1504707  -0.1927415  54.3492661
  58.6659698   0.8125901  55.3717880   3.0081897  64.3813934  11.1137285
   3.8739405  63.9925690  10.9891396   3.1762860  65.3205490  11.1909733
  74.6217194  11.5203934  41.0715485  74.7875519  10.6521149  40.7043648
  73.8887558  11.8612413  40.5588913  24.3756294  38.5314178   3.6638198
  24.1859035  39.4643898   3.7627966  23.7479439  38.0967903   4.2411776
  36.1738701  55.4146652  83.8459930  35.6252747  56.1334152  83.5318756
  35.9726295  54.6856575  83.2592392   7.8703623  12.4382610  64.7248230
   7.5987167  12.3923597  65.6415176   8.7821417  12.1469545  64.7303314
  78.3192673   4.2819772  23.6221008  78.3830338   5.0605893  24.1752110
  77.6128998   4.4817600  23.0078030  76.9213791  14.5387154   2.0581784
  76.4391785  15.3655310   2.0485377  77.6960907  14.7069921   1.5217711
   5.1299706  68.2388458  38.9575462   4.3710699  68.3697357  38.3890648
   5.4816709  69.1185913  39.0938759  69.7670593   9.4857912  24.3944283
  70.4304352   9.5277414  25.0831985  69.7076416   8.5558748  24.1754360
  56.8907890  28.4934444  33.2844887  56.9859123  28.9876423  34.0987053
  57.7310257  28.6018372  32.8389664  16.1043453  59.9951210  73.4681702
  16.4683380  60.8595505  73.6592178  15.3602333  60.1705284  72.8921890
  18.9568081  33.3262558   7.4881263  19.8116531  33.0814400   7.1338115
  19.1596527  33.8329659   8.2744656   8.8113842  38.7060013  30.3404484
   8.2737598  37.9405060  30.5434551   9.5100908  38.6882172  30.9944534
  41.1999969  43.8633423  72.9406204  40.8128395  44.2550125  73.7235260
  40.7840652  44.3237686  72.2117615  66.0978622  60.1044693  55.2723465
  66.8083878  59.8440399  54.6862030  65.5117569  59.3478737  55.2891617
  83.3113251  67.1284790  11.0542355  83.8990784  66.4906006  11.4590664
  82.6941452  66.5988464  10.5494471  38.3083954  61.7492790  73.1605759
  38.1496696  62.6072922  73.5540924  38.6567688  61.2181168  73.8766327
  13.4259310  43.7072258  48.3124886  13.6538162  44.5149345  48.7728233
  12.7287588  43.9640388  47.7089767  44.1301651  15.4873638   3.9748869
  43.8031082  15.0541096   4.7632756  45.0488167  15.6744833   4.1680155
  56.2360268  59.6950531  86.9062576  55.5059357  60.2816772  86.7086029
  56.4350204  59.2706947  86.0716553  23.7837677  64.5624847  69.0257797
  24.3241405  63.7761078  68.9493179  23.8710766  64.8249207  69.9421463
  60.1975288  48.4128304  30.3774300  60.1188202  47.6705322  30.9766216
  61.0341072  48.2744865  29.9333210  78.4504700  16.5972576  65.1985855
  78.1146545  17.2622852  64.5975876  79.3129959  16.3726387  64.8495560
  74.0363693  63.7752991  10.4086990  74.7338562  64.4040146  10.5943308
  74.4732208  62.9236374  10.4167576   2.1674256  47.7786674  72.2231369
   2.1055372  47.9473495  73.1633224   1.7659451  46.9174805  72.1073685
  66.2424240  10.2429276  30.4727020  65.5805359  10.9306116  30.4004536
  67.0697556  10.7154980  30.5645237  33.6928215  64.2347107  11.5871382
  33.6126595  64.3306961  10.6381426  32.8251228  63.9491692  11.8731356
   3.0024219  41.2062759  68.7658157   2.0739632  41.2684135  68.5414658
   3.4600801  41.4507217  67.9614410  50.4891701  32.7733994  76.1185837
  50.4023514  32.3546944  76.9749603  51.4252625  32.9547310  76.0344238
  83.4912567  33.4297829  75.9376984  84.3806229  33.6224976  76.2345428
  83.4450531  33.8067780  75.0590744  49.9639206  61.8544312  39.4573441
  50.2268143  62.3685036  38.6939011  50.2146416  60.9567070  39.2394829
   3.0606837  53.4733963  49.6809540   2.2796977  52.9323235  49.5646172
   3.1738243  53.9147949  48.8391685  77.7346573  25.6602268   1.0316461
  77.5733337  26.5875378   1.2057188  76.8827286  25.3148613   0.7648717
  83.6637115  25.1538048  39.2040787  83.1862030  25.6619911  39.8597946
  84.4766312  24.9015179  39.6419640  67.6808929  70.0182800  15.2189484
  67.6690216  70.5627594  14.4317818  66.9237976  70.3126984  15.7252598
  55.5019379  34.4486313  74.7387085  56.3354874  33.9790001  74.7091751
  55.5926781  35.0514450  75.4766922  10.7297020  47.1507874  62.6479683
  10.5136538  47.5898666  63.4706268  11.2572241  47.7887115  62.1673431
  57.8103485  27.5607185  49.6867218  58.7303848  27.7974949  49.8037529
  57.5249290  27.2729053  50.5538597  29.0821648  59.7640228  85.4296722
  28.6815338  60.1598701  86.2036514  29.7521019  59.1771545  85.7803955
  51.7393913  15.0940933  48.0754433  50.9210358  15.4027681  48.4643440
  52.4062500  15.2902136  48.7335243  76.7038345  20.5532818  73.7731781
  77.0592804  19.6653461  73.7350159  76.1305313  20.6148148  73.0091324
   1.5976774  23.0596752  50.4286308   2.4814363  22.7657852  50.2076530
   1.6727811  23.3934288  51.3226089  81.4438782  35.4707069   7.6492953
  80.9786911  35.7981796   6.8794951  80.7513580  35.1698189   8.2376070
  76.9461746  17.4309101  73.7505646  77.2081985  17.5976601  74.6559753
  76.0288315  17.1645317  73.8118896  69.3272095  14.3343439  50.5535393
  69.1528320  14.9725132  49.8617554  68.4682770  14.1550665  50.9360695
  80.6625824  56.4323082  36.3009224  80.9068069  55.5210342  36.4626808
  79.7273712  56.3975716  36.0999260  61.8150215  18.9002304  12.7544127
  62.5882416  19.3391094  13.1090221  61.3436089  18.5852528  13.5256386
  17.4962044   6.9909744  79.7752609  16.9211864   7.0367579  79.0113983
  17.8279438   6.0931048  79.7718582  22.5235729  51.2579956  21.2310772
  21.8144035  51.2450447  21.8738384  22.0799255  51.3358994  20.3864822
  50.5380325  54.7575493  42.1368332  51.4100494  55.1286392  42.2713852
  50.5535622  53.9293365  42.6164742  51.6732788  43.3721199  24.4216099
  51.8343315  44.2503319  24.0765953  52.0264397  42.7840347  23.7540302
  67.1613693  71.8252792  33.3884583  66.5155029  71.1191406  33.3670883
  68.0045090  71.3768158  33.4534836  56.0834618  45.4416084  29.2940159
  56.1813698  45.2986488  28.3526287  55.2005424  45.7982101  29.3915710
   2.2805879   7.9024873  66.6546402   2.0445414   8.8297253  66.6273727
   2.0980766   7.6352625  67.5554810  42.2091331  69.0210953  50.0419464
  41.3469658  68.6657867  50.2579536  42.0422058  69.9375381  49.8217468
  29.0880070   3.5647399  63.9527054  29.2282047   3.1760972  63.0892639
  29.7474785   3.1526103  64.5108032  59.7904549  26.7568245  46.5969772
  59.9555664  25.8915539  46.2224388  58.8382645  26.8512096  46.5712776
  52.1813698  69.6847610  62.2597008  52.8325386  70.3562698  62.4628754
  52.2764053  69.0392838  62.9600983   6.2930040  60.4784698  81.8176727
   6.8091264  60.2115517  81.0570145   6.5348992  59.8545723  82.5021210
  31.4117012  10.4542627  13.8692036  31.9471722   9.7360506  14.2063580
  31.7332973  11.2293844  14.3296328  18.2868156  47.0054626  41.7487831
  17.9871407  47.1574593  40.8525009  17.8290253  47.6653595  42.2695503
  69.7914581   6.3583236  62.4706955  70.0792847   7.1200523  61.9675484
  69.0503769   6.6775045  62.9856300  18.9890022   5.7608733   7.6837106
  19.0238972   4.8060770   7.7418380  18.1130791   5.9879780   7.9958224
  40.2894402  33.8211975   0.9538161  39.8923454  33.0155373   0.6229721
  40.2920074  33.7138977   1.9049799  68.8100204  67.2989120  31.8993568
  68.9882965  67.9505615  31.2212696  69.5203857  67.4102325  32.5311966
  74.7891083  19.4654560   6.2037635  75.7188492  19.2572346   6.2957592
  74.3996658  18.6685619   5.8438640   2.8148119  20.9993610  69.8495178
   2.8386574  21.5398216  70.6391754   1.8929414  20.7618847  69.7495575
  19.9841518  34.7312012  81.7716141  20.1045513  35.4870415  82.3464584
  19.5959663  35.0949287  80.9758453  20.1201630  64.7907257  25.5102539
  20.9710121  65.1986465  25.3493576  20.2271061  64.3349609  26.3451614
  60.3340302  48.4948196  82.5411377  61.0987129  48.1527252  82.0780334
  60.6157036  49.3481102  82.8709641  53.3756752  14.0719013  65.9962463
  54.1343307  14.6526070  65.9375000  53.0076752  14.2455196  66.8626556
  49.5425301  31.4247684  83.4997864  48.7174911  31.4688492  83.0164719
  50.1514168  31.9522877  82.9828568  77.1727524  45.8473511  15.5638609
  77.8938904  45.9027939  14.9368725  76.4148026  45.5969543  15.0356092
  26.7208691  21.2337704  23.4717693  27.1056633  21.7093410  24.2079735
  26.0018215  21.7919044  23.1756458  73.0571213  50.9874649  62.4187927
  72.3314819  50.9447670  63.0415688  72.6346436  51.0158348  61.5603447
  55.8039284  54.7726250  62.4999504  55.8465157  53.8213348  62.5972290
  56.6765175  55.0780563  62.7480011  25.0160580  56.2098808  74.2933884
  24.5946560  56.7706337  73.6420746  25.9030266  56.5607224  74.3735657
  17.9440804  70.1357269  67.8497620  17.6010857  70.0784149  66.9579620
  17.2771034  69.7127304  68.3905487  54.7029190  57.6888008  52.5550461
  54.6398811  57.5937042  53.5054207  55.6184959  57.9193726  52.3976135
  73.4169540   2.4251201  18.8895187  73.0018692   1.6012492  19.1448078
  73.6392593   2.8483536  19.7187881  16.0477886  60.4983978   3.0458860
  16.8798027  60.7237740   3.4620490  15.8250494  61.2686958   2.5231464
  49.6231003  53.5342369  17.8780384  48.8037415  53.9538155  18.1404057
  50.2697144  53.8585815  18.5048733  43.7667236  33.4788475  26.6355076
  43.3265343  32.7873154  26.1412983  44.6882553  33.3999977  26.3889370
   3.9124231  25.7415657  81.2319794   3.0408049  26.1358852  81.2640076
   3.9780891  25.2393341  82.0441818  34.3634300  63.0150642  58.9920197
  33.4614449  62.7225189  59.1226807  34.3143120  63.9699745  59.0363235
  75.5485382   5.8953152  42.9038963  76.4775696   6.1254873  42.9163818
  75.5014877   5.0635977  43.3753471  16.0929127  40.5107765  73.1143723
  15.2997637  40.5883598  72.5841522  16.8098297  40.6365776  72.4927292
  68.5821762  27.1859226  42.3406334  68.5811768  28.1410370  42.4037552
  68.6334839  27.0080070  41.4015121  66.1637650  46.3780632  50.3877335
  65.8758392  46.3327789  51.2994804  66.1462936  47.3116455  50.1771317
  75.2974396   6.7258301  15.4762316  76.1737518   6.5521445  15.8199425
  75.2617569   6.2377820  14.6535730  15.8588943  50.4884529  63.3086090
  15.3031425  50.3956566  64.0824051  16.1612988  49.5994682  63.1229095
  82.0434418  55.0688591  59.3630028  82.4833603  54.5707474  60.0519028
  82.1264954  55.9820900  59.6374855  57.5567474  28.2603798  36.8615074
  58.0674858  27.8530464  37.5611191  56.6513443  28.0149574  37.0518951
  73.0362091  56.1853104  68.7053070  72.3738098  55.5393066  68.4600677
  72.6807404  56.6078644  69.4871826  65.1893845   4.4603825  38.2718964
  65.1872940   4.2144589  37.3468323  65.9386902   3.9937599  38.6420860
  62.1442528  62.9593010  54.9264297  62.4467201  63.3566780  55.7430305
  61.2028809  63.1318970  54.9103737   4.7322855  11.5393887  61.3355713
   4.8037348  10.9221058  60.6074982   4.9839773  11.0307512  62.1063957
  36.3063698  36.0452576  83.1907501  37.2445602  36.0101624  83.0041962
  36.2520714  36.0464439  84.1464081   4.1844683  24.8533649  43.5354233
   5.0695891  24.4980087  43.4547157   3.6988716  24.1805973  44.0127182
  79.5058060  68.0561981  41.7418556  79.1261749  67.4308472  42.3591499
  80.0285416  67.5183792  41.1471024  13.8182583  48.0998192  14.6012430
  13.1610975  48.2998657  15.2678404  13.3270206  47.6671448  13.9028797
  83.6097794  29.8498020  60.7991638  84.2667465  29.4286938  61.3535042
  82.7761993  29.6612453  61.2302475  24.2248116   5.4722528  24.8331413
  25.0932941   5.0705810  24.8080654  24.2025928   5.9429655  25.6663074
  42.5321617  24.8168945  82.4913406  41.6244659  24.9605789  82.7590637
  42.9998283  24.6506748  83.3098068  34.9439964  35.9981041   6.8087149
  34.4575005  35.6121445   6.0803008  34.6210365  35.5375404   7.5831900
  35.2376671  53.3560638  57.3547554  36.1053429  53.6465721  57.6357765
  34.7636871  54.1658096  57.1653061  46.0695000  35.0262375   5.5905209
  45.4640617  34.4786491   6.0903435  46.8270416  35.1325340   6.1659055
  16.0597725  64.6473999  13.4432821  15.4320421  64.0115662  13.7866507
  15.7530375  65.4906998  13.7764301  28.6806736  47.9538155  38.9607162
  28.9643555  48.8678894  38.9455833  29.3173637  47.5147438  39.5246964
  48.3877792  38.9692421  79.9350433  47.4554939  39.1454430  79.8084488
  48.7875595  39.1764832  79.0903778  40.3814011   9.1774225  13.7971191
  41.3021851   8.9431944  13.6808243  39.9266586   8.7195787  13.0901384
  26.0403557  62.5562325  67.3065491  26.7201042  62.0901947  66.8197403
  26.5199642  63.1878319  67.8425446  72.3781738  45.0002518  70.1887436
  72.0546951  44.1166840  70.0129547  72.9090118  45.2178230  69.4225082
  84.2473145  70.6552582  67.8605728  85.0886612  70.2026215  67.9196320
  84.4538651  71.5704346  68.0503922  57.0471535  31.2006073  68.1291733
  57.6969376  31.1985531  68.8320312  56.7323952  32.1039886  68.0966187
  40.5939560  63.2066917  43.6522522  40.8187904  63.9734459  43.1252136
  39.7700233  63.4423828  44.0786476  76.0097351  60.2210274  60.0364571
  76.2146378  60.9555321  60.6150322  75.6130447  59.5666275  60.6114578
  12.3574648  35.0197563  25.5051956  12.3251982  34.5183372  24.6904755
  12.3871279  35.9338799  25.2228222  23.5902596  36.6135063   1.4019486
  23.3767776  37.5377617   1.5300245  23.5464878  36.2337418   2.2795002
  27.1248131  24.5362282  84.3196335  26.4647694  23.8484650  84.2327194
  27.8963051  24.0857468  84.6632843  28.2962742   8.9757719  78.0227509
  28.4198990   9.6523657  77.3570404  27.7758160   8.3018341  77.5855255
  63.8320236  36.0130043   3.4783638  63.9870834  35.2116814   3.9784305
  62.9015808  36.1983643   3.6054378  27.5383873   4.0983877  10.8792629
  28.4454174   3.8124990  10.7706633  27.5114956   4.4820166  11.7558117
  28.3044147  13.8878212  38.9190445  28.2365532  12.9673986  38.6651726
  27.7849693  13.9541998  39.7202950   8.2394791  15.4665003  70.7950745
   7.5804038  16.1213722  70.5648727   8.2025766  15.4150152  71.7501755
  81.5881042  44.3001862  56.0720825  80.7858887  44.6197357  55.6590691
  81.3045959  43.5542412  56.6006851  81.4376297  57.4788895  47.6056137
  80.8297424  58.2182655  47.6009331  81.5806808  57.2805672  46.6801720
  37.9412308  16.0721684  86.7836304  37.3259544  16.1552944  86.0550995
  38.6802979  15.5855656  86.4186249  33.0493927   6.4079280  40.0004120
  33.9986916   6.4911532  39.9102020  32.6937904   7.0834589  39.4229736
   7.1008997  58.7041092  47.6207657   6.2500405  58.3402596  47.8654747
   7.4045224  58.1438255  46.9065323  86.8198318  51.4013939  60.4316673
  85.9382477  51.2423401  60.0944061  87.3738480  50.7835274  59.9546585
  51.9937935  54.4037361  61.9335403  51.6685753  53.5475540  62.2117844
  52.4206963  54.2362976  61.0933342  38.2218781  22.2133102  14.9763784
  38.5175705  22.4635925  14.1010742  38.4028130  22.9808826  15.5188990
  11.3518543  50.6471519  14.8944712  11.7324696  50.4773178  14.0327749
  11.6366024  51.5349159  15.1113319  70.8815308  71.0588531  39.0036392
  70.5068970  70.5691299  38.2714844  71.2009964  71.8708649  38.6101685
  66.7392883  61.9846077  21.4130287  66.7528687  62.5563011  22.1806297
  66.7607727  62.5843353  20.6673107  29.1448994  23.3720036  85.7805328
  30.0377388  23.7155247  85.7479172  28.8912525  23.4511833  86.7001114
  19.3542137  15.3369303   4.9983811  20.0811005  15.9519463   5.0964761
  19.1178074  15.1005096   5.8952923  86.8080978  67.6305008  64.3053436
  86.7705002  67.4256287  63.3710823  86.6975555  66.7851562  64.7405548
  12.5532427  70.7591934  87.4507675  13.1244440  71.1793518  88.0937500
  13.1523542  70.4033279  86.7945251  76.7773666  10.4438953  55.6745987
  76.7583771  10.2189274  54.7444077  77.0388641  11.3644981  55.6930771
   9.1646557  28.9008579  34.4583740   9.6008177  28.0524273  34.3798866
   9.4115953  29.3716602  33.6623878  49.8672638  39.1746216  74.4846268
  49.1532936  38.5525627  74.3449097  50.5151939  38.9494629  73.8170013
  82.2950897   4.5544276  75.6171951  82.1713562   3.7605703  75.0969009
  81.4485092   4.9995694  75.5799713  50.9412117   9.1111650  12.8365440
  51.8567352   8.8435354  12.9166565  50.6801300   8.8137875  11.9649734
  68.3547211  18.5228539  31.6404228  68.5232849  19.1196060  32.3696022
  69.1030121  18.6419926  31.0555286  51.3608017  62.4392891   0.8389305
  51.0302887  62.0729446   0.0186955  52.2819786  62.1802750   0.8629349
  79.3911362  22.3629818  73.9160461  79.6416931  21.4391785  73.9093552
  78.4512558  22.3575497  73.7348709  76.7675095  50.4667244   6.6858354
  75.9944382  50.9374313   6.3743477  76.4345093  49.8848953   7.3690777
  76.8418350   8.6199284  74.6993866  75.9270630   8.9016876  74.7055969
  76.8167648   7.7327766  74.3408279   4.8888736  16.5109024  11.8582449
   5.3030658  16.0050602  12.5573874   4.5553961  17.2946758  12.2949657
  13.0116415   1.1098702   2.8999248  12.9067707   2.0241396   2.6365900
  13.5413637   0.7196294   2.2046990  28.5666237  42.8005257  32.9800911
  29.1733265  43.4858856  33.2601318  28.6188831  42.8102684  32.0243683
   3.7274339  63.7615356  26.0453434   2.9167104  63.9479103  26.5188656
   4.2782912  64.5284119  26.2024746  47.9289474  54.6549530   6.9034853
  47.5444031  53.7814407   6.9764957  47.3896828  55.2025032   7.4741111
  45.8400841  52.0009270  63.6807823  46.2180367  52.7243500  63.1807365
  45.7384148  52.3493614  64.5664978  29.1838627  61.9450111   5.6101356
  28.4462261  61.5915031   6.1072826  29.9353333  61.4243469   5.8937407
  11.0654955  29.0375118  29.6143837  10.8065786  29.3625603  30.4766693
  11.9919252  29.2665901  29.5403309  51.0619164  34.2081184  54.4476471
  51.3659096  34.5178909  53.5945015  50.1519394  34.5006981  54.4983635
  28.3482361  45.0570145  44.1882858  28.9688187  45.6979408  44.5351677
  27.4943848  45.3577271  44.4993172  86.9834518  67.8917999  43.7196503
  86.9234695  67.3062286  44.4744644  86.0843124  67.9620056  43.3989410
  25.5002098  68.2360153  48.8639336  25.9482346  69.0378113  48.5944290
  26.1933746  67.5773239  48.9072571   9.1898451  29.6089878  82.8284302
  10.1074467  29.4901371  83.0736084   9.2215109  30.1377907  82.0311813
   4.6888971  41.6961823  55.9869347   5.2029920  41.9038010  56.7672119
   3.7896197  41.9207993  56.2258492  58.9560356   2.6495318   1.9235634
  58.9547005   1.7135441   1.7231711  58.4292831   2.7248733   2.7192307
   1.7558769  57.1764641  63.8799171   2.3898106  57.8715820  64.0564651
   2.1617646  56.6517448  63.1898727  52.9638977  48.0076065  58.8215714
  53.1465111  48.3100662  57.9319649  53.1133385  48.7767220  59.3714485
  22.2125797  30.5618076   8.0392056  22.5937786  30.9512768   8.8261194
  21.6776714  31.2599525   7.6614518   0.7045997  42.9503212  74.4689865
   0.8611931  42.1034241  74.0512772   0.0507737  42.7673454  75.1437149
  48.9009247   4.2259912  53.1533508  49.2976952   4.7355494  52.4468422
  48.2501030   3.6767988  52.7162590  59.1115456  67.4567642  56.2918358
  58.4958763  66.8305588  56.6726952  58.5856743  67.9636002  55.6731262
  37.2307205  48.4050751  34.1362419  37.9523964  48.2193947  33.5354614
  36.5749512  47.7369843  33.9366035  38.9471741  51.6507492   1.8997095
  38.6388206  52.4737282   2.2789969  39.5724220  51.3113136   2.5400836
   5.1479287  50.1991081  34.5301781   4.9546976  50.9231720  33.9346695
   5.6775990  50.5936546  35.2230072  25.9588242  47.4557724  48.8869667
  26.4709606  47.9800148  49.5026932  25.8675327  48.0143166  48.1150055
  57.3504829  36.0985603  10.3524504  58.3048630  36.1374474  10.2902184
  57.1715240  35.2528000  10.7634211  84.4751053  70.5768738  60.4631996
  84.6104813  70.2672501  59.5676346  85.3190002  70.4405518  60.8938904
  37.6970787  15.4013729  25.8231373  38.5457458  15.5849342  25.4202709
  37.7639427  15.7733660  26.7025585   7.8029451  45.1135063  83.5585785
   8.4003019  44.3783073  83.6959763   7.7975836  45.5774574  84.3958054
  46.6985092  49.7177315  40.1298409  47.0520439  49.9452858  40.9897614
  45.7511215  49.8134689  40.2273941  51.4295769  16.1600609  31.2217159
  52.0213509  15.5453081  30.7879944  51.5179253  16.9711704  30.7211876
  80.6467361  44.8017311  42.3225098  80.8013153  44.1198540  41.6687622
  79.9430542  44.4534836  42.8700409  64.4231644  56.4118233   9.4090509
  65.2126617  56.4570389   8.8697262  63.8118668  57.0176353   8.9900751
  20.5970688   3.5953028  70.5509186  20.6156197   4.5507722  70.6053772
  20.5318909   3.3047705  71.4606323  28.5622311  13.9673319  86.4239807
  27.7506599  14.4519873  86.5746307  29.1992435  14.6377516  86.1770325
  64.1420441   6.7500138  69.1280823  63.4485016   6.6338935  68.4786606
  63.9884605   7.6231618  69.4889984  67.7296982  61.7181473  56.6987038
  67.3728943  60.8349648  56.6043205  67.0776062  62.2851753  56.2870140
  40.2937737  65.6324997  64.3170395  40.2011757  65.8230362  63.3835754
  41.1991425  65.3368073  64.4124756  51.9198685  68.8564148  13.8922148
  51.4298477  68.8537292  14.7144718  51.9692993  67.9344025  13.6398478
  14.6772366  45.6109390  68.6260605  15.4313202  45.0268440  68.5459213
  14.1728325  45.4619751  67.8263016   8.9121552  19.8001003  81.4687805
   9.5595779  19.0992737  81.5457077   9.3939009  20.5294418  81.0786285
  69.0799255  41.4860535  60.4972649  69.2695770  42.4001808  60.7085419
  68.9215164  41.4863014  59.5532646  23.8914566  60.6212921  67.5085678
  24.2569695  59.7366447  67.5030899  24.6544838  61.1952934  67.5759659
  43.6219826  18.8607559  19.4480515  43.6821899  19.7960014  19.2533150
  44.5201759  18.5404892  19.3649178  77.6424026  44.8799286  70.7018127
  77.8904495  44.7590828  69.7852478  78.1101379  45.6693115  70.9744492
  57.5550842  63.0704842  78.7803955  57.2080116  62.8836632  77.9081192
  58.4997940  63.1523247  78.6498108  85.6378555  49.3887215  43.4816513
  85.3940811  50.2435837  43.8366432  86.1809769  49.5916862  42.7200356
  56.1365547  38.5658531  46.4327354  56.3858719  39.3298111  46.9527740
  55.4606476  38.8911133  45.8381004  40.9085732  37.4306335  71.7905121
  41.5073471  37.9307022  71.2358627  41.3333740  36.5792236  71.8948212
  16.2627506  47.2056160  49.0043449  16.4922009  47.1982651  48.0750809
  16.9971275  47.6491165  49.4288788  72.6627197  36.7617264  68.1889267
  72.0868988  36.2923203  68.7925110  72.0696335  37.1527023  67.5473480
   9.5469904  65.9949417  24.6704865   9.8825417  65.7943497  25.5442142
   9.6905766  66.9358521  24.5689678  10.8773746  64.4404221  65.3477936
  11.2959433  63.6644287  64.9751511  10.0526762  64.5211258  64.8686371
   2.1277211  43.7570496   2.5634711   1.9299971  43.2247200   1.7929128
   1.7895344  43.2474747   3.2998095  53.0115776  52.0769768  83.3921280
  53.4935951  51.4856224  83.9702148  53.3337288  52.9492607  83.6192245
  84.0193710   7.4211807  68.0277710  83.2480316   7.8840313  68.3549347
  83.9239883   7.4399791  67.0755234  61.3600578  44.7690773  81.1209412
  61.3793945  44.5204964  80.1967850  60.4763489  45.1100883  81.2587967
  45.8995056  34.0477943   0.8065148  46.3742104  34.2019196   1.6232963
  46.1938210  34.7470207   0.2228285   6.5235362  44.3519211  31.9717484
   6.1094580  45.1164284  32.3721199   6.2668090  44.3953743  31.0506420
   1.1896276  65.2208710  75.1363907   0.3087612  65.5830917  75.0409851
   1.1231631  64.6222534  75.8803482  67.9004059  49.5611000  35.0589714
  67.6372986  48.8844109  35.6827469  68.8213272  49.7273407  35.2602158
  66.6668472   3.6360569  21.7149925  65.8155594   4.0625777  21.8130894
  66.4997482   2.7169888  21.9238510  24.0407467  63.5850296  65.6095276
  23.1112061  63.4062157  65.7516937  24.4821568  63.1547318  66.3418121
   1.0143437  17.4336586  16.4349995   1.2101600  17.6273003  15.5182714
   1.8518056  17.5394764  16.8863220  46.8677673  46.2506371  75.3235855
  47.5293083  45.7683792  75.8195877  46.2978935  45.5720482  74.9616547
   4.7610073  10.6185083   2.3842776   4.3397813   9.8512220   1.9968861
   5.6957393  10.4822922   2.2295094  85.0968857  53.0650826   7.9497676
  85.8889999  53.6016121   7.9801326  85.3958664  52.2145844   7.6280584
  73.7831726  58.1484795  35.4679756  74.0378799  57.2582932  35.2252312
  74.5573425  58.6789284  35.2794952  61.1814308  70.7658005  81.6694946
  61.4578400  71.6101990  82.0256042  61.1132736  70.9143524  80.7263565
   8.7980471  20.6310139  17.3898697   9.7216778  20.4573765  17.5714951
   8.6615763  20.2977524  16.5029964  15.2160301  63.7597847  74.6761703
  15.6731281  63.5117111  73.8725815  15.4979868  63.1118622  75.3218613
  63.3724251  18.6792259  88.2820511  63.8885880  18.9604073  87.5265732
  62.5477867  18.3700829  87.9070435  39.5536156  67.7606201  15.4236555
  40.1875267  67.1076660  15.1269560  39.2464752  68.1790085  14.6193848
  69.0281830  47.5559959  64.4976196  69.1146011  47.2803917  65.4102020
  68.1276398  47.3311119  64.2637634  11.3464622   6.0473099  19.5189095
  10.4272528   6.2786598  19.6521893  11.5930252   5.5771437  20.3153896
  37.1402283  64.2058792  36.4356995  36.7267685  63.9744568  37.2673988
  38.0380249  64.4396210  36.6714020  78.1835098  22.1382751  56.0808868
  77.7376633  21.3152695  55.8806076  77.7669830  22.4466457  56.8856506
  74.8873672  62.3853188  56.5076790  74.3442383  61.9665108  57.1753883
  75.7852249  62.2544250  56.8125648  28.4869137  67.1818161  77.4946747
  28.7788734  66.3260269  77.8087006  27.9235516  67.5139847  78.1936188
  35.1375160  40.9010468  30.6709499  35.3637314  40.1884079  30.0732841
  35.7693214  40.8237495  31.3858471  67.4934769  65.0146637  32.1595001
  67.9647980  65.7661057  31.7997437  66.5695572  65.2220535  32.0195160
  58.0452614  70.0467377  36.2070808  57.1368179  70.2738571  36.0086327
  58.1190186  70.1602859  37.1546555  16.0679398  68.8523254  42.5907211
  17.0155315  68.7528076  42.6823692  15.9428520  69.1289825  41.6829491
  58.7449532  22.0704803  52.7813568  58.5421143  21.1351604  52.7650757
  59.0950356  22.2548466  51.9097595  86.4255524  39.7163086  71.2752686
  86.0668488  40.4798164  70.8229218  86.3717651  39.9410896  72.2041473
  14.3332062  60.4150658  64.5002823  14.4833279  59.5776215  64.0616684
  14.6297245  60.2712975  65.3989716  75.8000107  71.2314453  13.3999872
  74.9080963  71.4901199  13.1680384  75.9336624  70.3992233  12.9463625
  64.9570923  22.2070026  65.2720642  65.4196167  21.5699406  65.8165436
  64.7274094  21.7224503  64.4791641  73.6869431  47.3156815  39.9808884
  73.3805771  46.6853981  39.3288803  74.4504700  46.8970718  40.3784065
  56.1214752  66.0228119  82.1881485  56.2832146  66.1977768  83.1152191
  56.6737823  66.6530457  81.7255554  55.3280907  38.9924316  71.5730667
  55.1348610  38.0789337  71.3623199  56.1227150  38.9525452  72.1052399
  27.4545250  57.7698021  48.0520782  27.1974926  56.8520012  47.9636955
  28.0649586  57.7776451  48.7893333  40.1293640   1.4661418  22.0918350
  40.7583656   1.3692746  21.3768463  40.1140366   2.4061770  22.2716408
  81.7125168  65.2468109  30.0051327  80.8849869  65.6560669  30.2579975
  82.2092438  65.1868362  30.8211555  73.3734512  44.3148727  84.0075150
  74.1705780  44.1461906  83.5051575  72.9183197  44.9963493  83.5128708
  11.1916161  68.4930191  48.9513741  11.6290989  68.4455719  49.8014259
  10.4179783  67.9378433  49.0488396  47.6286278  23.5045929  77.3020706
  48.3941994  23.8123569  76.8168793  47.3782806  24.2477493  77.8509521
  82.0286713  65.3836899  59.8807564  81.0848618  65.2392120  59.9483528
  82.1499405  66.2980499  60.1366348  64.6300812  62.2226105  42.0853500
  63.7105865  62.4861603  42.0491219  64.8321915  62.1863785  43.0202675
  31.0072365  20.8295879  74.2450943  30.3770657  21.1265011  74.9015656
  30.4677410  20.5326195  73.5122986   9.3905964  23.5218201   4.1296754
   9.9099321  23.0309486   4.7665172   9.9762268  23.6377411   3.3814564
  20.3310814  31.0580940  85.1223755  20.2907848  30.7302074  86.0207672
  20.3984070  30.2703972  84.5827179  18.0083847  51.8418388  49.7562561
  18.5148945  51.6263351  48.9731598  18.1349010  51.0917435  50.3372726
  51.4412498  22.7018719  68.0358200  52.2454910  22.7271614  67.5173721
  51.7412796  22.7238541  68.9445190  82.9932938  17.1758652  41.4356537
  82.0669403  17.1758842  41.6767120  83.1998444  16.2545376  41.2784195
  78.8442001  63.8435860  58.2640305  79.1819000  64.7183914  58.4561386
  78.1023483  63.9964180  57.6787682  54.0589485  19.0272713  61.0398254
  53.3635864  18.3843346  60.9007683  53.8136520  19.7688255  60.4865074
   6.6467862  34.0799179  32.2679024   7.5453777  34.0809250  32.5976982
   6.1253700  33.7386894  32.9944839  36.4950981   1.6303306   8.1409302
  36.6373672   2.5625067   8.3053665  37.0860367   1.4218386   7.4173594
  65.5683289  34.8580475  24.6770000  66.0410004  34.5063362  25.4313984
  66.2547150  35.1853638  24.0956459  79.1555405  24.3590794  32.8100700
  79.3214645  24.2461166  31.8741531  79.1364517  25.3076134  32.9371567
  81.8416138  57.8274803  44.6294746  81.7808075  58.7767372  44.7364883
  82.7766342  57.6589966  44.5129051  68.2491684  48.8191376  14.4320803
  69.0129166  48.8521309  13.8560314  68.1786652  49.7051697  14.7873402
  61.5446396   4.3770237  15.9782887  60.5952454   4.2552748  15.9705391
  61.7928162   4.3836522  15.0538454  18.6585751  54.4635658  82.5336761
  19.3698254  54.3867302  81.8977127  18.9046497  55.2106857  83.0791092
  36.0217552  68.9991226  34.3322868  35.8315125  69.4608002  35.1489220
  35.8338356  68.0809402  34.5268555  17.9684105  39.5909195  10.0120306
  17.9137669  39.5819778   9.0564337  18.5540886  40.3212471  10.2116213
  86.7011108  57.5252609  27.1495571  86.1758118  57.7465096  26.3805676
  86.3214951  56.7077751  27.4718037   0.9811580  32.1165390  37.2870293
   1.9077797  32.3448296  37.2129440   0.9794461  31.2537498  37.7015419
  73.3522720  47.9316406  19.8637371  73.4623718  48.7054367  20.4163246
  73.4029617  47.1940155  20.4716587  63.8005295  16.1368961  50.6153603
  62.9077377  16.4704285  50.5264282  64.3490143  16.8104820  50.2132683
  83.6273880  35.2275467  36.5437508  83.6331329  35.4032440  35.6028328
  84.2536621  34.5126915  36.6577415  72.3241501  61.6881256  87.4841156
  71.9954529  62.4452095  87.9688950  72.2006607  60.9497528  88.0805969
  59.9409637  13.6909733  59.8641243  60.4659195  13.7643881  59.0670891
  59.5574837  14.5604076  59.9792786  34.8336449  47.5007172  48.3564491
  34.6063995  46.8666725  49.0365753  35.7292786  47.2733688  48.1066742
  65.6891861   4.9542856   7.8148551  66.2093658   4.2830329   8.2565117
  66.2557068   5.2723408   7.1119127  75.8598328  71.1105576  26.0806160
  75.0393066  70.8319931  25.6739597  76.5010834  71.0813065  25.3705597
  18.7644749  10.1328487  77.0483627  18.7938957   9.4726114  76.3559341
  17.8869247  10.5095034  76.9830246   9.5885382  10.1069031  73.0304642
   9.2457170  10.6903496  73.7074356  10.5088415  10.3553896  72.9436951
  22.5095768   7.2209320  69.2000885  23.2281876   6.9178691  68.6451263
  22.6814709   8.1540899  69.3261871  66.8466949  38.8960876  40.9543648
  66.2244263  38.2270050  41.2395706  66.9546356  38.7385368  40.0164108
  78.3414078  20.7184963  15.9978933  77.8679123  20.0683899  16.5169258
  77.6559525  21.2738380  15.6264477  78.1939087  49.5376511  86.6295547
  78.4603424  48.9069405  87.2984695  78.8332062  49.4251289  85.9260864
  80.5344391  60.7763977  89.2919083  81.1118774  60.5099869  88.5764999
  79.8517609  61.2962761  88.8677521  76.5325546  37.5262718  78.6649323
  76.5401001  38.3330193  78.1498260  77.1249619  37.7031326  79.3956909
  79.0910873  45.4072990  65.1532288  78.9451675  44.5873985  64.6813202
  80.0249405  45.3998489  65.3632202  29.9137363  52.1090393  80.5559235
  30.3960266  51.3040733  80.7447510  29.1348133  51.8161964  80.0828934
  32.2758865  49.3177109  68.6187744  33.0409966  48.7629395  68.4668808
  32.6350899  50.1995316  68.7167282  86.4145584  38.1106491  64.9487152
  86.7026291  39.0206490  64.8769531  87.2236557  37.6001320  64.9175873
  78.7853394  66.4160461  33.2466316  78.1333618  65.7156372  33.2226982
  79.6201401  65.9623260  33.3627663   6.6913323  23.4895725  35.6113548
   6.6351023  23.8406219  36.5000801   5.9149246  23.8324776  35.1688156
  80.4467468   6.6069450  27.6231365  81.0339203   6.2559247  26.9536266
  80.7061157   6.1586180  28.4280968  21.7088680  41.0421028   2.4003303
  22.6512470  41.1554451   2.2766085  21.4031715  41.8957748   2.7069638
  50.7462082  66.7928238  49.0677338  51.0826530  67.4377518  48.4455528
  50.0230713  66.3688049  48.6056633  54.5475121  10.4055548  81.4816284
  53.8441277  10.8062048  80.9707870  55.0626984  11.1460304  81.8017960
  51.7126389  61.3733330  60.3143806  51.3991776  61.0713577  61.1669006
  52.1560898  60.6126022  59.9390526   6.6335807  61.0888443  62.6317520
   5.9534650  61.5072021  63.1596298   7.1193552  60.5465050  63.2531395
  64.5310745   6.8551207  72.9704437  63.6076317   6.7916794  73.2142715
  64.6339798   7.7523961  72.6533585  56.1833725  48.8950081  49.9294701
  55.7250252  48.6289330  49.1323776  57.0532951  49.1580849  49.6290436
  50.2731285  37.3178635  26.2684441  50.9695320  37.3370514  25.6120243
  49.7003479  38.0472031  26.0313511  73.9525070  55.4772682  34.9308167
  73.0487137  55.4217987  35.2411423  73.9773865  54.9068604  34.1625404
   6.7961860  66.2329178  38.4656906   6.2446332  65.6502686  37.9436417
   6.2299795  66.9761963  38.6734848  67.1929169  71.4863052  41.9921494
  66.2646408  71.7118378  42.0528145  67.4990616  71.4859009  42.8990707
  81.1884308  22.6772690  56.5222054  80.2350769  22.6935158  56.4380836
  81.3450623  22.3571491  57.4105873  59.1150513  55.5061226   0.7909595
  58.4357185  54.8376846   0.8800383  59.9356499  55.0134811   0.7786304
  43.0751648  65.4859161  81.0295258  42.3215027  64.9257050  80.8440781
  43.1254845  65.5111465  81.9850693  43.6117935  17.0765247   1.1536890
  43.7990608  16.8972950   2.0751231  42.8676033  17.6782131   1.1731591
  21.2572575  53.5567436  73.7625580  21.2062473  54.2618866  74.4078522
  21.9226246  52.9623909  74.1093445  60.4747658   5.5571337  70.7183151
  59.8452568   5.5516615  71.4393692  60.4755669   6.4626160  70.4079361
  45.1905327  56.2133789  29.1140232  45.6443329  55.5002289  29.5631485
  45.8193779  56.5251236  28.4631786  37.8269272   9.2273827  24.0550003
  38.1661682   9.8682737  23.4301777  37.5765266   9.7469664  24.8189144
  24.6474228   6.6144414  67.7150726  25.5520020   6.6521983  68.0257950
  24.7071514   6.8088446  66.7797318  23.3322754  64.5690765  20.1844635
  23.7613850  63.8331451  19.7479916  23.5160522  65.3214035  19.6219120
  38.9726715  53.6359520  34.9227905  38.2799606  53.0414352  35.2107735
  38.5492439  54.2025528  34.2778854  59.8158875  39.4643211  29.4869213
  59.6577911  40.2410698  30.0234833  60.4778709  39.7414474  28.8535099
  78.8843384  10.5022612  84.7697296  78.6402588   9.6277485  84.4666061
  79.8395309  10.5185318  84.7099915  41.0000839  71.1769638  70.5352707
  40.2377281  71.6440201  70.8771896  41.7152138  71.8105164  70.5938187
   1.4460577  61.7329025  37.7507477   2.0870225  61.4084740  38.3833122
   1.0076801  62.4540710  38.2023849   6.8092499  20.2312584   5.4739599
   7.5842595  20.7173080   5.1922727   6.9237862  19.3587208   5.0974088
  45.7968712  67.7757034  10.4610949  45.9660759  67.4368515   9.5820169
  44.8847733  68.0648880  10.4348612  59.1528168  45.2904358  42.8873634
  58.3508949  44.7778168  42.7854996  58.8759003  46.1971283  42.7552452
  70.1878662  10.8789368  33.7543793  70.2004700   9.9987030  33.3785286
  69.6537552  10.7944918  34.5442047  49.4573097  45.3538780  56.5507393
  49.9170532  44.5193253  56.6423340  48.7697983  45.3228645  57.2160187
   6.7037988  54.3840561  35.9880409   7.3884935  55.0200729  35.7808952
   6.4483423  54.5913620  36.8869286  43.1921997  45.5683823  35.4600220
  43.4756851  46.4307861  35.1564903  43.6263123  45.4575539  36.3058891
  82.4151382  50.5313759  48.7667084  81.9698792  49.8379936  49.2537384
  82.6511993  50.1247826  47.9329300  85.0494843  58.5376434  84.5514526
  84.9162216  58.4617920  83.6066132  84.4492722  59.2320747  84.8229980
  46.5572014  42.0704956  71.7174683  46.9838982  42.7392120  72.2531738
  46.3470306  41.3684578  72.3332596  72.4943085  20.7666798  59.5764694
  72.1259918  20.5126190  60.4226532  73.3822174  21.0604916  59.7802315
  22.7966919  65.5026093  40.9048042  23.6816254  65.2467270  40.6447144
  22.8786297  65.7441788  41.8273888  42.0739861  35.0233269  14.1819763
  42.5786552  34.8499870  14.9766407  42.4401588  34.4252548  13.5304708
  77.5208282  15.0544529  70.2796860  77.5188828  15.4452486  69.4058990
  77.8368835  14.1614914  70.1419907  69.3157120  35.9567451  43.5688896
  69.5620422  36.7842560  43.1556396  70.0774460  35.7163429  44.0963364
  62.2958336  35.3646240  79.4849701  62.0062027  35.1491737  80.3714981
  62.0257835  34.6141396  78.9557495  38.5642090   2.8521762  60.8857307
  37.9040756   2.9717190  60.2029648  38.2352257   2.1234531  61.4120026
  49.3452530   7.7245955  87.5125580  48.5073624   7.7149973  87.0498734
  49.1075134   7.6932135  88.4392395  57.2328720  21.8138523  65.4508820
  56.5075722  22.4369602  65.4945679  57.4487762  21.7625103  64.5197678
  28.4385490   1.1343694  42.6692505  27.8131657   1.0501258  41.9495049
  28.1970768   1.9534461  43.1017265  71.1525192  68.3999786  11.6052380
  70.7045822  67.8699493  12.2645226  71.1217117  67.8688126  10.8095341
  26.2850609  22.4422970  19.3526001  25.8132725  22.0615597  18.6118660
  25.6042519  22.8565903  19.8827801  23.7119083  36.1142235   8.2898512
  23.8385181  35.1803551   8.1222353  23.2232342  36.1458473   9.1123037
  51.7703590  23.7219830  82.9122620  51.7605209  22.9571190  82.3368378
  52.3016815  24.3665390  82.4448471  73.6002655  65.1445236  50.5741959
  74.1095123  64.3365097  50.5107956  73.3548965  65.2011490  51.4976807
  75.9414215  63.8380966  13.3015499  75.7565384  63.1496620  13.9403849
  75.3723907  64.5632858  13.5594864  44.2945175  56.4697304  72.1819839
  45.2086182  56.1899147  72.2305298  44.3399849  57.4211388  72.0871811
  49.3268242  15.8127995  20.7648926  49.5400124  14.9162674  21.0237598
  49.9408646  16.0103264  20.0576649   5.7912259  50.5827179  16.8576965
   5.1208277  50.0460548  16.4348602   6.1619906  50.0146599  17.5330296
  55.4148750   8.8164120  21.7249527  55.6244698   8.5198088  20.8393288
  55.5810432   8.0535002  22.2786522  85.2785645  45.4903336  51.4028702
  85.6863708  45.2174568  52.2247391  84.4828110  45.9496498  51.6712646
  17.0386391  50.3527031  23.5504360  16.7634335  50.0638161  22.6803570
  16.9822140  51.3075714  23.5147362  25.2672272  49.5917969  79.1662903
  25.9642220  49.1099129  78.7210693  25.0684967  49.0649490  79.9403534
  53.2310486  17.5626564  28.9506798  54.1599083  17.3338375  28.9176407
  53.1939850  18.3320847  29.5188694  85.6332626  60.9162140  82.7598419
  86.3403473  60.4714203  82.2924805  86.0139313  61.1461830  83.6074448
   3.2210224  70.3089828  37.3626556   3.7305305  70.0305557  36.6016579
   3.7871704  70.9351730  37.8138695   6.9509373   7.0384965   0.8019852
   7.2317567   7.9274473   1.0190992   6.0001521   7.0542030   0.9114933
  17.4277325  29.8704853  19.2861576  17.6072578  30.7336979  18.9135075
  16.9252033  30.0522404  20.0802994  22.4659233   8.6907644  88.7530289
  22.2161980   8.8835526  89.6567459  21.6478844   8.7533216  88.2599487
  52.1740112   6.9488468  86.2411499  51.6980095   6.2832294  86.7377472
  51.5024643   7.3779483  85.7109375  68.8795853  23.1791439  59.0198135
  69.3689346  23.5186310  58.2704697  69.0994949  23.7723560  59.7381248
  59.0318604  16.7980289   4.6812024  59.3678436  17.2413998   5.4601564
  59.2189293  17.4019051   3.9624751  69.0391235  17.2257481  84.1703262
  69.4866104  17.7531452  83.5086288  69.7449036  16.7804909  84.6392059
  29.2239037  39.4230537  20.2303333  28.3717308  39.0095787  20.0922318
  29.5658684  39.5674248  19.3480358  85.4837723  64.3116531  79.8402176
  84.9162903  64.9832687  79.4619141  85.3143768  63.5305138  79.3135681
   2.6346419  61.4372139  51.4888687   1.9774803  61.2459335  50.8197021
   2.1477308  61.8823547  52.1824074  47.5570297  60.9641075   0.5095810
  48.2263336  60.8547211   1.1850779  47.0506058  61.7245293   0.7951089
   5.9749484  56.3184700  15.3115273   5.7868347  56.4914856  16.2339764
   5.7026558  57.1161346  14.8578529   5.7448502  46.0452843  54.2759399
   6.0115590  46.7282829  53.6606216   6.4862442  45.4402504  54.2983017
  69.7884903  28.0202522  51.0326118  69.0588150  27.8461170  51.6271477
  70.4529648  28.4338570  51.5836487  56.8925018  12.6002979  46.7751999
  57.1016769  13.5203667  46.9362946  56.6913643  12.5605536  45.8402176
  64.8531036  37.5296745  51.7712059  64.0859451  37.5058174  52.3431587
  65.1615372  38.4344101  51.8218002  11.0090551   1.6228393  24.5870247
  11.6799250   2.0822568  25.0921001  11.2687330   1.7480801  23.6742744
  30.9318810  64.5056915  73.8945007  30.9463863  65.3345795  73.4160080
  31.8548584  64.2902756  74.0284576  23.4537659   8.2457190  17.2503681
  22.8800106   7.8588743  16.5890160  23.8205891   7.4952412  17.7177620
  55.5357704  22.4487343  59.9396133  56.2075043  21.9690857  59.4549103
  55.7363281  23.3706703  59.7782326   2.6091375  33.5701103  85.2391510
   2.3672349  33.7459221  86.1484451   3.4245715  33.0725403  85.3001633
   1.6839125   8.3361130  10.7851534   0.8466144   7.8768663  10.8503933
   2.2548227   7.8825340  11.4052820  70.2677917  30.7591381  34.1881218
  70.3941879  30.2485313  34.9878311  69.5942917  30.2820854  33.7033005
  75.5683594  10.8010578  26.6502247  76.0135956  10.9970179  27.4746037
  74.7871094  11.3539782  26.6626339  58.1037903  49.3798409  67.8020172
  57.3301468  49.1692810  67.2791672  58.7220192  48.6748505  67.6096344
  29.4718781  71.2501907  88.1215515  30.3208923  71.4335556  87.7193222
  28.9909344  72.0748901  88.0523224  65.7611771  21.2850418  17.5038662
  65.2249298  21.0086098  18.2470036  65.6481705  22.2348366  17.4671192
  47.5569687  31.7781696  10.1213093  48.3853798  31.3056259  10.0396461
  47.0548935  31.2726746  10.7605457  20.0315685   4.9412117  11.5741453
  19.1277142   4.9149017  11.8881273  19.9533806   4.9579086  10.6202898
   0.9649479  37.0630302  55.1114159   1.0025648  37.8996887  54.6479340
   1.5262738  36.4803925  54.5998688  67.5170212  48.2732162  75.5341568
  66.6241379  48.0854034  75.8234863  67.4088745  48.8804741  74.8021927
  49.5973930  64.6016541  81.4637070  50.1615753  65.2098618  81.9412231
  49.8334961  63.7386436  81.8038406  85.1144180  71.3777542  64.6567993
  85.0902786  72.2573776  65.0335083  85.7642441  70.9102173  65.1815567
  75.0062943  35.6403542  85.9567032  74.2437515  35.8053551  85.4021378
  75.2279587  36.4975815  86.3203735  65.3819885  26.0915031  72.1996613
  65.0793228  25.4864922  71.5224686  66.0178299  26.6512280  71.7539597
  26.9949512  68.2403946  79.4608002  26.6844788  67.6896286  80.1794815
  26.2487488  68.8013763  79.2493439  11.2762337  61.1668701  27.1074562
  11.2583904  60.3288345  26.6452770  11.7240171  61.7623329  26.5065041
  85.8201447  23.2194080  63.1175041  85.1684647  22.5183144  63.1199608
  85.8953629  23.4797115  64.0355530  84.1810532  33.8554039   3.4502616
  83.9932175  34.6238747   3.9891491  85.1328812  33.8606262   3.3491490
  39.2321396  38.5644569  63.6039276  38.9697342  38.9451675  64.4420395
  38.7237206  37.7560959  63.5383987   7.8681979  57.2714081  29.8104115
   8.2944260  56.6086807  30.3538723   8.5124159  57.9761276  29.7426853
  47.8226242  63.0356331  75.2372131  47.7221260  62.1267471  74.9542694
  46.9403839  63.4027596  75.1815414  62.6926956  57.9881210  64.1142807
  61.7891693  58.1250648  64.3990936  63.0453339  58.8710709  64.0034866
  42.4453125  19.7542305   7.6177669  41.7339249  20.3666420   7.4303823
  42.0037041  18.9324818   7.8321185  72.7134552  42.8602486  42.2217674
  72.5885010  42.9364510  41.2758217  72.7051468  41.9178658  42.3893127
  57.2729797  45.8659248  60.1460304  56.4160805  45.4588394  60.2734528
  57.0985909  46.6198311  59.5826073  18.1585026  45.6311531  75.8874283
  18.3559990  45.1001511  75.1158905  17.2898102  45.3388367  76.1633911
  78.2667999   9.1543932  88.4333649  77.4446793   9.3801050  87.9981613
  78.1026154   9.3278732  89.3602829  42.4804611  70.6711044  42.7506828
  42.5809097  71.3506927  43.4172440  41.5360451  70.5239792  42.6990509
  79.3325043  26.5764446   5.2459683  78.3854370  26.5703678   5.1072373
  79.6967621  26.2416039   4.4265580  54.3997040  11.3506365  13.2860117
  53.7776337  11.3316717  14.0132675  55.2091217  10.9960232  13.6538734
  53.5877113   6.5898256  61.8962746  52.8355751   6.0581861  62.1568108
  54.0527420   6.7641673  62.7145538  47.3877182   5.6315722  77.1841278
  46.9162292   4.8110499  77.0403366  46.7679405   6.3128176  76.9233322
  64.8992996   6.7040491  84.4732208  65.4105072   6.4649811  83.7000809
  64.2257385   6.0266500  84.5338516  35.6362610  25.3954945  88.5203018
  35.0940361  25.9632149  87.9726562  35.0089951  24.9049301  89.0514450
  46.2976685  62.4650955  31.1017494  46.3827820  61.7062492  31.6789322
  45.8407631  63.1186676  31.6311970  62.9038696  25.3104515  40.0009079
  62.5688362  24.8607540  39.2251778  62.3026009  26.0437832  40.1310196
  52.6589432  17.3308296  63.7542114  52.2861366  16.4573956  63.8740425
  52.5063896  17.5317459  62.8308525  57.3096237  10.9083118  68.5006180
  56.5887260  10.5642443  69.0280228  57.0167885  11.7798071  68.2342072
  45.2895737   4.6633539  69.8823853  45.8846130   5.3396726  70.2060394
  44.4307823   4.9187331  70.2192688  58.0040588  21.3270035  39.9144897
  58.8676376  21.2043533  39.5202560  57.8403168  22.2675114  39.8447380
  43.8867416   6.6136217  20.1612492  42.9456711   6.6402721  20.3341904
  43.9756050   6.0279140  19.4093971  74.3858032  47.8448982  70.9214706
  73.5319748  48.0952148  70.5685501  74.1847916  47.4162369  71.7533798
  82.2618103  53.9952393  53.9166527  82.8367691  53.9822540  54.6818237
  82.6373520  54.6659203  53.3462257  19.2938614  66.8684540  17.0476398
  18.9048424  67.3190231  17.7972298  18.8503799  66.0205917  17.0212708
  17.3105850  23.3661308   4.7172260  16.9374466  23.7579384   3.9276145
  16.8167801  22.5551586   4.8385172  50.3061905  50.5879326   4.1285567
  49.7511368  49.8114204   4.2004862  50.2228661  50.8580246   3.2140410
   4.2206750  60.3145599  44.0619164   4.9118757  60.9766045  44.0486946
   3.4075854  60.8179893  44.1028900  16.1532993  13.7750015  84.2413483
  15.3286142  14.2396259  84.3836441  16.0193481  13.2939119  83.4247437
  33.0744286  65.9722595  84.0040970  32.4028664  66.4739990  83.5420456
  33.6865425  65.7036896  83.3189545  68.8213959  65.7176056  15.3533936
  69.6282196  65.2758408  15.6181669  69.1179886  66.5105515  14.9067335
  74.9956589  68.2930298  53.8648186  75.8332520  68.1510468  54.3058434
  74.3543472  68.3289108  54.5745125  43.6681328  29.0702381  69.7677002
  44.2723961  29.4539490  70.4032059  43.8134956  28.1267853  69.8383789
  35.5641365  60.4020309  74.2074585  35.0233574  60.5051231  73.4244156
  35.6462555  59.4548874  74.3188324  83.3591843  11.5451841  53.6890602
  82.7336273  11.7354259  54.3881416  82.8342056  11.5548401  52.8887215
  53.0434761  32.9619522  25.8334618  52.8983536  32.0625343  25.5398254
  53.0687408  33.4762154  25.0265369  59.0256348  44.3798981   2.4319589
  59.7991142  44.7130280   2.8869171  58.3720512  44.2667274   3.1220713
  59.2914696  22.0811291  50.1300011  58.3886833  21.9013119  49.8675690
  59.5787621  22.7768078  49.5386238  52.2826805  34.7138100  32.8661308
  52.4917564  34.6739082  31.9328957  52.9122581  35.3385201  33.2261276
  51.3807945  42.4423866  78.4664230  50.9057083  41.8854790  77.8496704
  50.7923241  42.5250206  79.2168274  64.4131241  49.1509399  56.3166542
  64.4047928  48.8257790  55.4164124  64.5610657  48.3710976  56.8516235
  78.2222214  66.7430344  84.2763062  77.6570053  67.4763718  84.5191574
  78.9997559  67.1546021  83.8990936  28.7606201  11.2017803  87.6506577
  28.1511650  11.8387070  87.2776718  29.3466816  11.7236099  88.1987991
  69.3283615  61.8298912  81.8753433  69.9578400  62.4463615  82.2494507
  69.4757080  61.0155945  82.3564301  29.4113007  39.2826653   6.2587204
  30.1276684  38.8059921   5.8393955  29.7888908  39.6145096   7.0732999
  60.2570572   1.0035508  51.8855934  60.9863472   0.8436942  51.2865829
  60.3319054   0.3126417  52.5438309  34.3323250  10.5366831  17.6965389
  34.7133942  10.2963619  16.8519897  34.9208641  11.2075434  18.0426559
  10.9472895  55.3154068  57.7175941  10.6554842  55.1922760  56.8143120
  10.5086975  54.6200714  58.2078743  22.6531467  61.6194038  13.8857737
  23.1656284  62.4175339  13.7569990  22.2516613  61.7290306  14.7477617
  44.1641693  26.4568005  21.5406380  43.4800072  26.8229561  22.1010685
  44.4585190  27.1957264  21.0081177  58.3458557   3.3118765  75.6039505
  57.4471817   3.2858741  75.9324951  58.2795410   3.0031893  74.7003174
  54.4813004  27.8520241  69.6996307  54.5741119  28.0126057  70.6386871
  53.5481796  27.9765701  69.5264130  39.7249298  39.5032082  35.7651443
  40.3375778  39.7745514  35.0815735  38.8614540  39.5909996  35.3614960
  84.1092148  11.5263929  15.5613651  83.9734039  11.2624454  16.4713745
  84.4415283  12.4222136  15.6188612  73.6389694   3.9902065  10.2087021
  73.9778595   3.4599183   9.4874659  74.3310165   4.6282115  10.3826504
   8.3196325  20.9421253   0.6563838   8.3007393  20.6136990  -0.2425110
   8.2373905  20.1582661   1.1995544   5.3578539  69.0868835  47.8926926
   5.4945393  69.8673706  47.3556747   5.6545639  69.3422012  48.7661972
  22.9928169  50.5081406  35.9964485  23.9387722  50.5783920  35.8681297
  22.7763901  49.6230850  35.7030678  39.6091156  58.0128746  75.2429428
  40.0102196  57.3639870  75.8211288  39.2347870  57.4979057  74.5281601
  70.5730820  18.8964672  47.6248894  70.9749756  19.1343937  46.7893639
  70.8951492  19.5540142  48.2414398  51.5319443  43.8321495   4.4312553
  51.4974670  44.7858429   4.3570189  51.8913803  43.6726837   5.3039570
  81.6658783  49.2968674   3.1947267  80.9008865  48.8771858   2.8011756
  81.6841660  50.1723328   2.8081319  28.7216320  70.3148422  25.7776337
  29.1296349  70.1169815  24.9346523  28.7211857  69.4797211  26.2453976
  75.7267609  57.9381981  85.1302719  75.4727325  57.2366714  85.7299042
  75.4625244  57.6221619  84.2662506  54.9903412  61.8976555  47.5874214
  54.5727806  62.7520332  47.6965714  54.2623405  61.2904587  47.4548950
  31.9325333  68.2950897  70.4761505  32.7834778  68.3161469  70.0383301
  31.6135044  69.1959991  70.4230576  13.6725149  30.7153950  23.0916080
  13.6474514  29.7640247  22.9891548  13.2486992  31.0525379  22.3023376
  63.9670181   7.5654578  30.3017368  64.5450287   6.9299717  29.8794880
  64.0387802   8.3513947  29.7600861  84.2150650  67.0429993  37.7025909
  84.3297958  66.1856461  37.2926941  83.6467514  67.5225220  37.0998383
  61.8174248  51.9612961   5.8533659  60.8775749  52.1408310   5.8271685
  62.1438942  52.4986725   6.5750818  50.1900787   9.2147532  52.0266991
  49.7676811  10.0125093  52.3451309  49.5779152   8.5138235  52.2507172
  82.2489548   6.3261628  17.1551895  82.8147202   5.8445878  17.7587013
  81.8046951   6.9706655  17.7060738   8.4174223  45.2587814  54.2543259
   8.9237347  45.9832878  53.8869438   8.9449835  44.4811897  54.0719528
  44.2850876  56.3600464  58.1759949  44.7070389  56.8521042  58.8803101
  43.3532562  56.5572968  58.2709351  84.2580185  64.1567841  54.6562271
  84.7801361  64.7779846  54.1485558  84.4208374  63.3104744  54.2397079
  51.4261169  11.7612886  65.4617920  51.1079865  12.5491743  65.9025421
  52.3749199  11.8791437  65.4157944  57.5900002  65.7841110  49.0850716
  57.6838531  65.3852768  48.2199974  58.1591682  65.2635040  49.6518593
  85.9081192  35.2875671  21.0988312  86.4950180  36.0436554  21.0884266
  86.2412567  34.7162323  20.4068584  17.4086113  59.9257317  83.3310776
  18.2386475  60.3491364  83.1119843  17.5210266  59.0179520  83.0490646
  35.8685951  62.7742004  21.5964928  36.1408234  63.5593758  22.0714912
  35.6845856  62.1315498  22.2815990  63.5667648  21.3017731  42.3945580
  63.7039223  21.0103722  43.2959480  62.6250267  21.4626350  42.3355179
  48.9281082  19.5054359  60.7365990  49.5869980  19.8337631  61.3484001
  49.0786362  18.5606136  60.7068024  24.5639954  51.5803719  83.2599182
  25.1316814  51.4815598  82.4955826  23.6936111  51.3365517  82.9449310
  43.5970421  27.9235191  29.5291176  43.2994995  27.2169285  28.9560318
  44.4870148  27.6725674  29.7765102  72.8212357  32.2771645  70.0903168
  73.4640579  32.8767662  69.7115097  72.0694809  32.8320541  70.2981491
  57.7718544  65.4335861  46.2670097  57.8046646  66.2690125  45.8009529
  57.2445908  64.8661499  45.7046509  70.6249008  15.3827457  21.3172092
  71.1020737  15.0658712  20.5503139  69.7789383  14.9369726  21.2739773
  35.8458099  43.7595520  57.1550140  36.2176895  43.6842918  56.2762222
  35.4366188  42.9092445  57.3155518  31.2238579  60.5594368  62.7724152
  30.3405933  60.2463989  62.9675598  31.4685936  61.0787468  63.5383492
  75.3337631  11.3140593  69.1604538  74.7253265  11.7992077  69.7178268
  74.9509430  10.4393749  69.0925751  65.2188492  34.4247284  50.7423363
  64.9884872  35.1807404  50.2023239  65.8801346  34.7567139  51.3495598
  49.4448433  42.9781418  80.1734390  48.9799576  43.8139954  80.2116776
  48.8735161  42.3649406  80.6358261  77.2073212  65.3453827  56.5141068
  77.4366226  65.8966217  55.7659149  76.7396317  65.9315262  57.1090393
  14.1167603  59.8055534  38.9413185  13.5824480  60.5432968  38.6472511
  15.0123787  60.1433372  38.9410477  40.7147026  64.5866318  53.8826790
  39.8662720  64.7049561  54.3097610  40.5606270  63.9048843  53.2286797
  51.0791779  52.9112396  49.7550240  51.1886787  52.1330795  49.2084885
  50.4018631  53.4219818  49.3116074  79.9066238  21.4506493  82.3698044
  79.4509277  20.6941509  82.7389755  80.6357193  21.6073532  82.9698868
  47.9198799  63.7441101  15.9935932  47.8919487  64.5160217  16.5589218
  47.8211517  63.0044670  16.5931072  17.5128803  34.6117630  74.6609039
  17.2819252  34.5918961  75.5896149  18.4275379  34.8936386  74.6475372
  12.9477167  65.1037827  74.3457031  12.6702032  65.2480850  75.2503510
  13.8379889  64.7601242  74.4201965  65.8151474  54.1227036  31.7050610
  66.2931366  53.5200729  32.2747993  65.3172073  53.5534744  31.1183224
   8.9127378  33.4340553  12.7836161   8.8535385  33.5485115  13.7321024
   9.3434782  34.2303123  12.4727001   4.4981279  23.7954807  69.9993057
   3.9999681  23.2508602  70.6087799   3.8344991  24.1910305  69.4341812
   2.3512239  65.4780350  82.5865784   3.0128953  65.1000061  83.1658249
   1.6065805  64.8800583  82.6511536  48.3102455  31.2022591  56.1945648
  47.8973198  31.4704552  57.0154190  49.2295685  31.4482479  56.2973557
  12.0012941   2.8485107  78.6922607  11.2053843   2.3535950  78.8867264
  11.8279018   3.7252617  79.0350113  30.4181767  16.0305939  86.4342957
  31.3571949  16.1490040  86.2912750  30.0589008  16.9175491  86.4127502
  32.7911758  33.9205246  77.3777924  32.6636505  34.5716095  78.0677567
  32.4202156  34.3261719  76.5941620  21.5791283  64.9620590  16.9906673
  20.8420238  65.4628983  17.3400497  22.2552776  65.6179428  16.8207664
   1.5076693  66.1478882  68.7345581   1.8567660  66.5343323  69.5376892
   2.1175363  66.4248352  68.0507507  73.6883316  69.3756485  48.9347839
  73.6253281  69.6240692  48.0125313  74.6288071  69.3220367  49.1046829
  31.4530087  29.4086456  73.8293533  31.9805565  28.8943768  74.4404602
  31.5288239  30.3087044  74.1461792  70.7705307  16.2708225  44.8090744
  70.6659775  17.2215195  44.7706680  70.6984253  15.9849548  43.8984070
  85.7276077  42.5308418   2.1634328  86.2437515  42.6405907   2.9620466
  86.3489532  42.6899948   1.4529153  82.1538696   8.0842295  87.5733871
  82.5239182   8.1902046  86.6969986  81.5661697   7.3326674  87.4959488
  18.4796162  18.0664883  33.4136887  18.4713573  19.0205173  33.4911003
  18.0684013  17.7571278  34.2207985  69.3343048  40.2864532  46.9006233
  69.2016296  40.1110764  47.8322220  68.4549637  40.2565002  46.5236626
  50.5371513  49.2568932  32.9189072  50.0217934  48.7027130  32.3327980
  49.9440765  49.4558792  33.6434059  62.2727318  68.0644760  21.3672771
  62.1919212  68.9701080  21.6665115  61.9569359  68.0816574  20.4638348
  62.9640617  30.8240032  26.6045818  63.1877823  30.1032448  26.0157795
  63.1242294  30.4753971  27.4815388  50.2581177  65.2584000  32.5854454
  49.5828857  65.5601349  31.9777908  49.9028282  64.4507217  32.9564819
  35.5410042  37.7410355  81.1228638  35.9672852  37.2285728  80.4359131
  35.6879539  37.2374153  81.9234848  21.1631794  50.5775070  84.9435501
  21.7931309  49.8644905  85.0484238  20.3588066  50.1459999  84.6554260
  34.9020348  26.5342674  85.5355530  34.8428078  26.9626846  84.6816254
  34.0152550  26.5870514  85.8920135  25.6931038  47.1155701  62.0990181
  25.6399117  48.0656700  62.2025261  26.3264866  46.8376465  62.7606964
  64.5450363  31.9179363   0.6239457  65.3417282  32.2456055   1.0412619
  64.4019012  32.5083504  -0.1157539   1.2226880  38.7601929  42.9774551
   0.7793777  38.6153297  43.8133507   1.6049339  39.6341133  43.0573616
  21.2370644   7.3724203  60.8759117  21.7641335   6.6448627  60.5456238
  20.8862877   7.0555601  61.7082520  19.0338516  67.7002563  37.6801720
  19.5149689  68.4025803  38.1177788  19.7099934  67.1841888  37.2411499
   9.4907160  56.1227379   4.4492526   9.1105928  56.9228935   4.8118639
   9.3976526  55.4753036   5.1481090  84.9910965  47.3643265  23.3501759
  84.3581161  46.7888680  22.9207382  85.8442459  47.0367889  23.0654297
  26.1479988  52.9865913  37.5256538  26.9644527  52.7442513  37.0887222
  25.5085392  53.0562744  36.8168030  10.6714525  43.1247330  25.0917263
  10.7107038  44.0787277  25.1594563   9.9302740  42.8757133  25.6438808
  19.3592415  59.1422958  76.1512070  19.3431606  58.7662582  77.0313034
  19.2684231  58.3892708  75.5673065  32.7617149  71.5329208  66.4262314
  32.4434547  71.5050049  65.5239258  33.3385506  70.7726593  66.5003738
  82.5219040  66.0570755  23.9038353  82.7803650  66.9157562  23.5690231
  82.0879974  65.6321945  23.1639462  51.1847534  14.5754452  55.1886520
  50.8467941  14.9053345  56.0212326  52.0930061  14.8765020  55.1626778
  17.8230171  31.9812088  80.9128723  18.1035461  31.9060650  80.0007935
  17.6142921  31.0842628  81.1739349  57.4090462  64.1804352  75.7300720
  56.6655769  63.8120308  75.2528229  58.0336838  64.4261856  75.0476685
  26.9361324  68.0545959  53.6524963  26.7840271  68.8735886  54.1240273
  26.3420887  68.0958176  52.9030647  76.3137894  55.7093506  56.1600342
  77.1935959  55.9146767  55.8437653  75.9942703  55.0362778  55.5591087
  85.8077927  39.8938293  79.4365311  86.2376404  40.2009926  78.6383362
  86.4323120  39.2806549  79.8241196  34.5419044  61.2340584  70.4160995
  34.2974930  62.1572838  70.3516846  35.4973335  61.2346077  70.3579178
  10.5719633   8.4295263   3.0909681  11.3791828   7.9151649   3.0988576
   9.9143763   7.8491325   3.4743133  58.1327629   3.0578923  51.6509514
  58.7520370   2.3282437  51.6324539  58.2174606   3.4216418  52.5322838
  49.0136070  37.5105667  13.3739405  49.3320770  37.6638107  12.4843750
  49.7345695  37.0581284  13.8118305  33.9779892  52.3558083  39.1931267
  34.1137733  53.2179489  39.5862045  34.1281853  51.7394371  39.9098969
   1.0387881  52.6231689   2.5293162   1.4206949  51.8203087   2.8839929
   1.0187297  52.4811020   1.5829304  74.3283997  39.9723816  75.2963715
  74.9039536  40.0821648  76.0532837  74.9006729  40.1001778  74.5397949
   7.2355695  13.5066576  86.4992142   7.3573685  13.1892729  85.6044159
   8.1197433  13.5383482  86.8645401   0.5451893  53.3199310  13.1943636
   0.0711635  54.0539017  13.5852823   1.3459058  53.7109070  12.8447609
  47.0857582   6.0951061  64.4762344  46.3304825   5.8628006  63.9360275
  47.4419899   5.2545681  64.7640305  53.1181679  53.1244164  33.3808975
  53.3283653  53.8154449  34.0090103  53.8260574  53.1619644  32.7376938
  50.3049812  39.6175919   3.8203917  50.1493912  40.5100327   4.1295385
  50.5477409  39.7217293   2.9003615  81.8948669  26.8157825  63.3027992
  82.1680984  27.1541691  64.1554794  81.3246841  26.0755005  63.5104141
   9.1086216  50.9039574  44.8017998   8.5297337  51.0380707  44.0513763
   8.5371742  50.5547829  45.4857292  70.7019196   4.0091562  75.3738708
  71.2412796   3.5479567  76.0162277  69.9123611   4.2545915  75.8561478
  39.6699028  39.6750069  13.9321804  39.9129181  39.6588173  13.0064831
  40.4666061  39.4130630  14.3935728  52.2066078  16.7733440  60.6963310
  51.2598343  16.8914967  60.6195717  52.3117447  15.8706036  60.9967270
  13.2277679   6.5942497  31.9979820  14.0754185   6.5651245  31.5542793
  12.9712458   5.6761670  32.0848846  13.2729425   3.8715920  31.4572277
  13.7989597   3.4594421  32.1425514  12.4810371   3.3361094  31.4084854
  59.5414352  54.0449753  76.8270111  58.9261093  54.7123985  77.1305771
  59.3946648  53.9957962  75.8824081  56.4772720  34.7473068  32.5492058
  56.0226593  34.6949005  33.3899307  55.8038826  35.0288773  31.9299355
  65.7688217  71.0466843  17.2420998  65.0687714  70.4700089  17.5480537
  65.3408432  71.8921661  17.1071186  59.2627144   3.0146184  20.7664661
  59.3911972   2.0666232  20.7343960  59.0128670   3.2527964  19.8736725
  38.2090263  31.6702881  79.7233047  38.6898117  31.8965683  78.9271469
  38.0483093  32.5103951  80.1529846  76.5745087  26.5754280   4.5883198
  76.0791016  27.0090733   3.8935137  76.4097061  25.6422310   4.4533558
  72.2110138  61.9766426  34.5617676  72.0074921  62.7480431  34.0328522
  71.4589920  61.3972015  34.4395027  63.3882141  41.8956337  52.2229500
  62.5304146  41.5293465  52.4380035  63.1951103  42.7584648  51.8562546
  86.4101562  28.8624573  80.4779205  86.9039841  29.6817245  80.5120239
  85.6635437  29.0562515  79.9111404  32.4460373  70.2642136  28.7466068
  32.3034935  70.3714371  29.6870403  32.8208580  69.3877640  28.6595650
  83.6206589  33.8488350  15.5335903  83.3620682  34.7161598  15.2219677
  84.5737534  33.8371201  15.4457998  21.4308643  38.0258713  71.3444366
  21.7971535  38.7385864  70.8208847  21.1627636  38.4433136  72.1630325
  66.3806839  30.2427673  14.4750280  65.7294846  30.0829277  15.1581230
  65.9028854  30.7177010  13.7950459  45.3364334  45.5505486  81.5116196
  44.9837341  46.2577515  80.9715271  45.8204651  45.9978828  82.2057648
  72.1613159  20.2674942  28.3938484  73.0480194  19.9070187  28.4006386
  72.2538071  21.1382790  28.7803879  83.5523453  36.2079964  13.8873644
  83.3571091  36.8869019  13.2414532  84.0859680  36.6512489  14.5469074
  85.3922958  16.7220898  88.7029190  84.9689255  17.4616814  89.1388016
  86.3292236  16.8999062  88.7852783  61.5695839  38.7102547   2.3864424
  61.9953728  38.6088219   1.5351789  61.6575928  39.6416702   2.5888004
  31.9726505  30.1733170  14.4333344  31.7824936  30.4689617  15.3236532
  32.8759384  29.8591118  14.4730949  66.5355759  51.6113548  39.5654030
  67.0599747  51.9077568  40.3092995  66.4628448  52.3814888  39.0016289
  26.8426781  16.0086327  82.3375778  27.7515602  15.7759256  82.5273514
  26.6747036  16.7796268  82.8794098  12.3929300   6.0774093  59.3275452
  12.1853542   6.1298113  60.2604980  12.0807924   6.9068203  58.9657745
   3.8957214  35.2916489  11.1266546   3.9019442  34.6238480  10.4409170
   3.5868356  36.0837173  10.6868277  76.0324783  67.4812775  68.4543304
  76.3829575  68.0833969  67.7979355  76.0657654  66.6222534  68.0333786
  74.2257385  60.6617775  79.0661011  73.4770966  61.0665283  79.5042267
  74.3921280  61.2229500  78.3087158  85.7433548  44.8383141   4.2807302
  84.8695755  44.9302292   4.6605868  85.7576218  45.4659195   3.5581398
   5.9100437  26.4613285  21.6459484   6.5883899  25.8437538  21.3726730
   6.2889800  26.9158669  22.3983021  47.8715096  12.5199986  46.9377594
  47.0780182  12.1194611  47.2929649  48.3752136  11.7847843  46.5885086
  59.5133858  54.3337173  86.4035492  60.4699707  54.3040810  86.4207306
  59.2417946  53.4527740  86.6612473   3.3769133  16.4142494  61.8082733
   3.9281301  16.4448605  61.0263176   3.3738520  15.4916229  62.0631866
  60.9159164   3.5054400  68.8066406  60.8366470   4.2468295  69.4068832
  61.6831131   3.0255890  69.1186981  86.7531967  64.0245285  82.1640701
  86.3044128  64.3796463  81.3967972  86.0872803  63.5013351  82.6102219
  61.0098381   9.8967686  30.2311058  60.9657669   9.9465179  29.2762146
  60.5918083   9.0631933  30.4470596   9.4596615  58.8563995  66.6421432
   9.6600666  58.8781128  67.5778732  10.1694298  58.3424301  66.2570496
  68.5976257  11.5552816  31.1495895  69.2433777  10.8695908  31.3200817
  68.9334717  12.0145140  30.3798180  12.1509008  51.7656021  10.0228815
  11.9212971  51.0885201   9.3864279  12.5983629  52.4368057   9.5076218
  17.3918629  62.1359863  29.1689510  17.5124054  63.0720711  29.3284721
  17.3435631  62.0596809  28.2160206  58.4635162  12.0381575  49.5101700
  58.7103653  12.8284254  49.0297813  58.0871773  11.4614601  48.8453255
  32.2970810  69.8481064   6.7510943  32.0423241  70.2936325   5.9431129
  31.6840572  69.1166687   6.8248010  79.2920609  57.7595634  11.4564190
  79.5236435  57.0836678  10.8194227  80.1054153  58.2439346  11.5980797
  73.3320160  44.5755272   8.2631798  73.4463959  44.7132378   9.2034912
  73.3295975  43.6240158   8.1590090  43.7868195  29.9620361  27.6415043
  44.6833992  30.1740189  27.9011917  43.6287231  29.0941372  28.0129700
  26.9225140  21.5109024  83.1111908  25.9874229  21.6543331  83.2570114
  26.9733257  20.6366653  82.7247162  19.3333511  62.2115059   6.8693204
  19.1707897  63.1506424   6.9577951  19.9863167  62.0170708   7.5416784
  76.1870270  23.4531155  62.4140282  77.1188354  23.3072338  62.2506943
  76.1606369  23.9227047  63.2477036  40.0864677  34.1197052  25.8451366
  40.0979233  33.2690926  26.2839489  39.4733658  34.6458092  26.3585129
  12.8040619  50.2606087  20.1425819  12.5512037  50.9107895  20.7979870
  13.0121317  49.4766121  20.6508026  19.2284851  71.1125488  25.5303040
  18.3671761  70.8509293  25.8557758  19.1280098  71.1357574  24.5786743
  55.5646935  10.2292376  16.5917149  54.6821823  10.0855551  16.2500019
  56.1368866   9.7669172  15.9792738  19.6843529  20.8822231   2.0853472
  19.9522877  20.9830608   2.9987330  19.4720249  21.7704277   1.7985723
  52.9362869  17.1981297  38.8570404  53.5233917  16.5560513  38.4579430
  53.3010826  18.0461082  38.6038780  12.7550459  54.3238945  17.3492088
  12.2425442  54.8851471  16.7673416  12.1972075  53.5604401  17.4981461
  76.3223038  47.9414024  46.8717995  76.1145935  47.9145927  47.8058052
  76.4746094  48.8681259  46.6868134  54.6527977  34.9072609  83.4397888
  55.0169373  34.3088951  84.0921631  54.1975517  34.3374710  82.8198547
  61.9741135  33.4387474  74.6535797  62.2406921  33.9076767  75.4443207
  61.2889786  33.9861755  74.2699890  80.8617249  12.8502731  73.9920731
  81.3418350  13.6740332  74.0765991  80.7050552  12.5707235  74.8940353
  66.9377823  50.6835709  77.9436035  67.4467697  50.3180885  78.6672058
  66.6415482  49.9193726  77.4491577  56.5412216  35.7218819  25.9043903
  57.2614403  35.9960175  25.3366165  56.9680443  35.4397469  26.7133751
  78.9374466   9.0022545  66.5482941  78.5349579   8.9504013  67.4152069
  78.4275894   9.6681747  66.0869522  23.8766899  13.8938799  36.6418915
  23.2959614  13.1620770  36.4334488  23.7955666  14.4847813  35.8932381
  83.4010544  39.3274574  19.4334641  82.8116608  40.0087395  19.7570362
  83.0725708  39.1225243  18.5580616  66.9818802  15.7948332  52.3643341
  66.7914886  15.6136990  51.4439125  67.0736771  16.7466602  52.4071121
  77.4458160  47.3196526  39.4642906  77.9652557  46.5338554  39.2941666
  76.9532318  47.1137924  40.2587776  25.9560204  27.0166225   5.0812469
  25.2570438  27.1561413   5.7201509  25.9017944  27.7735138   4.4978042
  31.7389469  31.8435688  74.7991486  31.6807766  32.7698059  74.5647736
  31.3654881  31.7952747  75.6791687   1.5277063   8.8981705   7.5578985
   0.9070566   9.5960665   7.3482146   2.0550625   8.8004475   6.7650695
  34.9779320   7.3531871  13.2316484  35.5345535   6.8988190  12.5992270
  35.0034065   8.2700415  12.9578581  81.9796982  69.7822876   5.4911418
  81.1566620  70.2208633   5.2755084  82.6069946  70.4953766   5.6104002
   4.4215817  50.7376862   6.2756319   4.5154505  50.4924126   5.3551641
   3.4838345  50.6579933   6.4503064  81.7427826   2.0262220  74.2588806
  81.7883987   1.0745970  74.3514023  80.8271713   2.2021782  74.0422440
  33.3095131  28.8956547  65.0507736  34.2281189  29.1608486  65.0962524
  32.9401894  29.4309025  64.3483963  41.0173759  41.4166489  56.2168961
  40.0781670  41.4023094  56.4010658  41.3544083  40.6210976  56.6288910
   6.6293292  61.3177414  74.7011642   6.4108071  61.2509537  75.6306839
   6.2510457  62.1527214  74.4255829  58.2937012  14.7936888  83.4225922
  58.1693726  14.2242174  84.1818542  59.2098541  15.0660057  83.4749069
  23.9045067  64.0074997  11.3082018  24.2762623  64.5537262  12.0007811
  24.3235703  64.3195038  10.5061607  29.9840107  57.4300766  88.5398102
  29.4054852  56.7521896  88.8891068  29.7119694  58.2311592  88.9875641
   1.9328583  35.4147072  70.3874512   1.3830899  35.6938744  69.6552963
   2.0583019  34.4759979  70.2484665  71.3823166  47.0577431  23.7695503
  70.9042664  46.4645996  24.3491039  71.1652908  47.9329567  24.0906963
  29.4679680  69.8701477   2.8583925  30.0167522  69.7143173   2.0897667
  30.0429459  70.3228149   3.4754181  34.6555862  44.5757370   9.6118650
  35.2440109  44.7027245   8.8676462  34.7805405  43.6604347   9.8625412
   8.0261307  18.0059490  22.3920135   7.2599158  17.8658066  21.8356781
   7.9163537  18.8941460  22.7315559  12.1503887  32.1583824  50.6659431
  12.4308472  31.3537159  51.1019363  11.2183142  32.2299347  50.8717308
  25.8941383  42.5930672  88.4085922  25.7626686  41.7009392  88.0875626
  25.8889542  43.1347847  87.6194534  83.1332016  37.2126884  69.0704651
  83.9970551  37.6198807  69.0057526  82.7454681  37.5971756  69.8566360
  30.3634148  26.9712543  73.2736359  29.5251713  27.2347565  72.8939667
  30.8248291  27.7950954  73.4305267  35.3397980   1.8335252  68.6778030
  35.3601646   2.1911666  67.7901611  34.4290886   1.9329056  68.9552307
  67.8192749  51.8796959  21.7370739  67.1061325  52.3121300  22.2068138
  67.3995056  51.1471062  21.2861423   1.6397793  54.2551689  69.7479782
   1.1134439  53.7993279  69.0911560   2.0256298  54.9929848  69.2757721
   1.1322811  62.2428551  32.3581352   1.2010279  63.0683556  32.8377724
   0.3347318  61.8353195  32.6958656  52.9007187  49.8102722   5.0710773
  52.9668274  49.6000900   4.1395807  51.9718590  49.9954529   5.2094941
  42.0093231   0.0256721  49.2010498  41.9745712   0.7626872  48.5912666
  42.9440384  -0.1234141  49.3435555   6.5386333  33.6916237  42.3550301
   6.5380816  32.7616310  42.1284256   5.9760942  33.7503128  43.1272583
  77.9718170  12.2869987  45.5301056  78.2727356  11.8260288  44.7470436
  77.3175812  11.7037334  45.9148216  14.7624273  36.7793045  31.1103840
  14.1213112  36.4815903  30.4649620  14.7346973  36.1154099  31.7993736
  67.6179428  26.6605377  24.4010181  68.4340134  26.8008385  24.8812046
  67.0548706  27.3870220  24.6682396  77.1802368  46.6156502  77.2701645
  77.3847427  45.8872719  76.6837616  77.1145630  47.3765335  76.6931229
  64.9274597  49.9383926  47.7058754  64.5151749  49.6940994  48.5344696
  65.7999344  49.5469131  47.7478905   6.5543041  21.0132198  57.8196487
   6.4338441  20.1772919  58.2701454   5.7877884  21.0918903  57.2517624
  58.5458145  21.7097511  23.8539200  58.5470886  22.6669464  23.8559570
  58.5882759  21.4682121  24.7791710  86.2208862  67.2011948   0.8930106
  85.8472824  66.3209534   0.9358426  86.8392639  67.2347031   1.6228864
  26.4949913  40.4199600  86.5564346  25.8980522  40.2679863  85.8237686
  26.4911671  39.5958900  87.0433960  84.1458511  60.9243889  61.0060196
  83.9262238  60.0399132  60.7132835  83.3202438  61.4059143  60.9537086
  27.1785984  49.1526375  46.8955803  28.0741024  49.4830017  46.9674606
  26.7167873  49.8207130  46.3889847  12.6045208  41.2316322  50.5189209
  12.9892836  41.9076920  51.0767136  12.6923094  41.5758934  49.6300964
  16.0668278  66.3154068  85.2526627  16.5409927  66.4412384  86.0745850
  16.0062485  65.3652191  85.1541443  72.7294159  34.6327133  49.6769524
  72.5351791  35.5490265  49.4797783  71.9070587  34.1722412  49.5098686
  85.7227325  28.8774261  67.4128647  86.6552200  29.0904999  67.3768768
  85.5371017  28.4708729  66.5664139  14.1712151  35.9377136  84.9192200
  13.4870090  35.2736855  84.8345871  13.8427219  36.6851311  84.4195328
  14.3973093  59.4192085  17.0821648  14.5045176  59.0268059  17.9486294
  14.8949900  60.2356911  17.1257591  23.1800442  21.9942226  81.3939514
  23.2960186  21.2872543  80.7591400  22.2311268  22.0830193  81.4828491
  55.6329384  39.2454758  18.6078701  55.7590981  38.8820229  17.7313900
  56.4112587  38.9735985  19.0942116  63.9054985  56.2616081  59.0860062
  63.6002655  56.5033684  59.9604301  63.3297234  55.5442734  58.8211632
  54.9397316  32.3794937   3.2852173  54.8852005  31.8051071   4.0489812
  54.0881958  32.2903748   2.8572233  61.0939407  48.8905106   6.9388819
  60.4516296  48.8157768   6.2331295  61.4919319  49.7515068   6.8103390
  37.5735321  17.5738049  11.2890072  38.1079330  17.8342419  10.5387945
  37.4232635  16.6369972  11.1623468  60.7177505  29.2777996  53.8100586
  60.3972549  28.7494812  53.0790367  61.3996696  29.8290958  53.4262772
   0.8912053  17.8026142  60.7277031   0.4531334  17.1670132  61.2936859
   1.8144063  17.5512333  60.7548943  17.0176983  51.3426018   0.5312796
  17.9230232  51.3378868   0.8420791  17.0326042  51.9076347  -0.2412152
  70.2064056  63.6874123  88.4072876  69.5762253  64.3962097  88.5365601
  71.0557022  64.1268539  88.3645477  67.0686111  18.8175468  17.3787804
  66.1677856  18.6015091  17.6197681  67.0817490  19.7735920  17.3336201
  30.1962471  52.6243057  20.2077961  30.9548550  53.2064629  20.2506790
  30.4216576  51.8942871  20.7844200  55.9523087  25.9879990  59.8662148
  55.8144989  25.7026234  60.7694321  56.0142975  26.9414940  59.9231110
  61.1679153  67.9141388  37.2118645  61.9176674  68.4136505  36.8884583
  60.9134903  68.3600922  38.0197182  70.7146683  37.8034744  39.4834824
  70.2229004  38.2925720  38.8238029  71.2642822  37.2049789  38.9775581
   1.5852542  50.8801460  15.3255701   1.7884139  51.2044258  16.2029514
   1.9572865  51.5358582  14.7357712  62.6606979  33.8913994  68.5822906
  63.1212234  34.4831696  69.1772308  62.0590820  33.4052658  69.1461716
  12.5290651  12.7751551   9.9394588  13.3762789  13.1931152  10.0936337
  12.6219320  11.8997459  10.3153114  70.4696045  63.1129570  52.4769096
  70.1114426  62.9129295  53.3417435  70.2515259  64.0340424  52.3345375
   4.3845339  61.0135765  78.6024246   4.4511151  60.1123581  78.9180222
   5.2754087  61.2403870  78.3357162  25.4463844  64.5257568  40.1261749
  26.3795471  64.7000351  40.2489128  25.3732319  64.2441864  39.2142525
  59.5315056  51.2373619  44.5796280  59.8990479  50.6283455  43.9391289
  58.7930260  51.6444702  44.1266975  65.3643188  58.7304382  10.7903185
  65.7397919  57.9374924  11.1730566  64.6304932  58.4169312  10.2616949
  56.2554855  50.9703331  40.7962265  55.5077477  50.6905327  41.3242683
  56.0141258  50.7410507  39.8987808   7.9717121  57.5435715  22.5990276
   8.9093370  57.6202698  22.7756863   7.5930443  57.2639313  23.4324818
  59.1665497  26.3374424  29.5195713  58.9483185  26.2652397  30.4487610
  59.4460564  27.2462368  29.4091015  80.5327988  34.3615150  18.3513966
  80.7579956  34.5175171  17.4342365  81.0890656  33.6278305  18.6131496
  36.2877617  61.6864891  11.7948542  36.7651634  60.8569679  11.8095703
  35.3652534  61.4324036  11.8204222  41.4025307  13.8293295  12.8185816
  41.0676765  14.0409088  13.6899824  42.3541412  13.8266239  12.9218206
   6.7787628  64.7740173  24.1768627   6.7443342  64.6515503  23.2281532
   7.6940784  64.9878540  24.3576965  42.4698486  50.5463982  71.9420013
  42.3716927  51.3785744  72.4046936  42.5765991  50.7941246  71.0235977
  80.3684692  31.5391617  87.1453094  80.8364563  30.7104149  87.2472763
  80.0808258  31.5410347  86.2323532   5.1443419  70.4589691  41.3420296
   5.2451086  71.0730515  42.0693436   4.5347886  69.7976456  41.6696281
  43.7373810  67.0652313  33.1524010  43.3030243  67.9078217  33.0196838
  43.1071129  66.5470734  33.6529007   1.6587085  52.8238182  17.4202118
   1.3676499  52.8218765  18.3320847   1.9035330  53.7331772  17.2488747
  65.4136887  63.0242462  55.3614464  65.1108627  62.2414856  54.9012184
  64.8355331  63.0941505  56.1211128  43.3908997  35.5508728  42.3659286
  42.8518410  36.2672081  42.0304985  43.7309265  35.8768883  43.1991920
   5.3804722  37.6577530  50.8599243   4.7223620  37.8567657  50.1939545
   5.4781847  38.4733467  51.3513412  56.6673050  68.7992554   3.1299748
  56.1320343  69.5860748   3.0268295  57.4271774  69.0908661   3.6337578
  34.0867004  61.1839638  62.0979614  33.4356384  61.8273621  61.8179932
  34.0554085  61.2120857  63.0542374  68.2703247  11.9801826  71.7363205
  67.3186111  12.0045900  71.6369095  68.5994492  12.5324383  71.0271454
  52.5809326  43.9885979  46.1171799  52.9762726  43.3400612  46.6997070
  52.5684547  43.5640182  45.2593880  58.1234131  51.0307655  80.8381424
  57.8291969  51.0832214  79.9287872  58.5908394  50.1971283  80.8909378
   4.8472161  20.4724216  87.1005554   4.1132317  21.0388756  86.8625870
   4.8083701  20.4185066  88.0554428  77.0464249  14.8272247  57.6869469
  76.6293488  15.6845732  57.6018867  77.8776550  15.0077381  58.1259308
  30.7061291  65.7469864  33.0682068  31.5916557  65.3917618  33.1449547
  30.2733383  65.4893570  33.8821793  41.9333420  53.0476341  87.1340866
  41.9554749  52.3079147  87.7411728  41.1018944  52.9515343  86.6696548
  35.5260620  46.8369293  57.0769386  36.0043335  46.0171089  57.2009621
  34.6339417  46.5637703  56.8630829  64.9685516   9.6622372  46.5263176
  64.7762146   8.9076738  45.9696541  65.6246872   9.3421202  47.1453819
   7.7284040  64.3324203  82.4876251   8.1251106  63.5559196  82.0927811
   7.1407423  64.6709213  81.8121262  56.4941216  26.2931461   5.1321449
  56.3250618  26.3960247   6.0686636  56.5812302  25.3481865   5.0068736
  26.9300976  47.6616173  72.1747284  26.5295982  48.2596893  71.5437469
  27.5060177  47.1078186  71.6476135  86.4812393  48.1951866   4.4484568
  87.3557129  48.0933723   4.8241720  85.8863144  47.9426765   5.1545219
  41.4564819   0.5401341   3.9528406  41.1434975   1.4332550   4.0963984
  40.6591568   0.0146389   3.8868122  15.7317276  62.8802681  86.8787842
  16.1577396  62.4859390  86.1176987  14.9568768  63.3140907  86.5215225
  66.9217377  30.4671936  52.2438087  66.9204865  31.0746651  52.9835434
  66.8234558  29.6029701  52.6434212  10.7395945  17.1403885   9.8692226
   9.9764824  16.9250984   9.3329945  11.4265852  17.3478737   9.2357988
   9.0700836  14.5964355   5.6917152   9.7542639  14.0817242   5.2636938
   9.2581196  14.5143175   6.6266651  86.5776749  11.2840405  37.0171127
  87.3352051  11.8370562  36.8259277  86.1747665  11.1262178  36.1633072
  28.7048759  48.7379265   4.7151666  28.8766327  48.3103905   3.8761528
  28.9390869  48.0812225   5.3709993  74.4750061  27.6206913   2.4902620
  73.7173233  27.8416061   1.9486513  74.9150085  28.4575882   2.6393785
  13.1729670  52.9047852  58.9625664  13.5394983  52.3640671  59.6622162
  13.2935886  52.3835335  58.1688538  64.9081421  34.2891159  36.3709755
  64.5017319  33.7413712  35.6993790  64.7648163  35.1856689  36.0678558
  31.0258179  39.3689041  78.0746765  31.7410221  38.9879112  78.5841446
  30.3175983  38.7282677  78.1398010  36.9524231  56.4219894  40.0940094
  37.7533493  56.0426750  39.7322502  37.2108116  56.7508163  40.9550209
   0.9419947  35.9170837  25.0280857   1.1787915  36.7793655  24.6865711
   0.1590007  35.6711273  24.5354824  72.4562759   0.6655629  84.3789749
  71.8602066   0.5905160  83.6337891  72.5002594   1.6050651  84.5568237
   9.0281277   6.0412188  11.2168427   9.9839792   5.9904509  11.2150183
   8.7472086   5.2513580  11.6788340  60.1342049  38.1793098  35.9425812
  60.0937805  37.5983124  36.7022095  59.4475670  37.8577690  35.3583069
  78.0629425  35.9601212  10.0934572  78.6951447  35.2464790  10.0081997
  78.5336914  36.7350540   9.7866993  67.2840347  22.8089314  54.3288307
  67.4309540  23.1119995  53.4328423  67.9296799  22.1137028  54.4554176
  38.6999931  47.7374191  65.5402603  38.3151474  47.8981438  64.6786957
  38.7207031  48.5985260  65.9577484  61.5422974  22.9353924  23.5180244
  61.4567413  21.9969711  23.3498650  62.4745903  23.0633030  23.6932430
  82.8876419  22.9080887  75.2455521  82.3150024  23.6496563  75.4414825
  83.5526810  22.9306793  75.9336243  74.0784225  43.2681999   4.4083934
  74.0204163  44.1525993   4.7699256  73.9657822  43.3871040   3.4653103
  12.7848454  38.5914307  80.1618729  13.0407209  38.6742630  79.2432327
  12.6169806  37.6565475  80.2803802  68.7793121  34.9034805   5.2558041
  69.2311020  34.6508865   6.0609837  68.3117981  34.1131744   4.9854655
  15.1560755  47.3668098  40.0579262  14.4779434  47.5603447  39.4106903
  15.6276169  46.6175003  39.6940308   1.7740320  26.3637695  87.9571686
   2.5120502  25.8900795  88.3408051   1.8762004  27.2619190  88.2720032
  75.1818848   3.0205731  40.2381020  74.4830093   2.9230671  40.8848648
  75.8731079   2.4321995  40.5418434  81.8331757  50.7594795  20.8442268
  81.4844055  51.2754631  21.5711060  82.7826920  50.8581047  20.9144039
  70.9007492  46.0018425  14.7932854  69.9661560  46.0296669  14.9982014
  71.2283020  45.2402992  15.2718134  48.4614830  64.4662170   7.5797443
  48.1198807  64.2759552   6.7060513  49.4126358  64.4529953   7.4731393
  34.2489967   2.0870259  44.1650696  33.9534836   2.9319253  43.8258781
  34.9858513   2.3028622  44.7366409  62.9512939   9.7806435  88.2831573
  63.3849831  10.2658749  87.5812378  62.3058014  10.3937693  88.6347961
  67.4099884  64.2433853   8.4190416  67.4831467  65.1840820   8.2578669
  66.5999527  64.1485291   8.9201164  56.4463196  24.5527229  21.6846275
  56.3006706  23.7502575  21.1835613  57.1374283  24.3247299  22.3064156
  18.4845886  57.9598579  68.3252945  17.6127033  57.6457939  68.5648956
  19.0294380  57.1728783  68.3195419  26.1417160  31.3418503  23.2674122
  25.9790745  30.7872620  22.5043850  25.6360226  30.9353161  23.9711437
  53.2138710  33.2311287  74.9936981  54.0966911  33.5829391  75.1081314
  53.3416901  32.2862968  74.9089432  46.4222565   2.1788633  55.5173531
  46.7031975   1.2641096  55.4943314  47.1876602   2.6565144  55.8370972
  56.6460419  31.3194218  31.0143204  57.4108200  31.3778629  31.5869751
  55.9001007  31.2883015  31.6133499  41.1258392  63.6607475  46.7653008
  41.0735130  63.4050598  45.8443680  42.0634003  63.7504272  46.9360771
  79.6536789  57.1824455  65.4171448  80.4456100  57.6562386  65.6713028
  79.1463089  57.1128159  66.2258148  41.0384865  25.8416576   0.2985328
  40.1484413  26.0767536   0.0362611  41.0888443  26.0875950   1.2222270
   9.6614990  43.1341057  53.0371513   9.5387974  42.4721947  53.7176285
   8.9167194  43.0130463  52.4481850  82.3750458  52.5820656   7.8868122
  83.2982941  52.7898788   8.0305223  82.3857498  51.8845520   7.2313781
  52.8105965  40.8782616  12.1942730  52.7767181  40.0380211  12.6515284
  53.1182327  40.6599579  11.3145361  66.5729752  13.9469452  61.7193336
  66.0665741  13.3427095  61.1764793  65.9285278  14.3343058  62.3116760
  63.2269173  63.2369652  77.4360046  62.3309631  63.5738564  77.4346390
  63.7751389  64.0139847  77.3267899  75.0179825  43.3652840  35.1596336
  75.3293839  42.4656982  35.2596474  75.1072311  43.5470161  34.2240906
  51.4377823  20.4912205  41.0972862  50.9893684  21.0522614  40.4645233
  51.2703590  20.9042091  41.9444237  83.6433411  57.3291855  32.9181824
  83.3258209  57.8010864  33.6880646  84.4459686  56.8999825  33.2145042
  55.0734558  64.3176041   9.5630159  54.2343140  64.1370239   9.9866457
  55.5805092  64.7862167  10.2259865  64.6256866  66.0554886  44.7397461
  64.7777786  66.9704971  44.9760780  64.4780655  66.0736923  43.7941742
  33.8451653  27.1816597  69.5342865  34.3865242  26.7630386  68.8650208
  34.3229103  27.0404282  70.3516235  79.7923813  15.1935539  17.4172401
  80.3713837  15.0684433  16.6653500  79.4824905  14.3132505  17.6299953
  71.8439560  49.4886055  25.2364235  70.9933395  49.6138573  25.6571350
  72.1911087  50.3742294  25.1297131  47.3845787  10.6394091  84.8290253
  47.1008606  10.6987314  85.7412796  46.8830185   9.9077854  84.4692993
  66.8712692  62.4098091  48.5418282  67.6547546  61.8805504  48.6910400
  67.1171494  63.0080490  47.8362236  75.1997528  10.2255001  83.5777206
  75.1416397   9.4448175  83.0269165  75.5509491   9.9064760  84.4090576
  70.7108231  28.5903454  82.1633835  70.2305145  28.8523941  81.3779831
  71.3329849  27.9315224  81.8549957  56.0860901  35.4377365  58.8051834
  55.1779175  35.1471443  58.8889198  56.5859756  34.6301422  58.6862755
  70.5638199  10.8479939  65.5516281  70.5031204  11.4508047  64.8105698
  71.0201035  11.3467445  66.2293320  77.3307877  69.3928528  75.0763626
  77.2254257  68.4575653  74.9021072  78.1157990  69.4480133  75.6212997
  58.7529373  16.0665531  59.2447777  59.5019569  16.6175003  59.0174866
  58.0823288  16.6832542  59.5383682  51.0292206  31.0551682  80.2017136
  50.9609756  31.6121159  80.9772034  51.2908211  30.2000809  80.5432205
  46.1014061  35.5023537  77.6829453  46.3313675  34.8048248  77.0690994
  45.7551613  36.2031136  77.1304169  40.1864929  16.5123501  80.3273926
  39.6083679  16.5889568  79.5683517  39.6017838  16.2921638  81.0525513
  64.8140030  30.0525932  16.5995274  64.5271912  30.8622646  17.0219078
  64.8617401  29.4148254  17.3117123  52.6169777  63.5367088  29.7748528
  51.7228088  63.6615486  30.0928364  52.9219666  64.4194107  29.5649529
  34.9944878  33.1036453  80.1630173  35.2526741  33.9054565  79.7084122
  34.2720528  33.3721771  80.7306519  65.7735519  28.3039665  85.5393066
  65.0882797  28.5725174  84.9273300  66.5920639  28.4993591  85.0831299
  71.3689117  26.2416096  26.3081226  70.6696243  26.8860378  26.4174061
  71.8478012  26.2650185  27.1365852  51.3410149  63.3407516  77.9550629
  51.5512619  62.8398933  78.7432022  52.0853653  63.9316788  77.8411407
  55.1569519   2.5243938  70.7806091  54.3198013   2.9884393  70.7891922
  54.9171410   1.5983551  70.7463379  86.5294266   6.5589557  43.3708458
  85.6779709   6.7879639  42.9982681  87.0841446   6.3836565  42.6107216
   2.5856442  29.6837120  46.0192375   2.0584943  30.1763573  46.6482391
   2.4574118  28.7674980  46.2648773  62.4209709   7.8561997  49.1439018
  61.6852455   7.9471545  49.7494354  62.0333633   7.4888239  48.3495293
  58.2631798  62.7024918  62.8224945  58.2386971  62.3173790  61.9465256
  59.1654282  63.0049019  62.9260483  34.8495941  26.7242317   2.5677865
  35.1868668  27.5938644   2.3527951  33.9963531  26.6847095   2.1357546
  84.7901764  45.5341415  13.2857771  84.5967712  46.2747841  12.7110825
  84.4851456  44.7679214  12.7998819  13.6030827  64.0690689  85.9793396
  13.0896368  64.8582840  85.8068619  12.9548264  63.4125366  86.2342148
  22.3465977  12.3416615  79.7172394  22.9659309  12.9473696  79.3100815
  22.4741707  12.4649992  80.6578522  16.8268681  17.6753197   6.7351494
  16.3082237  18.4471607   6.9620857  17.6921463  17.8510284   7.1048141
  82.6099396  55.5716743  18.7367077  83.4493179  55.8890076  18.4035702
  82.1181488  55.3270721  17.9527798  70.2497406  28.0033951  22.0272694
  69.5458908  27.5982304  21.5206490  70.6682053  27.2728348  22.4826794
  78.0245514  20.5974293  19.4531517  78.9813843  20.5711594  19.4486141
  77.7593307  19.6887321  19.3111725  64.9068680  22.4850063  83.9476852
  65.6371765  22.0763721  84.4123306  64.2788925  21.7746029  83.8165359
  76.7986526  64.4016342  34.1278381  77.3632202  63.8604546  33.5759163
  76.0780258  64.6596603  33.5530815  27.4469872  55.0385284  55.5000572
  26.6402969  54.5727577  55.7203789  27.4659615  55.0451965  54.5430679
   5.2221870  52.8828659  42.3238335   4.8224978  53.3572273  43.0528450
   4.5410719  52.8585777  41.6517296  71.6515503  50.9478111  64.9843445
  72.0709381  50.2436867  65.4788666  72.2884064  51.6622810  64.9979477
  85.4679260  45.9016876  54.3651543  84.6680145  46.2860298  54.7238312
  85.8784332  46.6152954  53.8768082  82.7882385  56.1466370  25.8997650
  82.9573669  55.5512733  25.1695805  82.5300064  56.9689636  25.4834366
  56.0371132  32.7243500   8.0011253  56.3314857  33.6118164   8.2060204
  56.8452911  32.2250175   7.8838701  35.1834221  40.4157104  66.6006088
  35.5274277  40.8975220  67.3527756  34.2325134  40.4765053  66.6917725
  50.7015305  62.6143341  37.0287781  50.3706017  63.3858147  36.5688477
  50.2731819  61.8756027  36.5963135  21.2910309  32.9337578  71.2364273
  20.4115887  33.1012802  70.8976822  21.6054211  33.7917900  71.5213394
   5.4739304  70.6818466  72.0900574   6.1246471  70.7647324  72.7871475
   4.7577052  70.1874161  72.4885483  47.8449326   8.7627659  40.0488052
  48.0917549   8.5637045  39.1456528  47.2432289   8.0595903  40.2931976
  35.1729736  71.6082687  62.7314644  34.4783554  71.4856873  62.0843849
  35.1279030  70.8266754  63.2822037  10.9411898  32.0067673  17.4160480
  11.6647339  32.5914421  17.6415997  11.2664957  31.1312580  17.6255512
  84.3929825  50.4694862  64.7891693  85.3390503  50.6116409  64.7579422
  84.2878494  49.6695137  65.3041611  57.6504059  71.5462036   1.2333690
  58.4944458  71.2043686   1.5282983  57.5412521  71.1874924   0.3526607
  69.2265015  50.2476959  71.6238098  70.0004044  50.1704369  72.1817780
  69.1556702  51.1845818  71.4408875  34.8462791  48.7848282  67.5904312
  35.3504868  47.9768906  67.6865540  35.5042763  49.4799767  67.5967941
  77.6363754  35.3413086  69.6239395  78.5486526  35.3455162  69.9136963
  77.1793594  35.8873100  70.2636642  52.0606842  64.0023422  73.2877121
  51.4116707  63.8331642  73.9706421  52.2441368  63.1408768  72.9129410
  74.5205078  24.6717968  17.9731274  75.3504257  25.1027718  17.7688580
  74.5875015  24.4511490  18.9021358  51.7323380  25.9656258  67.0542450
  50.9200439  25.9994068  67.5594864  51.6165237  26.6250782  66.3701859
  78.6295013  47.8938408  18.9001369  78.9111938  47.5968437  19.7653980
  79.4130402  47.8211288  18.3551388   2.3569789  11.0061836  54.3062515
   2.2214692  11.8832569  54.6648750   3.2962217  10.8498278  54.4042702
  17.9950886  15.9018536  83.8895798  17.3311539  15.3030529  84.2314224
  17.6027641  16.7704296  83.9784012  41.2716064  35.8014755  22.4690018
  41.6794357  35.5458946  23.2963963  41.8591843  36.4648705  22.1072121
  54.0106544  36.3191681  34.0350456  54.3249893  37.2219009  34.0850182
  54.6961136  35.8030396  34.4592896  23.2320805  45.2404366  55.3354797
  23.5008125  45.3165131  56.2510262  23.7896690  44.5489540  54.9788628
  68.7085266  64.3694916  24.6974430  69.1603394  65.0576706  24.2090797
  68.6319275  64.7171783  25.5859699  43.5901909  24.6344929   3.1638865
  44.3852196  24.1855240   3.4512739  43.8495941  25.0928612   2.3646128
  72.3817978  70.9388123  63.0191689  71.8948746  71.1762619  62.2300224
  73.0873184  71.5838242  63.0684395   4.0935073   3.9357939  14.6703482
   3.3999913   4.5904036  14.7525301   3.9535880   3.5456541  13.8075361
  48.0662727  28.7088947  69.8107300  47.4897270  28.9064503  69.0726318
  47.5965729  28.0402660  70.3092728  21.8806763  68.7790298  21.2541447
  21.2221260  68.4504166  21.8661575  22.1745777  69.6046600  21.6391010
  66.3902969  19.8497410  82.6899033  66.7143021  20.2671452  83.4880447
  67.0820618  19.9969006  82.0448914  74.1842041  11.2321348  75.9404373
  73.7774658  11.9674644  76.3987885  74.8661804  11.6333504  75.4017715
  49.8833961   3.7891729   6.4024873  49.0158195   3.8216207   5.9993839
  49.9366798   2.9138169   6.7860813  30.6229744  25.1113224  14.7577410
  30.0042419  24.6393223  15.3150721  31.3506927  24.5012226  14.6375885
  13.1339693  69.9978714   3.7680612  13.2529249  70.9076385   3.4953010
  12.5368471  70.0477371   4.5145125  65.8732071   3.4476607  11.9743671
  65.0217056   3.4375625  12.4114971  66.2633362   4.2837887  12.2291603
  75.0056839   7.8325038  48.9152603  74.3282394   8.5080271  48.8841057
  74.5351868   7.0140080  48.7573624  37.1313934  40.6523552  36.1232262
  37.0373993  41.3217430  35.4454956  37.8283463  40.9820595  36.6904869
  23.1866283   2.3512514  80.7469635  23.9527111   2.9122734  80.6261215
  23.5499916   1.4954417  80.9745331   3.5195475   9.2514734  72.0479050
   3.2130051   8.3455410  72.0085297   4.2887554   9.2690077  71.4784775
  61.5576553   6.5733171  62.9040833  61.1302452   7.2859168  62.4289474
  61.7816925   6.9525948  63.7538986   7.0613317  66.2539520  12.1037588
   6.8769488  67.1236420  11.7489681   7.5081887  66.4234161  12.9331160
  62.6998253  46.4993553   4.2417235  62.2445869  45.6578674   4.2119441
  63.0606346  46.6077461   3.3617799  75.5362549  30.5940647  68.0277710
  74.8050995  30.5360775  68.6428223  76.1448441  31.2095127  68.4365158
  71.7964706  55.5506401  74.4225540  71.4090881  55.2416534  75.2415161
  71.9417801  56.4860687  74.5642776  38.7616806  49.9313469  10.2871580
  38.9663658  50.6257935   9.6609945  38.1100998  49.3906746   9.8406696
  24.8154507  24.0283566   1.7404681  25.2169266  23.7813034   2.5735426
  23.9913139  23.5420074   1.7182078   5.1115913  42.1083679   1.2968777
   4.6782432  41.5401268   0.6600551   5.4637389  42.8288956   0.7743224
  24.7681236  21.5249195  85.4043579  24.8226528  22.2341347  84.7638321
  25.2390308  21.8561058  86.1690750  63.0337791  22.4083271  14.9863348
  63.9880295  22.4760494  14.9538898  62.8593674  21.8400345  15.7365713
  73.4561157  58.2669983  38.8541031  73.3608780  58.8451958  38.0972366
  72.9066696  57.5106812  38.6483727  51.7918434  14.0923491  87.5325089
  50.9430237  13.7592411  87.2413483  52.2899284  13.3085728  87.7645416
  61.4980316  24.6922855   8.0322924  62.4266663  24.9221764   8.0004044
  61.4496765  23.9785748   8.6683035   7.4787149  24.8122139  55.3437500
   7.5222597  23.8793392  55.1338043   6.8659887  25.1735210  54.7032356
  58.8616180   4.4384389  54.0008011  58.7082291   5.2244372  54.5251236
  59.8144684   4.3785396  53.9320946  20.2851963  37.1094322   0.6708987
  19.4326248  37.5141068   0.5109307  20.8304958  37.4032669  -0.0588553
  33.5530701  64.0818558  75.1551285  33.6705437  64.9581375  75.5219574
  34.1523972  64.0520706  74.4093781  72.3719254   5.8799744  53.7235298
  72.1444321   6.6270809  53.1700783  73.1271973   5.4822326  53.2904053
  16.5697308  41.8043404  64.1419601  17.2255325  41.5767899  64.8010330
  16.5277309  41.0371971  63.5710335  39.2450180  70.5169601  79.9303513
  38.7328529  70.3842239  79.1326675  38.6720810  71.0299835  80.5002518
   7.4172387  43.4445686  51.4443970   7.1393046  44.3007698  51.1189690
   6.6881294  43.1469269  51.9884911  19.7060986  51.1523132   4.6387343
  19.3902626  50.6574593   5.3947740  20.6466618  51.2459793   4.7897253
  22.7478256   7.1533575  20.5823345  23.2144375   6.9222460  21.3855095
  22.2557392   7.9422512  20.8097763  46.1244164  65.4276657  70.8758316
  46.8259163  65.8716660  70.3993912  45.5578766  65.0718307  70.1912537
   5.0753088   8.6048212  36.5244370   5.3398547   7.8473940  36.0023727
   4.3949127   9.0297937  36.0022392  15.3300896  70.1752090  15.5110807
  16.1582546  70.2241135  15.0336046  15.5655413  69.8046722  16.3616657
  85.2186432  52.3566513  84.6470871  85.3337402  52.8679810  85.4480438
  85.0525970  53.0100555  83.9675827  29.3453388  19.6948299  11.8085423
  29.2397327  20.2798824  12.5587368  29.4839973  20.2814465  11.0649776
  16.5919609  62.0872154  76.2836304  16.2455578  61.2958336  76.6958847
  16.6965923  62.7071190  77.0054321  78.2521362  24.6763649  23.4757404
  78.3935165  23.8004017  23.8348122  78.4295883  24.5830612  22.5397720
  23.6725407  46.7248306  23.4735584  22.9177418  46.1446686  23.3739319
  23.2951088  47.5679970  23.7242489  77.6223526   6.8133702  30.3753777
  78.0505219   7.6347461  30.6167202  78.2982635   6.1464396  30.4960995
  67.5904007   9.1866989  48.7383537  66.7272720   8.8894434  49.0262337
  67.5609970   9.1190767  47.7839966  11.5463734  29.5634098  83.9244995
  11.8765287  29.5688839  84.8229446  12.3335924  29.5503960  83.3801193
  57.1895103  32.0650864  46.8456001  56.5341759  32.3920784  47.4619141
  56.9031334  31.1748428  46.6414299  45.2884445  48.9298401   1.3687764
  44.9410400  49.0295143   0.4824315  44.9653282  48.0765457   1.6581216
  21.8678799   1.4060546   8.0148392  22.6206455   0.8175948   7.9574628
  22.2224903   2.2128422   8.3884401  48.2156410  40.0327377  13.9995089
  47.4275360  40.3577919  13.5642414  48.3955956  39.1942863  13.5742483
  38.4279060  57.4553642  67.9859467  37.8288422  56.7101364  68.0305405
  39.1962280  57.1178207  67.5255280  81.6488266  51.8301773   2.0755825
  80.8253632  51.7802200   1.5901543  82.2384949  52.3145332   1.4977243
  84.0944214   4.3523736  67.5893631  84.3031540   4.7107096  66.7266617
  84.4512558   4.9909682  68.2066956  12.5300684  53.8826370  12.3265858
  11.8499317  53.5955276  12.9358597  12.0503340  54.1656075  11.5481157
   4.2017684   9.7010174  25.7388725   4.8301067  10.3490906  25.4204006
   4.6009083   8.8568478  25.5284023  12.0416527  37.6819992  38.6328812
  11.6891527  37.4152069  39.4818802  12.8756609  37.2174568  38.5631447
  24.6640511  55.8656540   7.1087885  24.5072517  56.7534561   6.7871470
  24.8589840  55.9788780   8.0390644  24.4461136   7.4853225   1.3056996
  23.5946579   7.1545043   1.0196664  25.0700645   6.8166423   1.0232375
  79.4328613  25.3543282  26.6626530  80.2907333  24.9311619  26.6276493
  78.8573074  24.6969566  27.0535831  57.7511711  55.0338974  33.8430367
  57.0063095  55.1479874  34.4332848  58.4605980  54.7291527  34.4087906
  42.0583992  20.1367779  75.8183060  41.8440170  20.7914562  75.1537247
  43.0006866  19.9982052  75.7228088  81.9698410  54.1484642  34.2329521
  81.7325516  53.2811241  33.9048576  81.9542694  54.0566788  35.1856155
   4.5979180  42.3283577  35.9019890   4.1728954  42.9427834  36.5003738
   4.3377571  42.6246910  35.0297890  57.8392296  38.8841171  10.0409031
  57.4774017  38.0133018  10.2051992  58.7802238  38.7380753   9.9437656
  72.3496552  31.8558922  48.5030403  72.0484390  31.6002388  47.6311798
  71.6128159  31.6540871  49.0797348   8.7337656  54.9577904  30.9290676
   9.1721058  54.9766045  30.0783405   9.4479322  54.9378510  31.5660915
  58.6620178  34.9933624  31.0535831  58.3094635  34.7201729  30.2066441
  57.9176483  34.9360313  31.6526299  53.8036461  14.6124802  54.1235123
  53.5869217  13.8721418  53.5568008  54.3853912  15.1574717  53.5936127
  53.4381981  11.0326557  47.6205025  52.6421928  11.5302534  47.4334030
  53.8508873  11.5041723  48.3440971  38.5476990  35.9758568  63.2151489
  37.7909355  35.7097816  63.7374039  39.2560120  35.4041634  63.5112724
  55.1050262  55.5059509  35.3260231  54.4397354  54.9685478  35.7559242
  54.6214828  56.2583504  34.9849777  42.0153465  36.6009789  18.7178440
  42.6352730  36.7931366  18.0142841  42.3640747  35.8137054  19.1359577
  84.4417648  45.4219704  60.6473579  85.0087204  45.1264153  61.3597069
  84.6191559  44.8120575  59.9312782  59.6406860  26.1811333  32.2386284
  59.1997604  26.4248810  33.0525093  60.2256851  25.4657574  32.4881172
  57.3039780  25.6369095  62.8057594  56.3551445  25.5544548  62.7100830
  57.4507904  25.6304169  63.7516098  28.6986866   2.1482620  88.0199814
  27.8812809   1.6634310  88.1340790  28.6325436   2.8776793  88.6362610
  73.8833160  23.8933868  75.3640747  74.8363419  23.9782944  75.3917007
  73.6009140  24.0711441  76.2612305  68.0753784   9.0636244  10.0097628
  67.3317032   9.4737768  10.4513054  67.7441406   8.8405867   9.1398373
  85.3901062  70.0597763   0.4966744  85.9234772  69.3038559   0.7423032
  86.0216141  70.7683029   0.3725060  17.5835094  64.7961578  30.0525398
  17.9246979  65.6879272  29.9849834  16.7648964  64.8891830  30.5398293
  85.8065567  12.3987074   8.3697596  86.4240417  11.7876205   8.7716436
  86.2394257  13.2503662   8.4291859  24.2516747  38.8205223  73.6423950
  24.1820927  39.6198082  73.1203461  23.5138550  38.8666077  74.2504501
  41.8397484  38.0718155  64.4484100  41.1225739  38.6006927  64.0988617
  41.4074135  37.4032822  64.9798050  62.9497795  68.5579071  48.3632545
  63.3854218  68.6767197  47.5192566  63.4834480  67.9067459  48.8186836
  69.4659195  43.4888229  35.2070045  70.2064896  43.5034523  34.6007271
  69.0273056  44.3284569  35.0696449  65.1929703  34.1894264  15.1798420
  66.1115799  34.4563522  15.1461296  65.1629486  33.5202217  15.8635778
  54.9353828  66.0720139  71.6141357  55.0708351  65.4877319  70.8681488
  54.0292435  65.9151993  71.8797531  67.1957169   0.4427898  48.6225777
  66.5072098   0.2811201  47.9775581  67.7182159  -0.3592218  48.6212959
  32.0095329  25.5860233  76.5036392  32.2537193  24.9571171  77.1826706
  31.0558319  25.5234470  76.4510193  21.8250523  52.6450577  59.2211685
  21.0169086  52.6442223  58.7082024  21.9126797  53.5473061  59.5285759
  69.7204208  52.8772774  37.7766113  69.4864044  51.9491920  37.7878914
  70.4703369  52.9280128  37.1839256  24.2485008  59.1001244  62.1598434
  25.0688248  59.2465744  61.6888313  24.4526730  59.3168449  63.0695572
  85.3772125   3.9229853   8.3092737  84.7853699   4.5661058   8.6996050
  86.0360260   3.7627099   8.9849253  56.4443588  40.3105164  56.8660736
  55.9241371  41.0665550  56.5940285  55.8170204  39.5884323  56.9016953
  18.7961960  27.9768009   7.6254220  18.1543884  27.8173275   8.3174362
  18.2756081  28.0322247   6.8240809   4.1914325  59.2003136  71.6285095
   4.2641578  59.0515671  70.6857376   3.2922199  59.5032463  71.7545242
  16.9387455  61.7827988  16.6839466  16.9927025  60.8273888  16.6613426
  16.4940357  62.0169182  15.8692970  29.5246601  32.4681740  65.8346252
  28.7580032  33.0391426  65.7849884  29.1618767  31.5836754  65.8823929
  80.0265961  14.7817860  43.4554443  79.9101868  15.3482370  44.2182121
  80.4786987  15.3316507  42.8155327  27.2206059  64.2177582  34.3443260
  27.7615128  63.9213104  35.0762901  26.3695602  63.8056717  34.4931259
  33.9831581  47.6176720  42.8369713  33.9948082  47.3661156  43.7604523
  33.1238556  48.0194817  42.7090111  53.1964684  65.6436768  17.7980556
  52.8102264  64.8820267  17.3656940  53.6895905  66.0866165  17.1075020
  71.8164215  53.7699203  35.8391495  71.4121399  54.6132965  35.6354332
  71.9039383  53.3351402  34.9908943  79.0982056  16.2225380   1.2172289
  79.0547180  16.8904858   0.5329874  79.1867294  16.7186928   2.0310013
  11.9233465  53.3098412  43.5949135  12.8381596  53.0323792  43.5462952
  11.4360847  52.5015793  43.7546730   1.2935315  39.7187538  47.5945778
   0.9069954  40.5746384  47.7797394   2.0734825  39.9153900  47.0756912
   0.4281631  28.0218258  30.4089661   0.9682409  27.9498329  29.6219692
   0.7979410  27.3778515  31.0129471  29.2753963  42.3681564   0.8168896
  29.9745712  41.7638550   1.0663016  28.4715252  41.9374352   1.1075833
  18.2509003  61.5524292  47.5592461  17.6788921  60.8196182  47.7873306
  17.8507423  61.9345131  46.7781448   4.9733229  16.0482864  71.9450607
   4.5894222  16.3261795  72.7767029   5.3844781  16.8386650  71.5950775
  70.6032944  11.1855621  43.6245422  71.4674606  11.5971384  43.6317482
  70.0329819  11.8183517  44.0610580   4.4059672  16.1693287  48.5162659
   4.2479701  15.2508402  48.2979851   4.4522042  16.1837902  49.4722404
  52.9927597   9.3446798  30.2820740  52.1275215   9.0110989  30.5193882
  53.0714035  10.1692467  30.7617970   7.7982512  67.6745682  -0.0446045
   8.0992250  68.5585251  -0.2550016   7.8993855  67.6067581   0.9048190
   4.3431158   2.9407170   9.2486668   4.6225228   2.0266654   9.3003693
   3.9064991   3.0100479   8.3996735  79.3297653  29.9301510  84.9044724
  78.8291168  30.3446808  84.2017975  79.6389694  29.1075172  84.5251312
  42.2656822  58.7218285  31.1620846  42.3064766  58.8257065  32.1127548
  42.2431450  59.6170769  30.8240719  13.2710428  53.2647629  67.4406891
  13.7321987  53.2214851  66.6030121  13.7908516  53.8702736  67.9692612
  64.1407547   8.1150532  15.8445845  65.0414047   8.2851391  16.1205120
  63.8434525   7.4094825  16.4190521  84.7797241  18.9698124   8.5867710
  85.2024689  19.1264248   7.7423820  84.1495743  18.2705441   8.4131002
  42.9212151   0.3449658  34.1739159  42.6657600   0.3411826  35.0963898
  43.0743446   1.2679194  33.9715767  86.5673981  71.0411530  33.1784630
  86.2806244  70.1371841  33.0487404  87.5109711  71.0182877  33.0191536
  60.0503197  15.3759842  86.0906143  60.1833076  15.5969105  85.1688004
  60.5795479  14.5902014  86.2273483  28.2383251   9.6087713  10.5647879
  28.8679352   9.9333649   9.9210024  28.7710342   9.3795319  11.3263006
  63.1129074  65.4343796  82.3946228  62.6364975  65.9707108  81.7608795
  63.1579094  65.9770737  83.1818237  70.2758255  54.8438797  19.6201801
  70.1269989  54.0103111  19.1738148  71.0448608  55.2137833  19.1866016
  44.9069824  69.7567596  60.2739563  44.8308983  70.5298157  60.8332672
  45.1404266  69.0487747  60.8743591  44.9918137   2.5945070  78.8131180
  45.1425934   1.7402307  78.4085083  45.8406448   2.8376398  79.1827164
  38.3784409  10.3704605  15.3852243  38.8464622   9.9188614  14.6829100
  37.5597420   9.8834982  15.4792042  30.8720894  50.3469543  52.6838188
  30.8767910  51.0984802  53.2766266  31.1919250  49.6192474  53.2170906
  28.1494827  47.9033890  85.8455582  28.0019302  47.3271523  85.0956192
  27.4634457  47.6653061  86.4691772  79.2055359  35.7231178  80.0970383
  79.5684128  35.9006653  79.2292633  79.1129532  36.5867767  80.4992218
  45.9080429   7.1467056  41.2504730  45.5168686   6.6673107  40.5201340
  46.3737869   6.4786291  41.7534523  62.0771408  25.8792973  27.3468399
  61.2640457  26.2576771  27.0122719  61.8138733  25.4049873  28.1354790
   0.1689733  67.2918549  41.1393890   0.3228746  67.5938263  42.0345726
   0.0653794  68.0955887  40.6299667  60.4437714  66.2290421  13.8447151
  59.9288292  65.4260025  13.9234791  61.3226585  65.9789047  14.1297112
  30.9322166  31.4554691  11.3908443  30.6813412  30.7742519  12.0147314
  30.3985939  32.2118073  11.6346321  29.0791626  53.0115623  22.8946915
  29.1461811  52.7581749  21.9740734  29.4687519  53.8851089  22.9316521
   3.5283384  40.2112694  16.0007572   2.7231004  40.6331482  15.7010231
   4.0597906  40.9281731  16.3469391   7.0388761  43.0397072  63.8237228
   7.4812107  43.5157585  64.5265350   7.4514365  43.3593826  63.0213318
   7.9851975   9.3626337  59.9325409   8.2242794   9.0375166  60.8005104
   8.5300884   8.8574772  59.3290977  51.3621254  63.1959763   7.4409680
  50.8096046  62.5066757   7.0724397  52.2151108  62.7793007   7.5635753
  26.5563354  33.0213737  16.6514969  26.8498554  32.7486115  17.5207939
  25.6010475  32.9831009  16.6983109  60.7705765  54.6315842  67.4600067
  61.5273743  54.9318199  66.9566650  60.3753319  55.4343224  67.8000412
  18.5581379  46.8683662  44.7558289  18.6967411  46.1033401  44.1974754
  18.9168091  47.5998192  44.2532654  48.4857521  69.9544754  20.4471035
  47.5929489  69.8442001  20.7741623  48.6634026  70.8897858  20.5464363
  84.3261032  50.0518990  52.3825722  84.1438675  49.1191940  52.4969673
  83.7146072  50.4897919  52.9746513   5.3674889  51.2648964  64.3029633
   6.0836177  51.7193298  64.7466736   5.8031082  50.6678162  63.6947136
  55.4713707  55.3049126  16.4160843  55.8140373  54.8006058  17.1539803
  54.5971565  55.5757713  16.6964722  81.8039322  17.2174683  53.4135551
  81.2966080  17.9995823  53.6307106  82.2392807  16.9794540  54.2321205
  30.5926800  22.4690742  18.9140816  29.9933758  21.7240181  18.8698254
  30.4940910  22.8031254  19.8056641  17.2199707  18.8258038  86.1337280
  16.9564228  19.6735821  86.4915619  18.1768169  18.8458633  86.1502304
  81.2913895  39.7431679  60.7515221  81.1452866  38.8084869  60.6057396
  80.7524872  40.1759720  60.0893364  60.0440865  70.4646530   8.0803556
  59.5565186  70.1578751   7.3158975  60.8602180  69.9648895   8.0602818
  22.2082844  25.2722282   9.3739243  22.3743134  26.1413784   9.0088987
  21.9527779  25.4383450  10.2813120  52.3076897  31.9404316  22.5224304
  51.6345177  31.6819725  23.1519299  52.6018753  32.7994041  22.8255062
  60.7723045  16.3141079  54.6235199  61.4093513  16.9279270  54.2579651
  61.2991257  15.6943073  55.1280365  83.6109390  31.3196602  68.4610443
  82.7663956  30.8947945  68.3111725  84.2242584  30.8349800  67.9086380
  60.9766769  48.7031326  67.3156204  60.9866066  48.5065193  68.2523651
  60.9292793  49.6581535  67.2718353   5.0955262  16.4373302  65.4808884
   4.9041462  16.9926929  64.7251205   5.6766734  15.7583466  65.1381302
  28.9632721  68.9745255  62.7055168  28.6877270  68.3333740  63.3606758
  28.4548378  69.7593765  62.9098206  21.8759098  50.9141731   8.5261469
  22.5260468  50.7091293   9.1980925  21.0333271  50.8072891   8.9675789
  65.4982071  53.4912262  38.0086555  64.8022842  52.8634911  38.2032776
  65.0951614  54.1165276  37.4063416   2.1073647  22.3140469  36.0082588
   3.0489807  22.1420422  36.0106163   1.8047773  22.0021324  36.8611259
  76.5478363  18.9204102  17.1300716  76.2583542  18.7011967  18.0157223
  76.8348770  18.0862503  16.7585640  69.1110764  47.4791527   3.1716886
  68.7787476  47.4341736   4.0682197  68.5182571  48.0847092   2.7266028
  19.5022888   5.5309229  82.7932358  19.7746391   4.6887827  82.4287338
  20.1708565   6.1480570  82.4959183  20.5093613   5.7403579  24.7659378
  20.4092617   5.0694237  24.0906162  21.0313396   6.4251108  24.3477440
  17.5446739  63.2208481  26.6459064  17.9533005  64.0780640  26.7660408
  16.6293411  63.4176407  26.4467354  62.1813049  19.5118885  47.7241745
  63.0107994  19.2578297  47.3196716  61.9424820  18.7635803  48.2711945
  26.9580593  51.2363548   8.3634462  26.5747566  51.4649124   9.2102480
  26.7313251  51.9700623   7.7920465  41.9874039  71.6755371  66.7319946
  42.0173302  71.4731522  65.7969131  42.8909187  71.5682907  67.0293045
  86.3103561  39.9219437  15.4429398  85.4176941  40.1669922  15.1993284
  86.3214874  39.9768753  16.3984966  24.1795216  53.2876320  71.6472702
  23.2813854  53.4472084  71.3572311  24.0892124  52.9849930  72.5508652
  55.3998146  60.2542572  55.0964165  55.2606201  59.3156700  55.2225571
  54.5714035  60.5732536  54.7383575   5.2644391  49.5811653   3.8134851
   5.8450122  48.8219604   3.7607856   5.7666378  50.2945213   3.4195900
  59.4005814  33.2642937  43.3090744  59.5204926  34.1988411  43.1403275
  58.5863914  33.2138672  43.8098602   7.5900178  41.8072128  18.4991760
   7.1668673  41.2015762  19.1077652   7.8175998  41.2666206  17.7427368
  77.9192429  12.9718809  25.9749413  77.7739716  12.2104683  25.4133549
  78.6618271  13.4254637  25.5761108   8.8490658   3.5510786  12.3236332
   9.3705902   2.9391491  11.8042240   7.9619040   3.1926959  12.2964649
  55.2896461  43.7106895  68.7495041  55.0303421  43.1627808  69.4903030
  55.8306885  43.1380234  68.2058487  26.9852772  43.1179504  78.7562408
  27.3611012  43.5883827  78.0121384  27.7377129  42.7154694  79.1899185
  43.7718582  10.3965101  60.9103050  44.4140549   9.7943420  61.2860794
  43.1236000   9.8271837  60.4957390  82.1694794  31.3558960  78.0089111
  82.3909760  31.4468994  77.0821457  81.8011551  32.2053871  78.2516708
  66.1616135  29.5444126  37.6323509  66.1349182  30.5006161  37.6668892
  65.6019058  29.3158321  36.8902550  21.2579575  66.0041962   9.2319288
  21.6916714  66.5758057   8.5983763  21.0111351  66.5866318   9.9503155
  49.3885803  71.9152145  64.9516068  49.2194862  71.0612564  65.3495865
  49.5339890  71.7231598  64.0252151  64.0903931  14.5361767  35.9224739
  63.2028236  14.2537947  35.7017441  64.6054382  13.7293577  35.9222565
  25.7969360  68.7725906  20.7739983  25.8066864  67.8397293  20.9882641
  26.5703125  68.9002457  20.2246113  62.6203537  35.9299049  13.5331316
  61.8836327  36.4791603  13.2651987  62.3998375  35.0575066  13.2067432
  48.0563622  65.2436981  21.0098724  47.9085579  64.8484650  20.1507015
  48.7471390  65.8893433  20.8608685  19.4800606  47.2826805  53.6561508
  19.5407181  46.9954338  52.7450829  18.6574821  46.9080200  53.9711494
   5.7864218  55.6342545  73.9308395   5.8434277  55.9345856  73.0237656
   6.6287208  55.2107086  74.0962906  16.3983707  54.6796684  10.4988499
  15.5758629  55.0579109  10.1879711  16.1354351  53.8890419  10.9700260
  42.8072929  33.2763557  12.2303286  42.0209351  32.7363281  12.3093624
  43.5324326  32.6599159  12.3323355  46.2132416   7.8640070  66.5000229
  46.3429565   7.0593252  65.9981308  46.4218407   8.5665751  65.8842926
  39.7806740  44.8510094  70.7278900  39.3172836  45.6392746  70.4448013
  40.4900970  44.7493362  70.0933762  44.9879265   0.3840455  15.2123623
  45.5715370   1.0950928  15.4770164  45.5580559  -0.2382452  14.7607670
  58.6402245   5.5281668  62.2013092  58.3824883   4.6064072  62.2140999
  59.5346336   5.5315309  62.5422707  36.8336105  27.4578819   5.0120878
  36.1482430  27.4317474   4.3443890  37.5068436  28.0288963   4.6420479
  51.4465446  34.5478020  65.9008636  50.6213684  34.9611244  65.6469345
  51.2791214  33.6088791  65.8194733  28.0753174  66.5377579   4.7372212
  28.4161072  65.7693787   5.1951361  28.1379642  67.2458954   5.3781929
  31.3132782  20.4123058  16.0101891  31.7418251  19.9477024  15.2913551
  32.0200844  20.8954811  16.4382095  63.6451302  59.2994881  34.6729317
  62.8246193  58.8613014  34.8987427  64.1613083  58.6270523  34.2283783
  43.9750557  33.3572197  87.5736542  43.7585220  32.5859718  88.0976105
  44.9032478  33.5126152  87.7484283  58.1345978  38.4685249  17.9416637
  58.3350487  37.5530930  18.1366806  58.1240997  38.5129814  16.9855537
   7.7991066  14.5514479   2.3687830   6.9852591  14.0669804   2.2303040
   8.1597357  14.6700220   1.4900802  31.3359451   0.0169900  78.1902161
  31.3005428   0.9723821  78.1432648  30.4605560  -0.2682788  77.9284058
  18.9558601  13.4284630  83.0234528  19.2106400  14.3497448  83.0740509
  19.6292210  12.9659939  83.5223923  63.9544449  13.4428434  60.3959770
  63.2722359  13.7848568  60.9737740  63.4809151  13.1305437  59.6249580
  33.3620110  56.0002785  70.7378616  33.5559006  55.2141533  71.2483978
  32.6477966  55.7384300  70.1568527  82.5867157  65.6561890  85.0357742
  82.0642014  65.3159027  85.7620087  82.9972000  66.4468536  85.3859024
  71.9242554  16.7105160  15.6760244  72.7628174  16.6054840  16.1254826
  72.0342560  17.4993038  15.1450396  19.3930492  48.9193344  33.7755394
  19.8856258  49.4133835  33.1201668  19.6110744  48.0041122  33.5992813
  56.7337265  37.8810883  30.1746445  56.5863495  38.8124619  30.0101490
  56.1622238  37.4342194  29.5502033  49.8413353   5.2444139  86.5231171
  49.1610985   4.7307267  86.9585876  49.7607002   6.1193781  86.9028091
  87.0923233  67.9821472  36.5292282  86.2752075  68.2941132  36.1403618
  86.9997940  67.0296326  36.5490608   3.1496515   9.0713491  49.4699783
   3.9041851   9.6491737  49.5841217   3.3015375   8.6426249  48.6277428
  12.1966143  63.4561310  72.4448471  12.6103992  64.1827087  72.9107819
  11.8629408  62.8862686  73.1377716  76.6944580  53.6826477  20.5343876
  75.9541092  53.0805588  20.6091766  76.3474503  54.4295273  20.0465469
  82.6000366  59.0907211   9.6602230  82.6532669  59.1590729  10.6134939
  82.4962311  58.1540298   9.4926825   5.1223426   1.1794592  43.0576057
   5.3538651   1.9269880  42.5063972   4.4029970   1.4977343  43.6030159
   6.8218284  36.0546036  46.4156799   5.9581704  35.6567535  46.5254173
   7.0727119  36.3294792  47.2975693   8.0622959  39.1155052  75.9804459
   7.1895103  39.3980293  75.7072144   8.6581793  39.5661087  75.3820267
  16.2820301  25.2429790  13.9532137  16.7510777  25.7131233  14.6425543
  16.8813515  25.2516747  13.2069082  45.5415039  36.7094650  23.6036911
  45.2237930  37.2418671  24.3329639  45.2399216  35.8235321  23.8047066
   3.3920321  49.5392723  22.4255161   3.2829247  48.6195946  22.1836014
   2.7996829  49.6637802  23.1670380  57.1139755  27.2501793  25.1909447
  56.5367241  28.0105801  25.1216164  56.6933517  26.6887455  25.8421764
  26.9211483  59.3977242  73.0001068  27.7475090  59.1876106  72.5651245
  26.7317104  60.2971191  72.7328339  32.3918762  35.9109039   0.4892850
  33.1160278  36.0542183  -0.1200550  32.5323219  35.0252495   0.8241335
  24.6512756  29.0392323  14.4036665  25.1979160  28.7242184  15.1235161
  25.2073402  28.9606323  13.6285229  69.7867355  56.7115860  63.2670212
  69.3191223  56.5933571  64.0938187  69.1086502  56.6370239  62.5955582
  48.5483208  10.6017008  42.2021980  49.1026917  10.1235352  42.8188515
  48.3975677   9.9838333  41.4868355  76.7687454  30.5094643  87.3196869
  77.3292160  31.2290363  87.0292892  76.1484222  30.3842049  86.6015396
  53.9320145  68.3438797  83.6264648  54.4972725  69.0075836  83.2312393
  53.0649605  68.5191269  83.2607651  63.0213280  26.5068626  12.4008551
  62.8248253  26.1945171  13.2840643  63.4378548  27.3581791  12.5350161
  79.9612122  37.8465462   9.2520447  80.8101425  38.1579170   9.5660486
  79.8211975  38.3193474   8.4316263  70.0851974  49.4562836  62.0790596
  69.6815414  48.8335342  62.6836128  70.4077148  48.9154968  61.3581123
  61.2557411  54.7023773  43.1758499  61.9345665  55.2089920  42.7300148
  61.7392654  54.0842438  43.7238884   5.5517917  44.4025726  89.1012192
   4.9068489  45.0960732  89.2402725   5.1590195  43.8406601  88.4332199
  84.2899933  18.6410103  66.2321701  84.4060287  19.3941765  65.6529388
  85.1808701  18.3612003  66.4426041  48.4609947  14.0498552  76.1052246
  47.7784996  14.6574869  76.3902054  48.7438087  13.6133442  76.9087830
  74.0681305  54.6932259  10.2612438  73.7168045  54.2658615   9.4801149
  73.8905640  54.0769272  10.9717903  22.6568737  42.2503929  28.4899349
  22.3389263  41.3500977  28.4220123  23.3851624  42.2945862  27.8703594
  77.6581039  38.4140091  84.5150070  76.9914780  38.0376549  83.9403763
  77.3112030  38.2889481  85.3983231  57.8087921  16.8548584  62.5787888
  57.0921555  16.2382641  62.4288750  57.6697502  17.5457649  61.9310646
  53.1201744  14.2150640  61.5492668  52.5847206  14.6113691  62.2366257
  53.1806450  13.2919416  61.7950745  59.0381317  45.9952354  80.8715286
  58.7321510  46.8011513  80.4554672  58.2473335  45.5999298  81.2384109
  69.9980774  70.4898071  33.4665184  70.6729431  70.9715195  33.9447861
  70.1125259  69.5802155  33.7417908  36.8197556  55.8571854  76.6472702
  37.3987579  55.9546967  75.8913040  35.9383163  55.8473892  76.2741699
  84.3117142  41.7396202  70.9946365  83.4254761  41.6683044  70.6400604
  84.2405624  41.4010773  71.8871384  73.1535187  32.9930115  17.8494663
  72.4774857  32.4863167  18.2994366  73.3485794  32.4855804  17.0616207
  66.3956680  55.7511482   7.4980826  66.3093796  55.9330368   6.5622926
  66.2273712  54.8120918   7.5760694  67.5153275  19.6550484  13.1023321
  67.3571396  19.0103378  12.4127235  68.4597321  19.8085537  13.0746403
  79.7167282  64.9945221  69.0920486  79.1580124  64.4445038  68.5429153
  79.9809875  65.7145996  68.5194321  55.0595055  67.9330215  65.9596481
  54.4623489  67.1876297  65.8962631  55.0219955  68.1923599  66.8802795
  15.2165060  46.4876213  83.8224945  14.4582958  46.2721329  84.3655548
  15.8995600  46.7268753  84.4489365  76.9576950  36.8338547  64.1624603
  77.7391739  36.3553047  64.4390869  77.2550430  37.3761978  63.4319229
   2.9914837   2.7969639  39.1631851   2.5220871   2.5474813  39.9592094
   3.1808484   3.7281113  39.2786751  69.9046860  68.1770630  21.1300259
  69.0086746  67.9649048  20.8685246  70.3945847  68.2018127  20.3080673
  24.5220528  53.5740318  47.7793198  24.3005142  52.6750298  47.5365143
  24.3969688  54.0771866  46.9746933  32.1471176  62.7881241  61.0380402
  31.4542637  63.3931198  60.7731552  31.6856728  61.9820938  61.2695847
  85.9647522   3.0647569  49.9990501  86.2426224   3.9694228  50.1425667
  86.4396896   2.7898691  49.2147713  42.8833961  42.4475517  48.3712692
  42.3243217  42.1499519  49.0889740  43.6298141  41.8484612  48.3848572
  72.2267990  61.2542610  31.2617283  71.6577835  61.2769279  32.0311050
  73.1040726  61.1108818  31.6167870  17.8195763  17.8611317  10.6846886
  18.6616535  17.4204559  10.7984476  17.6652813  18.3021946  11.5200863
  22.3535767  29.9721298  12.1650658  23.1474762  29.7381611  11.6842175
  22.5011826  30.8751373  12.4461727  53.9677811  35.1375198  80.5676727
  53.3792191  34.9179688  79.8454361  53.4157295  35.6086884  81.1917496
  24.4068737  70.2823868  11.2442789  24.5306435  69.3752213  10.9650736
  25.0736046  70.4189148  11.9173794  28.5267715  68.7223740   6.3651099
  28.7632561  69.5971222   6.6735277  29.2151146  68.1529770   6.7089157
  72.8260727  27.7996006  89.2038269  71.9600143  27.8286419  88.7972031
  73.0306473  28.7144585  89.3972549  22.1223335  36.9653625  80.5768509
  22.7097187  37.5721130  80.1262207  21.5377293  36.6437378  79.8905411
  73.1311111   6.2990284  41.7119827  73.9277420   6.3011394  42.2426491
  73.4448471   6.3444419  40.8087997   2.8379908  65.6748962  63.1638489
   3.7362034  65.8156891  63.4632187   2.4675579  66.5548706  63.0956154
  18.2346230  60.7761002  14.0393286  18.8766422  60.2152252  14.4745998
  17.3869267  60.4081154  14.2887869  80.9136887  21.8757534   4.9919472
  80.2930145  21.9636917   5.7153149  81.3727188  22.7153339   4.9668059
  78.7785339  10.5909185  33.2459412  78.9912796  11.5082617  33.0743179
  78.5110397  10.5749531  34.1648674  66.6203613  49.5757980  69.7192841
  66.2494659  49.0323219  70.4144821  66.9714127  50.3409042  70.1749268
   4.6893630  32.4792175  23.3467884   4.2566876  33.3323364  23.3119564
   4.5274744  32.1646957  24.2362270  61.8746300  17.0929623  68.1663361
  61.5410767  16.4513779  68.7935104  62.8137665  16.9144077  68.1175995
  68.1705093  62.5948715  59.9757347  67.4720230  63.2081566  59.7471848
  67.7136002  61.8352966  60.3369980  78.6973572  40.9210358  72.3598709
  78.1138153  41.6005783  72.0223236  79.5753098  41.2199783  72.1231079
  60.7551460  41.4535522  40.9806862  60.2224617  41.2252502  40.2188759
  61.3431625  40.7068443  41.0942383  78.7605820  42.3464966  29.7624950
  78.8819046  42.9746056  30.4745274  79.3515167  42.6490440  29.0729370
  24.4247112  37.9547539  83.0271530  24.1035271  38.8281326  83.2513809
  23.7197018  37.5658951  82.5094833  79.1264496  19.1768150  57.8191757
  79.9082413  19.6741581  58.0593643  78.4947281  19.3750076  58.5104637
  78.2889633  27.9063473  62.5784378  77.5890045  28.2699280  62.0361252
  78.1260300  28.2639751  63.4512444   2.4880266   8.3225508  55.9272995
   1.8573703   7.7562895  55.4824944   2.3616285   9.1827326  55.5268745
  41.7360458   7.0341239   1.8039957  41.9347801   7.4363189   2.6495583
  42.1023369   7.6391368   1.1589963  57.5551758  48.8275528  83.0853119
  58.4333458  48.5796356  82.7961960  56.9679146  48.3949547  82.4654617
  64.7660828   8.9230070  34.8210373  64.6348572   9.8605328  34.6794205
  64.2777176   8.5031452  34.1129074   2.3071260  13.1676559  75.0697708
   1.6079745  13.7052307  75.4418335   3.1094718  13.6546726  75.2576218
  58.6466599  43.7038727  22.4208927  58.2210121  42.8669777  22.6070595
  58.1635780  44.3406639  22.9475441  56.1382904  59.4832306  82.5894623
  56.0049133  58.7269669  82.0180588  56.7649269  59.1796188  83.2462616
  18.0398674  34.3312531  78.1412277  17.7974892  35.2467155  78.0018997
  18.9769897  34.3583260  78.3343582  73.5649796  24.9225140  31.1531906
  74.4962845  24.7027550  31.1778488  73.3827057  25.2903271  32.0178986
  83.5437775  68.5192566  22.7326317  82.7314453  68.9960022  22.9031162
  84.1873016  68.9278412  23.3115673  57.3441772   1.3497367  64.6665497
  57.3904495   0.5339999  65.1652145  57.0734940   1.0791095  63.7892113
  58.3289871  48.2102203  52.0972137  58.6100693  49.0309715  51.6927452
  57.3778419  48.2913628  52.1676941  54.0395851  52.7724266  47.6712723
  53.4422073  53.5172997  47.7385941  53.8833809  52.2672539  48.4691620
  32.8099327  70.5234756  38.1180725  33.4808922  70.4322052  37.4415283
  32.0280647  70.8057098  37.6434555  12.9289436  13.8654833   3.0924778
  13.3663950  14.1383801   2.2860065  12.1956987  13.3260612   2.7964914
  20.3096733  16.6490345  11.3576632  20.1784630  15.7297583  11.5899286
  21.2578793  16.7734051  11.3985014   6.4518685  70.7696381  39.1732407
   6.0382290  71.5358810  38.7757454   6.0824394  70.7285919  40.0553207
  53.2644424  70.9166336   2.4931479  52.9571228  71.7952347   2.7163827
  52.9191170  70.7581253   1.6145924  58.0572395   8.6427622  75.6430893
  57.7547302   9.5508842  75.6372452  58.7571907   8.6276665  76.2958298
   5.1801796  71.2358322  81.4871826   4.8085713  72.0296783  81.1025391
   4.4360023  70.7998123  81.9022903  58.7834663  17.3196888  46.4887238
  58.4979019  18.0374603  47.0539627  58.4125595  17.5279770  45.6312408
   0.5733719  65.5186310  39.0668526   0.3830402  66.1769867  39.7351112
  -0.1006024  64.8502350  39.1903114   9.8712673  48.9625740  18.4106865
   8.9654942  49.1990509  18.6104012   9.9610376  48.0654449  18.7321415
   2.8583267  50.9824562  36.2116508   3.6587861  50.7708244  35.7313271
   2.6254079  51.8616791  35.9134064  58.8439293  51.0567322  57.6695290
  58.7875900  51.9713516  57.3928871  58.0737457  50.6413040  57.2816277
  35.4981613  68.3552704  11.0452452  35.2675133  69.1897812  10.6370468
  34.8984451  68.2777328  11.7872448  77.3119278  58.8970985   6.5883484
  78.0957031  58.9528160   7.1350021  77.2497864  57.9715195   6.3523970
  83.1286087   4.3920546  43.6719475  82.2365417   4.2448077  43.3576736
  83.0631027   5.1730862  44.2214279  28.9613342  62.3843460  83.7931061
  29.7080631  62.4395065  83.1967926  29.1306953  61.6015129  84.3172379
  28.9097900   6.3432879  75.8102646  28.8690586   6.1960034  74.8653412
  28.0294590   6.6367188  76.0450974  86.7242661  15.7035723  62.0135040
  87.0781326  14.8884926  61.6576233  85.7747803  15.6006212  61.9493752
   8.1102486  31.9234715  76.9055252   8.7350178  32.2042389  76.2368927
   7.2706347  31.8845463  76.4475250  61.9649391  28.5570545  88.4643021
  62.0962410  29.4659042  88.1941452  62.4686623  28.0441647  87.8322830
   5.5271454  34.8767548  69.1958237   5.8221908  35.2146912  70.0413895
   5.8880067  33.9912338  69.1526794   7.5813508  22.6624737  76.4094391
   8.0693302  22.4590187  75.6114960   7.6170554  21.8562355  76.9241562
  45.3961868  24.6381302  72.0390854  45.1638184  24.9422398  72.9164352
  46.1778183  25.1411266  71.8104401  20.7776966  32.9658356  18.5572243
  20.1133060  33.2376823  17.9240456  21.2249279  33.7770653  18.7983131
  11.4861412  70.4974670   5.8319511  10.6857672  70.7031555   6.3149872
  12.1699581  70.4719391   6.5012593  15.7223816  56.3195419  26.7256737
  15.2886429  56.4112625  25.8773289  16.2389507  55.5177307  26.6451168
  85.0398102  60.5030518   4.3329177  84.4894485  60.8485909   3.6301098
  84.6698074  59.6414642   4.5252628  74.5184555  14.0651865  77.1048889
  74.6808090  14.9744368  76.8536148  75.2816772  13.8215208  77.6286774
  51.2064400  48.7489929  15.3303709  50.3498497  48.7709198  14.9037476
  51.1710320  49.4555550  15.9751577  52.9714317   4.4622011  29.6411953
  52.2783623   4.8648844  29.1180000  53.1368027   5.0906396  30.3440113
  69.4475479  43.4789619  67.4779587  69.6024475  44.4233208  67.4573135
  69.8282776  43.1918869  68.3079376   4.7747984  27.3010330   8.4849586
   4.6717696  27.9354591   9.1942682   4.4473810  26.4788036   8.8496075
  59.6475143  29.8906822  15.7289753  60.3712616  30.4145832  15.3855362
  59.8680496  28.9908028  15.4885349   6.0178742  41.6533356  44.2183380
   6.7253742  41.4405289  43.6097412   6.2442603  42.5202751  44.5550804
  16.4334373  62.4432983  33.6356010  16.0623264  61.9227180  34.3479958
  17.1609497  62.9169312  34.0388756  84.4084396  62.6632729   9.4140291
  85.0979004  62.0042076   9.3333664  84.4092102  63.1152039   8.5702343
  29.4190731  53.6988144  30.3227005  30.2554798  54.1642761  30.3226318
  29.6433086  52.8033714  30.5759449  17.1542397  63.5694046  62.0928230
  16.9141350  64.4568100  61.8261909  16.3726559  63.0461769  61.9150772
  44.2158737  46.8393021  86.4188690  44.7374763  46.0453873  86.3011246
  43.3145370  46.5596275  86.2588348   4.3158641  21.3933640  67.3911514
   3.9766319  21.4962692  68.2802811   4.1921258  22.2520561  66.9867096
  61.5848732  39.7313614  44.7257233  60.8436394  40.1665459  44.3045158
  62.3103676  40.3485374  44.6309624  69.8958359  28.3549957  59.4742546
  70.5479736  29.0093021  59.7249336  69.8790894  27.7402706  60.2077827
  51.1280937  20.4227695  62.3110580  50.5878220  21.1215038  62.6799889
  51.9638100  20.4976196  62.7717171  73.8773880   8.1892080  79.3001175
  74.3848419   8.4309025  78.5253220  73.9811783   8.9314604  79.8955307
  46.0918007  50.5770416   3.2706561  46.7306900  50.1610756   3.8494692
  45.9135437  49.9191971   2.5985696  57.4356613  35.5296822  64.5146027
  57.4027901  35.6736183  63.5688553  57.1985016  36.3758583  64.8940430
  75.5587311  70.0617447   7.1494255  76.0570297  69.2447052   7.1688967
  76.2165909  70.7464371   7.2704630  19.0710201  62.0349770  23.5102100
  19.3252411  62.5550995  24.2724934  18.1241665  62.1574478  23.4416656
  44.9449883   0.6389767   5.8477030  44.6675682   1.5545534   5.8791375
  44.6140175   0.3170798   5.0092082  44.1969185   7.5415030   6.2563682
  43.7806931   7.6342406   5.3994036  44.7955322   6.8017526   6.1530967
   5.4202471  40.2748222  12.0736685   4.5340629  40.3320961  11.7164164
   5.3060970  39.8704910  12.9337378  25.3784065  47.4733467  75.8772507
  24.7400322  48.1577415  75.6764603  25.1694965  46.7648811  75.2684326
  80.4395218  34.0884972  44.1955223  80.0850677  34.5274925  44.9687462
  81.1375961  33.5293350  44.5364914  84.7373505  28.1910553  53.1448288
  85.3652420  28.8499260  53.4412460  85.2344131  27.6423435  52.5381355
  59.9937592  61.8106461   9.7197590  59.5186844  62.6402245   9.6714039
  59.8262291  61.3892136   8.8768120  47.3210182  19.9220085  87.0323334
  47.2556572  19.2372150  86.3667374  46.5292625  20.4468670  86.9145355
  77.3644943  70.8647766  16.4646111  77.3898010  71.5981903  15.8500462
  77.0796204  71.2545929  17.2911263  20.2695389  59.9307327  27.6781559
  19.8005848  59.1012421  27.5872555  20.9873619  59.7352943  28.2804565
  28.0903740  50.2690773  63.5361404  28.3476028  51.1152763  63.1700554
  27.1572533  50.1952095  63.3359871  71.5995102  26.5615578  67.1066666
  71.7825241  26.2096996  67.9778366  72.2875137  27.2109680  66.9612579
  72.0667114  70.4238129  68.4266052  72.7227097  71.1208572  68.4226608
  72.4392395  69.7475128  68.9923630  33.8689728  57.3518791  79.3459320
  33.9923248  56.6307907  79.9632263  33.7015305  58.1148148  79.8992157
  66.7928162  37.0206757   6.3720641  67.3142853  36.3224716   5.9760771
  66.3358688  37.4257965   5.6349673  46.1632195   2.5853832  16.3313007
  45.4725037   3.2441328  16.4033833  46.9053497   3.0569003  15.9529572
  34.9310608  48.9952202  61.2314262  35.3473244  48.1332970  61.2247467
  34.0345078  48.8259773  61.5208664   8.0474787  42.1423912  32.5980263
   7.2756376  41.5875015  32.7102318   7.7039366  42.9610786  32.2403069
  57.2947311   7.3396358  18.6969166  58.1387100   7.5458584  18.2951641
  57.5199432   6.8648996  19.4970016  46.1593285  15.5866957  13.4447660
  46.8759842  15.5322561  12.8125706  46.4639931  15.0785141  14.1965389
  52.2582092   0.4915812   5.7177086  52.3731804   1.4417152   5.7016153
  53.1425095   0.1453125   5.8374729  85.3628540  16.2941151  79.7646484
  84.8023529  17.0481434  79.5815887  84.7612457  15.6191368  80.0788193
  79.4685364  34.9573364  75.3123169  79.9876862  34.2010040  75.0390549
  79.8882904  35.2572746  76.1185913  82.8182526  25.6854572  55.4745293
  82.0799026  25.7670860  56.0781898  82.4960556  25.1133766  54.7780075
  49.7773170  23.9822826  24.1626263  49.4118042  23.2429028  24.6483727
  50.4314728  24.3566265  24.7526932  56.0306625  43.0349350  45.4496689
  56.0739288  43.9339828  45.7753525  55.2126884  42.9989166  44.9538345
  51.7233620  35.9212112  82.3729324  52.3812141  36.6125603  82.2987595
  51.5912514  35.8163986  83.3151627   3.6321647  35.6169472   2.5516667
   3.4658747  35.8971252   1.6516221   3.6088369  34.6608124   2.5130601
  33.5534210  49.0916176  16.5867634  32.6075096  49.0843887  16.4403572
  33.6544724  48.8641129  17.5110264  48.7334442  16.8059158  78.8133926
  47.8762283  16.6057205  78.4374542  49.1246452  17.4279385  78.1999741
  69.1602859   4.0649328  10.1524639  69.5615921   4.5121250   9.4073467
  68.4878693   3.5062201   9.7626753  48.9411087  56.9344406  12.3652325
  48.7342377  57.8538551  12.5329037  48.1232796  56.4690628  12.5407562
  83.7894669  37.5913506  21.6167965  83.5761871  38.1691933  20.8841019
  83.6504822  36.7085419  21.2739239  83.2063293   3.9037557  13.0469980
  83.9158249   3.4191713  12.6250610  83.6383743   4.4111638  13.7340965
  12.4547434  64.3149414  60.5912857  12.7708511  64.6679840  61.4229507
  12.7523880  63.4051971  60.5886841   9.0547781  63.8545570  43.4104271
   9.6735888  63.2627640  42.9825439   8.4675922  64.1354065  42.7085953
  10.0826473  20.7856102  86.5067749  10.4211359  21.0981350  87.3458176
  10.8581333  20.7015610  85.9519882  86.4017639  12.1913099  45.0537109
  87.0221405  11.5320349  45.3647118  86.8683853  12.6479387  44.3537216
  23.9090843  56.6889992  40.5643654  24.1220474  55.8391151  40.1789093
  24.7431583  57.1581535  40.5855370  64.5738373  37.4417839  14.7901182
  63.8640022  36.8706932  14.4964867  65.0463638  37.6678276  13.9889593
  49.7971230   6.9102259  61.7974319  50.2785034   6.0943885  61.9349670
  49.8404350   7.0575185  60.8526268  15.2017050   5.4850788   4.5833573
  16.1477585   5.5150156   4.4408088  15.0960655   4.9681053   5.3819880
  61.1849174  45.9156075  10.6689053  60.3759193  46.4154968  10.7778254
  61.8668251  46.4817848  11.0303946  55.0108070  36.6464310  23.9211254
  55.5875473  37.4063530  23.8428879  55.3638954  36.1529884  24.6614475
  44.6468048  17.8227329  65.2636719  44.9063034  17.0391197  64.7790680
  43.7878456  18.0507431  64.9080963  65.8003845  45.7381477   9.7482901
  66.6229553  46.1920891   9.9314461  66.0178833  44.8089600   9.8226948
  20.2720337  51.4460869  22.8641434  20.7407188  51.7570801  23.6386414
  19.7918835  50.6757889  23.1679993  10.1164570  10.6979818  28.5941238
  10.0164480   9.9855814  29.2255630   9.2337322  11.0540705  28.4929829
  63.9515152  11.9092741   9.7389984  63.0998001  12.1884480   9.4030352
  64.5029678  11.8333502   8.9603004  27.8900585  16.1217403  12.4973698
  28.8008747  16.4143581  12.5293112  27.7700081  15.6236753  13.3059187
  43.8016891  51.4802322  79.6581650  43.8811073  50.7440414  79.0515747
  42.9077072  51.4180374  79.9945526  69.6612778  55.7891006  53.0667038
  69.6680527  54.9388046  52.6271782  69.5558319  55.5783310  53.9944382
  66.1474533  57.4173088   0.5055649  65.8389282  58.2858124   0.7639205
  66.5151825  57.5441399  -0.3690337  18.0832214   0.7673463  31.0156631
  18.3219070   1.3168857  31.7621670  18.8456497   0.8036277  30.4380646
  67.4946899  13.4942799  53.9907990  67.4145584  14.2958250  53.4737511
  66.6662827  13.0354605  53.8513184  74.9907837  22.1719265  52.8717575
  75.4019318  22.9402161  52.4756241  75.5067596  21.4321442  52.5512428
  84.3724899  53.6894951  78.3671799  84.4292984  54.4516716  78.9434586
  84.4333267  52.9381371  78.9570847  71.0649872  17.5020390  81.4910660
  70.4552460  17.5167294  80.7533493  71.2855301  16.5771179  81.6011353
  48.7380104  14.6632385  37.6507988  49.5512772  14.5989065  38.1514893
  48.5253983  13.7584295  37.4220009  37.7897720  61.6523132  39.5453568
  38.7469673  61.6515350  39.5473022  37.5495720  60.7263680  39.5113449
  65.7740097  42.9267464  46.8416557  65.5151291  42.5919609  45.9830933
  66.7160568  43.0783348  46.7655220   9.6383142  16.0129986  76.5185852
   9.2485495  16.7546577  76.0557098   9.9212713  16.3763065  77.3577347
  30.5662651  41.9957657   5.9796062  30.6510277  42.6547012   5.2905087
  30.2184029  41.2244873   5.5319977  42.7238617  39.5369110  42.2364388
  43.4816360  39.5253334  42.8211403  42.6742401  38.6455956  41.8909988
  15.5130587  47.5784378  73.7540665  15.7634954  46.6634903  73.6260681
  16.3448372  48.0484848  73.8126602  74.2584152  22.5893650  38.7718124
  74.7688904  21.8406982  38.4633598  73.3776093  22.2396030  38.9063110
  69.6115341   9.8929577   6.4295974  69.8837509  10.7177238   6.0272422
  68.9027100   9.5758915   5.8698964  71.1310577  33.9842224  54.6865959
  71.9039078  33.7806053  55.2133484  70.4018936  33.9432487  55.3053665
  28.6418266  61.1696892   1.8497292  28.9070873  61.9782181   1.4113797
  29.4568806  60.6811600   1.9648719  63.2974854   1.1391957  85.5639572
  63.7985077   1.8626200  85.9406052  63.8057022   0.8683948  84.7993546
  76.2180023  54.2400513  76.3676910  76.3340149  54.5283432  77.2730408
  76.8243332  54.7829857  75.8638840  80.3217621  49.6757965  81.4626007
  79.3916779  49.9013939  81.4793701  80.5872955  49.8217926  80.5546341
   7.3758774  11.6318121  28.1951256   7.0708895  11.1263885  28.9486256
   7.7398653  12.4316158  28.5746765  40.2410927  45.7933197  74.9160919
  41.1004639  46.1967964  74.7939301  39.6753120  46.5140266  75.1930466
  62.3097420  20.6851234  84.0944214  62.8310890  20.3556938  84.8264771
  61.4020691  20.5569668  84.3699951  62.2233658  64.4506378  85.6771622
  61.4674149  64.1897125  85.1511536  62.4429550  65.3275452  85.3624420
  19.6084156  49.9255371   9.6491594  19.1306133  49.1756248  10.0035124
  19.4762974  49.8682785   8.7028522   7.5486102  18.8351822  26.9306488
   8.4306421  18.8037815  26.5601540   7.6560764  18.5291691  27.8312244
  16.6529636  56.2445335  63.6312523  16.6446609  55.9180679  62.7314835
  17.5649719  56.4885826  63.7890854   0.2202522  69.5190201  68.8025513
   1.0580376  69.9581146  68.6557617   0.3230492  69.0836563  69.6487885
  24.2001839  62.8923721  78.9307480  23.6818237  62.5430756  79.6556854
  23.8372059  63.7642899  78.7750702  30.0228367  61.3101654  25.3012924
  29.8074303  60.4296684  25.6088009  30.9218845  61.4537964  25.5967827
  24.2047138  26.9944706  81.4029007  23.6829815  27.6059246  81.9226608
  25.0303707  26.9175968  81.8810349  52.0865746  12.9726086  44.2182693
  51.8104935  13.3987617  45.0296898  52.3482132  12.0920181  44.4872284
  29.7713985  32.7762070  79.6977539  28.9770145  32.3397255  80.0054398
  30.2759609  32.9442024  80.4936295  40.4403229  70.3155212  10.5093355
  40.5437775  69.9761887   9.6203032  40.0575943  71.1848450  10.3908615
  54.2173157  21.8122177  73.1646729  55.0846138  22.1892357  73.3126144
  54.2804222  21.3963604  72.3048401  81.8193665  19.6665249   3.3799376
  81.6130066  20.5773087   3.5899866  82.0905151  19.2838058   4.2143464
  21.0476265  50.1846848  28.7468472  20.1928463  49.8508072  29.0190716
  20.9757195  51.1342697  28.8435287  79.7094498  23.4661312  71.3873596
  79.5634079  23.4187622  72.3321609  79.1569901  22.7737255  71.0245895
  73.7493591  63.7797394  47.6078148  73.0573807  63.1453056  47.7946053
  74.1095657  63.5004158  46.7661171  66.7588272  54.0276642   3.8430448
  66.4703979  53.6452026   4.6717577  66.6031647  54.9665451   3.9455278
  58.6752014  41.9350128   5.6673779  58.9293404  42.5555038   6.3504882
  58.0821648  42.4303780   5.1024408  57.4991989  25.7133770  65.4042892
  58.1155128  25.2702751  65.9874268  57.1205750  26.4099655  65.9406128
  18.4192581  67.3431091  10.9765110  19.3716011  67.4353714  10.9489317
  18.2672272  66.6032410  11.5644836  10.4022589  54.3331604  41.3619576
  11.0765924  53.9858856  41.9458313  10.7716627  55.1510925  41.0291519
  30.8690605  63.5801544  12.3371019  30.1815586  63.2888451  12.9360275
  30.6279469  64.4794540  12.1149511  50.4752846  23.0582924   7.6058607
  51.1158524  22.3652935   7.4456925  49.6577225  22.7172222   7.2432342
  78.7118607  54.0322533  28.3470097  78.1184006  53.2812920  28.3374176
  78.1373062  54.7927208  28.2586040  21.9212399  45.8900757  17.0869675
  21.1207676  46.3784637  17.2792015  21.8803253  45.7243156  16.1451168
  68.9273682  28.8608418  36.5305901  69.3887024  29.1430683  37.3203659
  68.0185547  29.1229420  36.6775131  45.2377968  48.8575935  51.2278671
  44.5766373  48.2762108  51.6034851  45.6407051  48.3422585  50.5290680
  20.5888023  50.6466103  12.1994381  20.1541500  50.4905090  11.3610220
  19.8868313  50.5886307  12.8475952  74.7417603  27.4440022  65.6245956
  75.5496902  27.9406128  65.4947433  74.1303711  28.0759277  66.0028915
  38.9750137  53.6043510  -0.2806525  38.8306923  54.4703331   0.1007619
  38.9467087  53.0060463   0.4659810  22.4513721  41.1959305  87.0744095
  22.6702805  42.1267052  87.1187744  22.2447376  41.0421600  86.1525192
  51.2660103  55.2743874  74.0310593  52.0646286  54.7489471  74.0795822
  50.5627365  54.6326485  73.9320297  50.8117256  47.8253059  36.1086845
  49.8978119  47.7526131  36.3838310  50.8586807  47.3190575  35.2976723
  62.8761864   4.1260738  62.8862076  62.1817856   3.6050968  62.4829445
  62.4917831   4.9962292  62.9924927  67.3483276  25.4507847   5.6681809
  67.4227295  24.7038574   6.2621469  67.3595428  26.2160168   6.2430935
  40.8271103  57.0765533  77.4878387  40.5080528  57.4091797  78.3267593
  41.5864716  57.6234283  77.2865219  19.3917542   2.9856184  27.3879051
  18.8693848   3.3458261  28.1045723  19.9619465   3.7067087  27.1211815
  55.1775436  38.1693611  38.6060486  55.9403458  38.4704857  39.0996971
  55.4190712  37.2944145  38.3021317  25.6455669  30.8662586   6.6511579
  24.7107124  30.7761917   6.8359966  26.0741310  30.3263760   7.3153052
  12.9189930  63.6769485  81.0833817  13.7143068  63.6445694  81.6150360
  12.6899052  64.6057816  81.0514297  52.4370804  32.3217010  78.3922348
  53.3403473  32.0118256  78.4579315  51.9823036  31.8891239  79.1149292
  61.9541092  29.6342411  58.6234283  62.3595695  28.8509426  58.9952850
  61.4784813  29.3163948  57.8559761  62.2661285  12.8032942  58.3925705
  62.1631126  13.1257563  57.4972267  61.6519279  12.0718727  58.4558716
  20.4116840  45.2416229  41.5544701  19.4662952  45.3336411  41.6728020
  20.7780514  46.0483284  41.9167290  58.7847023  39.3489380  14.8633022
  58.7860413  40.3010254  14.7645235  59.5906868  39.0624390  14.4337225
  60.8959885  36.1611176   3.8073311  60.8259277  36.9961472   3.3446784
  60.1063423  35.6815605   3.5569053  72.0891953  12.1790819  73.2007828
  71.4324646  11.5033045  73.0326767  72.8173676  11.9548073  72.6213913
  39.8221130  67.8056030   1.4590042  40.5159531  68.4524918   1.3311442
  40.1492996  67.0153275   1.0292956  79.1619415  68.4081726  22.9504604
  78.9116516  67.7946548  22.2596703  78.3339081  68.6576843  23.3607502
  16.4142914  47.5572281  30.8440762  15.7737722  47.9592667  30.2572784
  16.0577049  46.6883240  31.0286884  31.7093697  63.9135933  66.8418274
  31.3120670  64.7828598  66.8944016  32.6177750  64.0487289  67.1115875
  34.1395493  66.9193726  75.3238297  33.7721176  67.4559250  74.6214447
  33.3827667  66.6651535  75.8519211  62.7214394  52.7860336  68.6832275
  62.6168404  51.9585266  68.2136230  61.9365463  53.2875175  68.4625702
  80.2245331  47.2278328  52.9771538  79.7952728  48.0807190  52.9096947
  79.5458221  46.6442528  53.3162918  70.6836090  34.8370972  21.4534092
  71.2035751  34.0334625  21.4602776  70.5496750  35.0277824  20.5250072
  14.8699417  38.9451981  47.9653625  14.1314640  38.6151505  47.4535522
  14.8969879  39.8819084  47.7702255  83.8419495  32.0955963  71.3439102
  83.6493073  31.3978920  70.7175446  83.9410858  32.8805199  70.8051071
  40.8602028  54.5074959  36.5986290  41.5672951  53.8640671  36.6460381
  40.3697090  54.2668648  35.8126602  58.3520851  59.4977684  79.6974411
  57.8541412  58.7180710  79.9431152  57.6956291  60.1015625  79.3499832
  41.0391235  70.5002518  83.0942154  40.4016685  70.3869934  82.3891907
  41.8870583  70.5150681  82.6503448  67.5133057  31.2419453  24.8287945
  67.7021103  31.9762688  24.2445412  68.2435532  30.6372585  24.6971741
  74.9512405  28.7639580  34.8209419  75.3487778  28.1321068  35.4200745
  75.6918640  29.2537136  34.4633789  74.5112762  60.8844223   0.8281531
  74.5411224  61.4676895   1.5865320  73.5841980  60.6678085   0.7289315
  16.2280884  66.5891113  75.7522202  16.5575829  65.7120132  75.9480820
  16.3314018  67.0723724  76.5719910  19.8349018  46.3081322  27.9907970
  20.1130333  46.8687096  27.2664852  18.8785439  46.3342857  27.9603252
   5.4455438   4.9024444  89.1427536   4.9497886   4.9213018  88.3241501
   5.8255348   5.7781858  89.2128601  32.2397995   2.0840483  83.1320267
  31.4627399   2.1028576  83.6906433  32.0388870   1.4283777  82.4642181
  18.0415134  41.6820602  69.2139359  18.1703110  42.2494926  69.9739761
  18.8753681  41.2228203  69.1138458  54.7166443  27.5304184   9.4883146
  54.4922295  28.4494095   9.6343441  54.4812355  27.0934105  10.3067513
  20.0097141   0.6528245  57.8901329  20.3951225   1.3530244  57.3634338
  20.4873848   0.6859389  58.7189636  82.9248962  35.7542534  39.9748001
  82.2094879  35.5120926  40.5628395  83.3632812  34.9265518  39.7774086
  66.8064651  25.7777996   9.6810865  67.3375931  26.3500252  10.2348843
  66.7439346  26.2427006   8.8467064  33.0485802   3.5762522  14.6208944
  33.0485802   2.8798888  15.2776356  32.4113731   4.2121983  14.9461222
  39.9925957   8.7022095  77.0153961  39.1646957   8.8527966  76.5591812
  39.9768372   7.7717171  77.2393799  67.5626144  65.3919144  77.1240311
  68.2741394  65.7962494  77.6204834  66.8834076  65.2195129  77.7760925
  57.8780022  33.7409325  20.6689854  57.2376175  33.1962738  21.1266804
  58.5967178  33.1433754  20.4625759  34.0037308  49.6885147  58.6278076
  34.2165070  49.6223030  59.5587082  34.4589310  48.9491348  58.2248917
   9.7956715  45.1982002  21.3817101   9.0852938  45.2237206  20.7406597
   9.7648516  44.3103752  21.7381516   5.2891049  30.1469364  44.4689674
   5.6166868  30.1511917  43.5695763   4.5986724  29.4839611  44.4692612
  70.2115936  30.4540958  38.4717445  69.6850510  30.3845482  39.2680740
  71.0985413  30.6301594  38.7856827   0.3016284  55.6733589  81.8156204
   1.0467383  55.8443832  81.2396088   0.6752563  55.6731834  82.6968918
  52.4639206  14.5143728  68.5149994  52.7185135  15.3650036  68.8725510
  51.5632057  14.3888941  68.8136673  13.1088934  29.9740658   9.1010637
  13.0932369  29.5043793   8.2671680  12.1864204  30.0808125   9.3331871
  85.0128555  62.3877029  77.9700928  85.0360489  61.5796471  78.4826736
  84.1177750  62.4324417  77.6338501  64.4268341  31.8114262  76.9146881
  64.4028015  30.8826599  76.6843643  64.8539505  32.2322502  76.1685562
  46.5295486  65.6859741  11.7930851  46.1997566  66.4865036  11.3848944
  46.1739769  65.7061386  12.6815634  41.2252617  59.7320518  84.4050293
  40.5121231  59.2273560  84.0139465  40.9003563  59.9732018  85.2725067
  75.9067764  27.3873615  12.5388508  76.5861511  28.0541420  12.4384480
  76.3762665  26.5556221  12.4754725  77.0671997  21.0934792  37.4081154
  77.6812210  20.7952862  36.7370758  76.8145523  20.2958298  37.8730392
  57.9932480  46.4618721   7.7942247  58.3509712  47.3155823   8.0380373
  57.0716705  46.6345139   7.6015544  10.5731621  43.9978561  36.2817955
  11.3584871  43.5957794  36.6530533   9.8791828  43.7903862  36.9075623
  39.1891518  41.5186958  38.1877823  39.7292786  40.9061928  38.6871185
  38.3974075  41.6247406  38.7151566  55.9845047  61.6647911  28.7978764
  56.0840492  62.6160278  28.7595253  56.5830727  61.3341331  28.1280880
  49.0780983  39.8087959  66.9689941  49.9063835  40.2805786  66.8818283
  48.4206581  40.4965096  67.0741272  48.8925247  28.6521473   8.8709755
  49.5303802  27.9590340   8.7007904  49.0313606  29.2839260   8.1654177
  68.8779755   8.8467302   2.0471780  69.3687439   8.0637197   2.2967165
  68.5423813   9.1927328   2.8741550  82.9839020  66.4928131  27.9463615
  82.3064804  66.2724228  27.3070164  82.7592010  65.9770813  28.7208061
  52.3321075  49.4245987  71.4132690  52.3331795  48.6549072  71.9823074
  52.3210945  50.1680832  72.0160446  52.5274391  41.6694717  53.6689072
  52.8357239  41.8991928  52.7923126  52.4692764  40.7140846  53.6596184
   0.4684068  41.8195343  49.0929184  -0.2914461  42.3279648  49.3763885
   0.6112344  41.1886749  49.7985001  16.7305527  49.9209213  46.4189682
  16.7318478  48.9881973  46.2038956  17.5870609  50.0760918  46.8171501
  68.3340912  47.5002747  26.0997829  68.9700089  46.7851601  26.1209869
  67.8572617  47.3725319  25.2796898  12.1557140  38.5059052   1.1078845
  12.1803122  39.4517860   1.2525781  11.5360079  38.1798172   1.7604651
  58.8718567  26.4611015  43.1522789  59.3324814  25.7491302  42.7082596
  57.9576721  26.3560200  42.8887367  19.5071907  19.8136311  74.5385513
  19.8131065  20.6797256  74.2692413  20.3087864  19.3146915  74.6958160
  38.4849510  22.0901966  73.8181763  38.2697487  22.2205658  72.8946381
  37.7371674  21.6092453  74.1727676  35.9003906  22.7937222  11.3754158
  35.6555557  23.0356026  10.4822283  35.3664742  22.0234222  11.5698442
  70.1459274  52.9645462  22.5452766  69.9253922  53.8336716  22.8802643
  69.3006516  52.5664062  22.3373756   7.9646854  63.0728989  39.2762947
   8.1101856  62.1293144  39.2076607   7.8259597  63.3601189  38.3738022
  33.0094948  67.0995102  67.1967468  33.5545540  67.6442490  67.7645416
  33.6046371  66.4256668  66.8681412  46.1302032  36.9617805  73.1632309
  46.3112984  36.5702705  72.3087387  46.1181297  37.9043732  72.9970932
  82.9271393  37.7933960  89.2005615  83.6801300  37.2238426  89.0429535
  82.8785553  38.3473053  88.4214172  58.4391823  42.5584106  37.3389244
  57.5498161  42.5474968  37.6926765  58.3717995  43.0773811  36.5374527
  31.8117847  56.2386551  50.4563484  32.7569313  56.3541183  50.5543213
  31.5256634  55.8817253  51.2971649  -0.1150597  30.0750237  54.0429611
  -0.0946220  30.8460884  54.6097679   0.7997326  29.9318199  53.8003082
  69.0084076  24.9873161  61.1955147  69.2322617  25.8936195  61.4070244
  68.4699020  24.6956806  61.9311714  58.1632767  19.3558979  48.7200012
  58.3556900  19.1551743  49.6359253  58.7041321  20.1208687  48.5237160
  54.0205193  51.3633537   7.2074304  53.6406860  51.4401207   8.0826817
  53.3855286  50.8426666   6.7155943  76.3534317  14.8491573  11.3468180
  76.3446960  15.8060093  11.3225574  76.4016953  14.5866909  10.4275713
  70.2827988  48.8615723  31.1329308  70.7853699  48.9347038  31.9442921
  70.9424133  48.7146072  30.4550362  28.3281460   3.6931870  76.8090744
  29.0874176   4.1848264  77.1221771  27.6192207   4.3359594  76.7866974
  58.3852501  41.9813538  58.9182167  57.4813194  42.2482758  59.0852242
  58.8938560  42.7869530  59.0107346  32.6108360   1.8982726  58.5496750
  32.3393097   2.4859653  59.2547455  33.3102875   2.3716974  58.0992661
   1.5758941  32.8496132  52.9808617   1.9334888  31.9618835  52.9980888
   0.6770833  32.7519073  53.2952271  14.8729649  57.6830330  73.6944427
  14.8818302  57.6252747  74.6498566  15.3241978  58.5044937  73.4999542
  53.8838463  10.9001627   4.5620174  53.7818489  10.8001089   3.6155407
  54.7940598  10.6574488   4.7318115  63.8216476  43.1760864   4.6989541
  64.3998260  43.8054352   4.2678366  63.5744095  43.6014099   5.5200539
  80.9265213  43.0375290  78.6293335  79.9739914  42.9500885  78.5935593
  81.1086044  43.8610725  78.1767197  65.5988846  36.6790733  49.2627640
  65.2233047  37.1984253  48.5518227  65.2771912  37.0978584  50.0611153
  22.0875072  58.5028191  74.9851303  22.4494896  58.4915695  74.0990829
  22.4885521  59.2676201  75.3980103   3.1524634  55.1919632  17.3158855
   2.6053483  55.8295708  17.7745266   3.9115641  55.6953926  17.0216789
  63.4561729   5.3630471   1.4613259  64.1092072   5.9941206   1.1587902
  63.9052505   4.5184417   1.4266709  21.8733940   4.0632205  63.6155014
  22.5324936   3.4109130  63.8528099  22.3803921   4.8323684  63.3555031
   4.6147327  29.2235889  10.5054855   4.3044972  28.5553551  11.1165915
   4.5090241  30.0487442  10.9789572  57.1094437  11.1080580  84.0423965
  57.8955727  11.6090479  84.2597427  56.7583618  11.5393448  83.2633133
  38.5914383  69.4110489  62.5979843  38.3182945  69.6116638  61.7027855
  39.4481087  69.8288345  62.6863251  23.6152210  43.2143593   0.9405265
  24.3106117  42.9757271   0.3275681  23.0784855  43.8447838   0.4602011
  84.7363052  35.7845459  89.0206528  85.2313538  36.2840767  88.3713226
  84.7357330  34.8885117  88.6839600   1.4495559  17.7046089  44.4792519
   1.7857045  17.1783638  45.2047195   0.5887879  17.9997940  44.7761955
  54.6118851  51.3117828  78.3814087  53.9458961  51.9860916  78.2472534
  54.2603531  50.5372467  77.9423752  36.7734718  51.5271568  51.0371437
  37.3857841  51.0163689  51.5666771  35.9733200  51.0020027  51.0228729
  10.4796448  52.4111099  73.4368591  11.3869362  52.1081009  73.4720993
  10.4128914  52.8704910  72.5997543  33.3102455  46.2645569  38.6029968
  34.0627365  46.5922508  38.1104469  33.4330559  45.3155136  38.6246758
  24.9267769   5.0601144  84.0782089  24.4980087   5.5852346  84.7539597
  25.7363701   4.7563281  84.4887009  74.3536072  57.2170067  22.5898647
  74.4997940  58.1629715  22.5936966  74.9094772  56.8858948  23.2952805
  81.2429199  66.4645920  40.1704712  80.6906281  65.8934250  40.7042999
  81.1917496  66.0925598  39.2900124  81.4884567  53.2954712  48.1923370
  81.8277588  52.5939674  48.7482109  81.4951248  52.9258690  47.3093987
   0.5611482  55.5849876   1.7337768  -0.3857520  55.4466209   1.7121708
   0.7877864  55.5458260   2.6629343  81.4217834  46.1485214  44.5614395
  81.4419174  45.8900146  43.6400261  80.5215912  45.9777985  44.8384743
  13.7369146  66.1406937  77.8435745  13.7997017  66.7211838  78.6020737
  14.6114473  65.7606964  77.7597351  45.2150307  12.6983700  74.6408539
  45.3829994  12.7455072  75.5820236  44.3830681  13.1567717  74.5227890
  39.2715607  50.7388992  75.7383118  39.6302872  51.0700684  74.9149857
  38.3615913  51.0358620  75.7397385  29.1481838  69.8026581  41.8969536
  29.1812019  70.6407776  41.4357605  29.9712334  69.3708115  41.6681938
  50.7800827  27.2057381  88.9085312  51.4786186  27.8138885  88.6668015
  50.1214905  27.7545013  89.3343811  37.3644981  25.6009083  78.4124527
  37.5476341  26.2072926  77.6948166  37.2805519  26.1612282  79.1839600
  72.8771744  63.0581932  77.2786407  72.7923126  63.5651093  76.4711380
  73.1594391  62.1908302  76.9884033  37.2375832  53.6492805  29.1258373
  36.7658043  54.4197807  28.8096294  36.5496712  53.0230064  29.3511906
  51.3411446  26.8015118  15.4156055  51.5114822  26.9232235  14.4815798
  50.5594330  26.2499676  15.4466276  46.4828835   2.8713996  68.2619324
  45.9495544   3.6359448  68.4793320  46.1546326   2.1793265  68.8359680
  65.7109222  60.4522896  84.1079025  64.8509445  60.8428192  84.2633209
  66.1936874  60.6050606  84.9202042  55.3689804  55.9597321  50.0273170
  56.0964279  55.3377838  50.0120583  55.0291710  55.9089813  50.9207268
  50.8897934  19.1510715  73.5428696  51.2517052  18.8045540  72.7272873
  49.9747696  18.8701324  73.5372925  18.2966824  38.3930664  76.9258575
  17.4995155  37.9363518  77.1944962  17.9888821  39.0950623  76.3525391
  77.9852066  19.3267021  82.9075546  77.1696854  19.4529266  82.4225464
  78.2141418  18.4096203  82.7566223  35.3300095  67.7966843  38.4784622
  35.0158768  67.5113144  39.3364334  35.3166847  67.0036545  37.9425964
  70.4966507   1.7100646  24.2261333  69.9676514   2.2781682  23.6660881
  70.1614609   0.8292591  24.0586281  16.7742748  59.8115082  22.9656677
  17.0468636  60.7221222  22.8529167  16.1412716  59.8380737  23.6831875
  71.0212402   7.0997219   3.0534995  71.6406174   7.7973094   2.8390796
  71.2873001   6.3649416   2.5007408   5.7510233  55.2530251  65.9038239
   6.4409518  55.9138069  65.9638138   4.9757638  55.6827240  66.2651596
  52.7123146  49.9950371  60.8792000  51.7799377  50.1628609  60.7423134
  52.7886658  49.8178635  61.8167572  38.7652817  61.8842773  85.6811676
  38.6344910  60.9402428  85.7701950  38.8974228  62.1933441  86.5774078
  10.1937208  48.8763275  71.9040756  11.0635395  49.0308304  72.2725525
  10.3622122  48.4609528  71.0583191  34.2822495  66.3969345   6.2282386
  34.2072144  66.6089401   7.1586452  34.7341652  65.5533218   6.2105021
  12.0874691  66.3105011  52.8633537  12.5678759  65.5481110  52.5405502
  12.3668251  66.4015274  53.7743454  43.0744705  66.9237976  41.8595428
  42.6727676  67.0915527  41.0070610  44.0121307  66.8674927  41.6755600
  58.4446869  52.4178352   2.7702227  59.2361031  51.9054108   2.9354973
  58.6569138  53.2954788   3.0879195  20.9028587  41.0277405  61.1369591
  21.7953663  41.3244934  61.3147240  20.8489494  40.1676941  61.5536690
  44.7899895  63.5845680  10.9419165  45.4754944  64.2492905  10.8751326
  44.0442467  63.9618492  10.4752712  22.8526611  65.9808960  52.3034859
  23.6674156  65.4933853  52.1820717  22.6992893  65.9595947  53.2480774
  84.9382324  57.3887863  45.6726837  85.0026321  57.8319054  46.5186920
  85.6175308  57.7972107  45.1360550  34.3656769  71.2345581  87.7193451
  35.0024261  71.6232224  88.3191071  34.0151978  70.4824600  88.1965714
  20.2004108   0.8837702  29.1284637  21.0917377   0.5424478  29.2010193
  20.1880627   1.3449295  28.2897663  42.5716248  48.9095764  21.6924381
  41.9756088  48.8957787  20.9435692  42.2356873  49.6089134  22.2530670
  61.9567451  31.2644463  65.5206451  62.2550278  30.5833817  64.9178085
  61.0376625  31.4016972  65.2911224  14.9243212  33.8449745  27.3592072
  14.6226263  34.4563980  26.6873646  14.9110498  32.9902344  26.9285374
  81.8973999  53.1026230  29.2897263  82.2475662  53.0328178  28.4016151
  82.6678925  53.2396927  29.8408909  57.5630226  30.2113209  44.3737564
  57.4514313  30.9118729  43.7310982  58.1432190  29.5826206  43.9444084
  57.9513092  51.1392708  69.7003860  57.5491905  51.7988167  69.1351166
  58.1585197  50.4134827  69.1117249  79.6552048   8.6248970  40.6802521
  79.6707993   8.6934719  41.6348648  80.4518204   8.1412468  40.4618225
  60.7089958  64.2371368  76.5921631  60.3454857  64.7335587  77.3254166
  60.3630600  64.6726761  75.8131409  34.9715118  40.4702988  84.7426376
  35.1676788  41.0100517  83.9768600  35.8294907  40.2297630  85.0922699
  84.9316940  43.8724709  57.9796257  85.3057709  43.0243187  58.2182426
  83.9864960  43.7220116  57.9658089  54.8040733  23.4738617  11.7968273
  53.8877907  23.7143230  11.9340744  54.9476166  23.6025505  10.8592424
  44.5373154  25.7874908   8.8820877  45.0362549  26.4851532   9.3070126
  43.6473427  26.1340961   8.8184700  70.0890961   5.6142888  54.9851685
  70.0415039   6.1934118  55.7458153  70.9745102   5.7396049  54.6437569
  64.6088028  33.1867371  81.4305496  64.3390579  32.2683868  81.4405670
  65.3495712  33.2121925  80.8248672  80.0249557  35.3169632  70.5986710
  80.5416260  35.2319908  69.7973785  80.5637207  35.8593788  71.1746521
   3.6041963  50.6465683  40.6786652   3.1426585  50.7705078  39.8492966
   4.5122271  50.8789825  40.4845123  85.8757248  64.2060394   0.7898381
  86.7725601  63.8715134   0.7873243  85.3530045  63.4873390   1.1454599
  16.7647305  34.8147697  18.2343311  16.5657501  35.2117958  17.3863869
  15.9427271  34.4068222  18.5065861   5.9939861  37.6133270  68.2591019
   5.5118909  38.0871239  68.9368439   6.0951366  36.7289391  68.6110382
  50.3813858  25.3100071  21.8612194  50.3266907  24.7820702  22.6577873
  49.8773270  24.8182602  21.2128849  69.7020645  70.8228149   1.0063254
  69.2065048  70.0233841   1.1840068  69.3416977  71.4681549   1.6145169
  64.2840652  13.0340481  74.5491180  64.6670914  12.3440933  75.0908585
  63.6130638  12.5880508  74.0323257  82.7618027  26.8792496  26.1763706
  82.8052750  27.6768570  26.7037849  83.3255615  26.2571011  26.6360855
  14.1734638   4.6387324  71.8491287  13.7392445   4.6234260  72.7020340
  13.4595079   4.7328424  71.2185364  56.7381248  64.1852798  27.9562702
  57.4931488  63.8171921  28.4152718  56.5955772  65.0352020  28.3728504
  53.6092491  64.7492065   4.4808097  54.3985786  64.9219513   4.9939847
  53.7355537  65.2461243   3.6725087  42.2055054  59.1626472  21.1759338
  41.8708954  58.3642998  20.7673874  43.1456718  59.1474266  20.9968147
  50.7999954  50.2578011  27.7152138  50.7740211  50.9904175  27.0997219
  51.5432587  50.4511909  28.2865200  74.9309235  18.4884338  30.8570061
  75.8111649  18.1702614  31.0574322  74.3652191  18.0398369  31.4854774
   3.5483851  47.5328178  12.6669407   3.4252610  48.4729919  12.5360174
   2.9146676  47.1238976  12.0775185  12.2394161  49.8384056   3.1910424
  12.2522964  50.7876091   3.3138213  12.6888342  49.6985893   2.3575521
  66.8442764  12.5443859  64.4448395  66.9108887  13.2134390  63.7635460
  66.9520035  11.7156830  63.9780655  40.3623505  71.3902969  46.7585983
  39.4735489  71.7432785  46.7994690  40.2413979  70.4421463  46.7075195
  18.5825100  39.2572708  55.0364380  18.1297092  38.9934158  54.2354507
  17.8874760  39.5832710  55.6081772  82.3437195  18.9202595   5.8247843
  82.6862030  18.2312889   6.3942165  81.8195496  19.4721661   6.4052000
  15.8886042  69.6591873  36.6759071  15.1361408  69.1878891  37.0335541
  16.1810398  70.2224808  37.3924370  41.1063919  61.3992004  26.9143448
  41.5222321  62.0778999  26.3826771  40.9755630  60.6683311  26.3102360
  60.6954422  11.1183062  34.4148903  61.1437988  10.3926582  33.9805603
  59.9327545  10.7149067  34.8293877   0.4141821   9.0601873  71.5481567
   0.7026513   9.3828173  72.4019318   0.6637583   8.1361036  71.5445099
   2.9372098  55.1654015  62.0676918   2.2867842  54.4632454  62.0552063
   3.7306030  54.7509384  62.4067802  51.7518311  68.6219406  59.5665932
  51.8490219  69.1560364  60.3549614  52.5132713  68.0419617  59.5748367
  53.8023148  29.6209984  15.6567564  52.9017563  29.4769249  15.9473906
  53.7426071  30.3571301  15.0478411  73.0636215  42.7671127  22.0008965
  73.1779022  42.6195488  21.0620689  72.1230240  42.9083099  22.1084080
  46.3581963  36.6224403  60.8318176  45.9239349  37.1934433  61.4655342
  46.0953522  35.7380562  61.0867920  56.9758263   7.4837341  85.7055283
  57.3900375   8.1410093  85.1463776  56.1191559   7.8547111  85.9170151
  49.2397766  55.2225227  25.5944424  48.5955276  55.5305138  26.2318726
  49.5680656  56.0208893  25.1808319  59.0035400  37.9139290  21.7286129
  58.1028748  37.9834328  21.4120598  59.3695793  38.7895050  21.6036377
  40.1511574   5.5069079  71.8086548  40.4129181   5.6429749  72.7192612
  39.8560982   6.3681660  71.5130157  39.6008797   6.1686897   4.9868922
  38.9581070   5.5576429   4.6267614  39.3217125   6.3038406   5.8924479
  20.0427818  35.3181419  74.2807541  20.1603928  34.5224686  74.7996902
  20.7745762  35.3120461  73.6637650  15.1989336  45.2648621  31.5298862
  14.4145393  44.8545303  31.8940067  15.8725376  44.5872612  31.5877457
  72.5610504  59.3582191  29.0328999  72.3960800  59.7017746  28.1548424
  72.3223648  60.0758591  29.6196327  36.0208244  29.5815144  64.7705612
  36.2961922  29.8719368  65.6400833  36.8333130  29.5285397  64.2672882
  85.6721954  49.2482567  48.0496750  85.4848557  49.9291115  48.6958733
  85.2989883  49.5828209  47.2341919   0.2433768  15.6183548  36.8028259
   0.7177825  15.3963327  37.6040001  -0.6304003  15.2494335  36.9318314
  23.2301712   1.0905433  11.3279667  24.1142921   1.3763980  11.0980768
  23.2519360   0.1390580  11.2258205  60.6281471  37.8504677  66.7800140
  61.5236588  38.1816750  66.8478012  60.1108017  38.6111679  66.5155945
  41.4935951  68.8523560  46.9337425  41.5184898  67.9335098  47.2008438
  42.1028862  69.2909851  47.5275421  16.0460529  55.3240547  84.5573807
  16.0369377  54.3789024  84.4062653  15.1441050  55.5370216  84.7968979
  33.7477379  29.4046021   5.2584977  33.5903168  29.9622135   4.4965792
  32.9747658  28.8421516   5.3074708  36.9904785  61.7242241  15.4981594
  36.2296219  61.6861038  14.9186115  37.4800034  60.9249992  15.3036489
  15.7858868  67.1055222  82.4979401  15.4850702  66.2268295  82.2663269
  15.8608942  67.0892563  83.4520645   7.7721639  67.0581360  86.2145157
   7.7722249  67.1908188  87.1624756   7.2658086  67.7936478  85.8697586
   8.8995285  56.8835068   7.3267322   8.0478983  57.0118790   7.7444377
   9.1881437  57.7662544   7.0950174  12.4288340  43.1390076   9.1734972
  12.0936146  43.3134003   8.2940378  13.3790340  43.1008606   9.0644331
  64.4951248  48.1813393  32.3808632  63.6364822  48.4008827  32.0192490
  65.1081085  48.3597565  31.6676674  44.5231438  62.1280670  13.4671984
  43.6080093  61.8559875  13.5359707  44.5659637  62.6193085  12.6467838
  64.7807617  38.4802933  31.4990520  65.2453766  37.7051010  31.8144131
  63.8591461  38.2217827  31.4944191   4.3159471  35.8991318  82.2639160
   4.2917814  35.6492538  83.1876068   5.2474275  35.9975395  82.0667038
  55.0344009  70.8035660  80.6722488  54.4422760  71.5222092  80.8940048
  55.3828125  70.5116730  81.5146561  40.3129425  66.0905075  42.9276276
  39.7059784  66.8240204  43.0265541  41.1256866  66.3961487  43.3304443
  50.4758873   5.4656649  31.7675915  51.1813011   6.0899525  31.5976391
  50.7424011   5.0154996  32.5691872  56.6263962  52.9513588  37.0186920
  56.3805084  52.8321419  36.1013298  57.2273369  52.2290573  37.2013969
   8.3645678  66.3345413   2.4233615   8.3653326  65.5921555   3.0275903
   9.1834612  66.7944870   2.6080112  82.3343048   7.7761197  43.6635818
  81.9194336   7.1774421  44.2846260  82.6091461   7.2157564  42.9378510
  55.5318794  50.3173218  38.2200356  55.6216469  50.1845131  37.2763557
  54.5890236  50.2741318  38.3793678   3.6533501  62.5694199  35.1788597
   2.9376888  62.9857445  34.6985092   4.3594556  63.2155075  35.1640968
  53.8274155  65.0754776  83.8829956  54.3297195  65.4915924  84.5835495
  54.3898468  65.1443939  83.1115341  78.7241135  35.9092979  45.5744553
  78.8466415  36.6705246  46.1416855  77.9466248  35.4733429  45.9232903
  61.2868271  10.8646479  37.3756752  61.0305557  10.2724991  36.6686249
  62.1454887  11.1952639  37.1118164  35.0119781  33.7623901  85.7597275
  34.2295341  33.8267174  86.3073349  35.3134308  34.6660004  85.6656570
  47.0888214  56.8021812  85.5660400  47.4361420  57.3480988  86.2714310
  47.7521973  56.8496780  84.8776321  77.3141632  10.6956787  12.5046129
  77.5248413   9.7839661  12.3030519  77.0022278  11.0583534  11.6755199
  22.2797127  68.7858124  41.1881714  21.5375385  68.1958237  41.0565720
  22.9022388  68.5442657  40.5023499  60.4583969  67.3349991  67.5899887
  60.9940720  67.9285355  67.0636826  60.0895233  67.8905487  68.2766647
   7.8896704  63.8558121  26.8881378   7.2574029  63.6745949  26.1927013
   7.4766684  64.5399628  27.4150143  54.7379036  21.0824986  28.5161610
  55.2595444  20.2838364  28.5952930  55.3559799  21.7420406  28.2011738
  71.8939209   1.2070436  32.9338799  71.8056107   2.1566310  32.8519249
  71.2023621   0.8530372  32.3747177  52.6765366  30.7501888  18.7722797
  52.4820290  29.8217278  18.9001808  52.1221428  31.0119972  18.0372028
   4.3539910  33.4832954  30.4441376   4.9863706  33.8270340  31.0751457
   3.5575874  33.9900131  30.6029148  13.9019604  31.9476395  63.4338112
  14.1575823  32.6588593  62.8463974  14.5966377  31.9189911  64.0917130
  57.8894348   5.7299428  72.0700989  57.3772469   6.4740477  72.3866501
  57.4018097   4.9608040  72.3648529   7.5544162   5.0029049  82.2996521
   7.3016653   4.1485715  81.9496994   7.7212563   4.8415165  83.2282791
  28.6181393  55.8027229  83.7008743  28.8617325  54.8846931  83.5820694
  27.8542995  55.7752037  84.2770920  27.4139023  35.4519730  88.9696732
  27.0464077  36.0833855  88.3512039  28.3366070  35.6962814  89.0415115
  65.6119385  30.5735073  70.6909637  65.9876938  29.8667202  71.2158432
  66.3561096  31.1378746  70.4813919  45.9836273  68.5765533  21.0825882
  46.1057549  68.3981705  22.0150566  45.1755257  69.0878448  21.0403709
  10.8273916  36.3728714  35.0110512  10.3882418  35.9364891  34.2810173
  10.1212540  36.5915565  35.6191444  83.6507645  19.5431595  10.9749918
  84.0624847  19.4279594  10.1185760  83.5697098  18.6552200  11.3231621
  19.6808128  60.3547745  87.1382751  19.5916348  60.9971237  86.4342346
  20.3100128  60.7480202  87.7430038  36.1569023   7.5793753  76.4471817
  35.3361015   7.8861318  76.0619202  36.5514069   8.3644915  76.8269043
  79.8972473   1.9372845  24.3509979  80.1533890   2.2324944  25.2247696
  79.5176315   2.7128201  23.9378796   2.7536082  43.5806694  82.6226044
   3.5017266  43.5617599  82.0257874   2.9843907  44.2419167  83.2750778
  31.3343620  18.0492706  71.9231415  31.0046082  18.8713779  71.5603256
  30.8301640  17.3702984  71.4748001  24.3332539   9.8995094  79.2373734
  24.0639629   8.9816628  79.2016983  23.5538406  10.3662453  79.5388794
  13.6870871  20.3762932  87.7883606  13.8781176  20.6324482  86.8860703
  13.0023899  20.9831181  88.0697556  27.6504440   9.6378288  73.0727005
  28.2870407  10.3504448  73.1288834  27.1504459   9.8254004  72.2783127
  16.7627716  36.0495605  65.8872681  17.2036514  36.8039818  65.4964905
  17.2971420  35.2989883  65.6278000  61.8171310   8.6200447  24.8687935
  62.5039368   8.0279350  24.5623074  62.2772064   9.2593641  25.4126949
  51.9246712   4.6784883  88.5084229  51.6238289   5.1364126  89.2932968
  52.8787766   4.6731968  88.5851212  39.1927872   5.2399750  82.6924286
  39.1369514   6.1944542  82.7380676  40.0771484   5.0669527  82.3696213
  64.2243576  42.4774284  26.9017849  63.6349716  42.3686562  26.1554413
  63.9623985  43.3101387  27.2944717  40.2004204  44.3154831  52.9825401
  40.7077332  43.5253487  53.1684227  39.5193901  44.0255852  52.3755913
   1.0005023   5.8447366   4.5266109   1.8322320   6.0138402   4.9691730
   0.5607281   6.6947737   4.5102696  54.6240883  44.4956779  15.0623856
  54.1445847  45.3070641  14.8951702  54.2659645  43.8714218  14.4312906
  24.7422199  19.5907593  15.3528566  23.9165668  19.7507038  14.8957520
  25.1413975  20.4567337  15.4363966  62.8302612  10.1285143  20.3562279
  63.4029922   9.4754915  20.7584381  63.2029915  10.2705622  19.4860992
  18.7892399   7.7809110  25.1660538  19.1583691   6.9142737  24.9960060
  17.8948441   7.7306814  24.8287640  28.9824104  65.7818451  70.7690353
  28.7680950  66.4502869  70.1182785  29.5183620  66.2405548  71.4160004
  63.4732208  37.1781540  24.6238518  63.9748116  36.3846016  24.8106880
  63.2833900  37.1265182  23.6870861  16.0204620  68.2498856  78.0626984
  16.7764301  68.5397263  78.5733185  15.4266090  67.8685684  78.7093582
   8.6391802  34.4948120  50.6275177   8.7734022  35.2667618  50.0776901
   8.1504068  34.8209953  51.3831215  38.9862671  40.0933189  61.2559090
  38.4162941  40.7703323  61.6206207  39.1280174  39.4838219  61.9802399
  29.7992229  43.7382050   8.3433561  29.1183472  43.0854492   8.5063028
  29.9165764  43.7298813   7.3934140  56.0232620  28.3138657  15.1287985
  55.1122742  28.5894184  15.2307825  56.1223907  27.5835400  15.7395592
  22.8278160  69.4780121  62.1462555  22.4146729  68.6647034  62.4362221
  22.4452629  70.1537704  62.7059326  42.8543091  53.0136070  26.3536205
  43.5521584  52.3757782  26.5033417  43.3060226  53.7891655  26.0209084
   7.0158086  37.1796761  19.0651169   6.6033201  36.4048195  19.4468021
   7.0350075  37.0021057  18.1247272  15.8612633  22.5299244  13.3171616
  16.0001831  23.4659615  13.1730480  15.7889719  22.4420547  14.2675743
  51.0183258  36.9594116  30.4544373  51.7144432  37.5331497  30.1343212
  51.0157204  37.0919075  31.4024200  36.0223579  13.9042177   5.4629388
  35.2497635  14.2546587   5.0196280  35.8758965  14.0982742   6.3887477
  14.6002960  48.2940865  11.7949123  14.7341528  48.1987572  10.8519249
  14.3903732  47.4105873  12.0975533  71.2180023   3.1339610  84.2677841
  71.4031601   3.6384773  85.0598755  70.4549637   3.5646410  83.8824005
  58.0415382  47.7091675  46.1335907  57.7372894  48.5635605  45.8275337
  57.3115768  47.1165848  45.9540558  59.9341278  29.9084358  22.5525455
  59.2793579  29.2437496  22.7663174  60.7700081  29.4441051  22.5965862
  55.9613876  70.4021530  28.4409809  55.8745880  71.2371902  27.9811821
  55.3287125  70.4562302  29.1572399  48.0060959  12.6845207  11.0079012
  48.0815239  12.0049591  10.3380222  48.6789474  12.4622374  11.6514025
  43.6834755   4.4934583  15.5583191  44.5335274   4.9177761  15.4417181
  43.0476570   5.2041783  15.4755831  79.1130066  17.8531723  55.4673843
  79.1864166  18.5846119  54.8543282  79.1651382  18.2595692  56.3324623
  82.9944992  43.0788612  64.9916611  83.1035080  42.1306953  64.9186630
  83.8343277  43.3912926  65.3282700  50.1608543  35.2377319  28.1896553
  49.8828278  35.7718201  27.4455585  50.3324852  35.8700371  28.8874836
   6.1910129  55.6039658   2.7046816   5.3523593  55.3786163   3.1073101
   6.4012222  56.4687309   3.0571339  29.6213665  24.9775505   9.6106091
  29.8465824  25.4281597  10.4245272  29.0447617  25.5876694   9.1507044
  42.5968933  57.8696861   1.7536339  43.4415741  58.3128700   1.6740279
  42.2004623  57.9521675   0.8862986  54.9478302   3.0273342   6.8952475
  55.3871841   2.2951434   6.4627013  54.2132874   3.2398314   6.3194661
  26.6327934  43.0226288  60.3122673  26.6391411  42.0743637  60.1819420
  27.1088333  43.1549110  61.1320953  42.3228378  15.3440914   9.7454081
  43.2117348  15.3100748   9.3919439  42.1331482  14.4421549  10.0037889
   3.3890009  70.7229385  29.2032490   2.4534447  70.7565308  29.4028416
   3.7754173  70.2564163  29.9443779  47.8488007  71.6062546  13.1667290
  48.2348518  71.9821320  12.3755856  47.7138443  70.6832352  12.9521208
  15.0520973  29.0215530  33.5175743  14.9562073  28.1070805  33.2515373
  15.9578257  29.0893860  33.8197136   2.1150715  29.1744480  18.0813026
   2.1110380  28.9019508  18.9988861   2.5804775  28.4732628  17.6252632
  24.3156204  48.9057503  56.3800697  23.5527878  49.3343124  56.7682076
  24.4922504  49.4065018  55.5836487  50.1005020   9.9217997  85.6999893
  49.8392220   9.2687235  86.3491821  49.5284691   9.7566605  84.9504929
  51.8125954  42.5269966  31.1438560  51.3636742  41.7895126  31.5571613
  52.0408745  42.2093086  30.2702446   2.0226154  12.4448404  48.6031036
   2.8297501  12.8665133  48.3082199   2.2874420  11.5537252  48.8311653
  64.7232590  67.5101395  57.6325607  65.6787262  67.5504532  57.5913734
  64.4581680  67.2157669  56.7611847  27.8741112  52.4190331  61.9643898
  27.3274422  52.3432541  61.1823120  28.5061722  53.1049271  61.7492638
   8.7169647  35.3655357  70.2117157   9.1496210  36.2025414  70.0430145
   9.1422300  34.7512093  69.6133957  42.7220116  44.5285339  76.0329361
  42.7166290  45.4824791  75.9542313  41.9326057  44.3251457  76.5346375
  50.9724159  39.9879112   6.6071353  50.1839828  40.3127365   6.1722851
  50.9645195  40.4118195   7.4653149  77.4099350  25.8647881  86.4854813
  76.5789642  25.9746342  86.9477081  77.8369904  26.7186737  86.5542984
  44.4470482  40.3027649  35.9325066  43.5517769  39.9693489  35.9921227
  44.9834213  39.5237808  35.7851257   9.4459829  31.6682987  62.7969627
   8.5591679  31.4895344  63.1097488   9.9340878  31.9077930  63.5847626
  50.5511742  20.8620815  76.1885605  50.7586670  20.1208611  75.6195526
  50.9407158  21.6178913  75.7489700  66.4027481  34.9984818  72.6004486
  66.1266327  35.5080490  73.3622513  65.6182709  34.5174561  72.3369293
  53.4973755  58.8126717  84.9493256  52.7474251  59.1322899  84.4476776
  53.7369652  59.5462914  85.5155716  55.4193764  70.3987198  60.4610443
  55.6328354  69.5072021  60.1856270  55.6178474  70.9395523  59.6966248
  67.9087143  31.2940941  62.9969826  68.1936493  32.1800804  63.2207527
  66.9849014  31.2694530  63.2463493  83.3912888  42.7060699  17.2711029
  82.5240402  42.4579468  17.5913315  83.4509354  43.6455193  17.4446239
  30.4468975   8.5610390  75.3062592  30.0885468   9.1636391  75.9579391
  29.8991966   7.7791495  75.3762894  84.7188950  59.8510094   7.7466583
  85.5003815  60.1783600   8.1920242  84.1033173  59.6581116   8.4538279
  21.8354950  38.2319794  67.5946884  21.8692093  37.3551750  67.9771881
  22.5064716  38.7251663  68.0666962  12.7914152  44.6969757  32.9484673
  12.2446823  44.3865814  32.2266846  12.2949543  45.4204369  33.3310394
  11.3492794  60.9562492  55.2607765  11.4670715  60.4840698  54.4365158
  11.4390678  61.8791122  55.0230865  46.0015869  40.1474342  11.1439781
  45.9770889  39.3109932  10.6792231  46.7564430  40.6050720  10.7738514
  20.6726685  34.8187599  78.2227020  20.8595219  34.2806473  77.4534454
  20.5551052  35.7024155  77.8740311  42.5419769   7.1416459  14.5584059
  43.3143845   7.3798385  14.0456867  42.7564125   7.4081335  15.4524040
  35.9571533  66.8391953  67.2993088  36.4115944  67.6392136  67.5632858
  36.0297012  66.8263168  66.3449478  78.0027466  23.2058220  27.6875477
  78.5429611  22.4679222  27.9702282  77.1476746  23.0430813  28.0857830
  52.6304398  12.6398735  76.9864655  51.8207550  12.2596273  77.3271332
  52.8921661  13.2791395  77.6490860  82.3642960  63.3362770  52.0759087
  82.9163666  62.5561790  52.1296921  81.4784393  63.0148163  52.2436981
  40.4802132  47.4466438  52.0052910  39.9576111  47.0532303  51.3064728
  39.8667831  47.5526924  52.7324028  69.2397995  27.6949654  62.0229263
  69.6451187  27.4153099  62.8437462  69.3159790  28.6490936  62.0310783
  68.0912781  64.5330276   5.7138014  68.3014679  65.4625244   5.8037624
  67.9202957  64.2384644   6.6083560  60.9825096  45.5319290  24.4831486
  61.1565208  44.8797035  23.8045063  60.8368721  45.0180702  25.2774849
  49.3159523  69.8996124  75.9582825  50.1204414  69.4486237  76.2144852
  48.6168823  69.4016724  76.3820648  52.7459908  12.2137499  19.0809307
  52.0482445  12.5253067  18.5044651  53.4885521  12.7866154  18.8894577
  21.2973270  17.5066566  32.9143333  20.3613625  17.6993427  32.8588715
  21.3458138  16.5507030  32.9085732   5.7095561  70.9067078  59.7404861
   6.5071230  70.6285019  59.2902451   5.9379563  71.7489243  60.1338539
  68.8562927  60.6904869  48.2840996  69.8071136  60.7564392  48.1956482
  68.5707626  60.2541847  47.4813881  52.3068466  42.1862183  21.8763542
  51.4573555  41.8381882  21.6052952  52.4939880  42.8803635  21.2443943
  77.2454376  14.9810705  28.1857510  77.5498734  14.5947809  27.3645744
  76.4737167  15.4907970  27.9390583  61.4573746  32.2648697   7.0191832
  61.5514412  32.3620110   6.0715828  60.7847366  32.9020157   7.2596664
  62.3702736  38.6675606  88.9186859  61.5450668  38.5617523  88.4453278
  62.9015617  39.2267036  88.3518372  40.9517899  54.6508179  55.3369675
  41.1138229  53.9410324  54.7155304  40.7119789  54.2069016  56.1503906
  76.1376724  64.7686386  26.5298252  76.8977509  64.7761612  25.9480591
  76.4680862  65.1119003  27.3600235  31.4388504  52.4758949   4.3159785
  30.7319012  52.4540024   4.9609399  31.8631134  51.6216469   4.3965597
  41.0336685  55.3217316  17.7932835  40.7991982  54.4520187  18.1171017
  41.9341736  55.2269936  17.4828796  82.4149170  10.5130405  42.7429352
  82.3195419   9.6021395  43.0211334  83.3586197  10.6719780  42.7627678
  39.7491302  36.4479027  78.7122650  39.6245651  35.9563141  77.9004440
  38.9108696  36.8865471  78.8576736   0.9327223  51.8006516  49.1258469
   0.1566773  51.5514183  49.6277122   1.4038689  50.9786835  48.9893761
  65.3183365  24.7574539  69.8759003  64.5061417  24.2855625  69.6917953
  65.5484314  25.1717281  69.0442352   7.9728184   5.5342803   6.6330585
   7.7925887   6.1789594   7.3172646   7.9242296   4.6897283   7.0809455
  10.8734407  32.5237274  71.2036896  11.1112776  32.7821388  70.3132477
  10.3159809  33.2352180  71.5187378  23.9200916  23.4396782  69.4093628
  24.2768745  23.6541977  68.5474396  24.5903034  23.7341690  70.0260696
  20.6702251  41.2221756  51.5079880  19.9644794  41.8688164  51.5108757
  20.7471523  40.9556885  50.5918541  51.4386749   9.2732954  46.0966568
  51.4366913   9.3521223  45.1427116  52.2164078   8.7506723  46.2921829
   4.8264217  16.9132442  87.9303818   4.4938664  17.7299118  88.3027954
   5.7599254  17.0749378  87.7937851  20.9546356  45.9398727   7.7904801
  21.4131508  46.7259140   7.4936051  20.8696384  46.0552368   8.7368937
  39.0155029  69.8186569  17.6776924  39.1488876  69.4668350  16.7975464
  39.6939659  70.4869995  17.7738342  79.6880646  56.1584053  13.7450867
  79.4278030  56.7757759  14.4287138  79.3913803  56.5640602  12.9304371
  75.3456039  13.7563238   8.0359058  74.6048737  14.3566818   8.1202459
  75.7719269  14.0152245   7.2189279  60.9107666  56.7442360  36.3061790
  60.5954971  56.1085968  35.6636848  60.8853722  57.5829926  35.8456573
  76.5573425  18.9473629   3.4374743  76.5087509  18.9694786   4.3931842
  77.4920959  19.0170135   3.2435071  74.3900681  23.8837395  10.6442080
  73.5917511  23.3965549  10.8480854  74.1621704  24.7980995  10.8122540
  48.7040939  58.9267006  66.5721359  48.7462463  59.8782539  66.4772644
  47.9883156  58.6599617  65.9952927   3.2271888  68.6342010  16.5110168
   3.6692591  68.4126053  15.6914425   2.5596118  69.2719116  16.2582436
  77.7610703   4.5118399  -0.0599553  78.1804504   4.3010654   0.7742686
  78.0075150   3.7918539  -0.6405747  59.1399994  41.9932327  30.8812752
  59.8307571  42.1592255  30.2397690  58.7228088  42.8450851  31.0098476
  53.8453789  55.0435982   7.2265153  52.9937935  55.3221054   7.5633578
  53.6572189  54.2488670   6.7272892  14.9287767  62.9995117  40.5754356
  15.8600149  63.1645088  40.4277840  14.8554010  62.8703613  41.5210381
  19.1338310  66.6976852  47.2597389  18.5668201  66.8831024  48.0083046
  19.7938900  67.3905563  47.2818184  56.4033699  46.7214775  34.9163780
  57.3594055  46.7534103  34.8816223  56.1233902  46.9635124  34.0336189
   6.6169682  36.2567291   7.3104692   7.1665640  36.1653786   6.5321174
   5.9054661  36.8346596   7.0347934  39.3741188  61.4706459  62.1145782
  38.5285759  61.1421432  61.8090057  39.3723297  61.2974586  63.0559769
  83.8524323  33.9040222  11.9581270  83.9243851  34.2517815  12.8470135
  83.8266296  34.6802444  11.3986197  21.8920078  25.3127899  18.4094334
  22.8038597  25.5154400  18.2004108  21.3899479  25.7020607  17.6934452
  71.8317719  41.1859283  36.9240685  71.0208206  40.6898842  36.8121490
  72.5024109  40.6461182  36.5056419  57.7711143  58.7289124  18.1991291
  57.8446388  59.5394936  18.7028923  56.8319016  58.6269798  18.0451221
  65.4266739  13.5046368  84.7920609  65.9368591  12.8384209  84.3315125
  66.0829697  14.0661469  85.2046280   7.0928764  36.7365608  30.9484329
   6.3952923  36.8687820  31.5904026   7.2731380  35.7970390  30.9806976
  24.5841579  66.9379807  60.0509033  24.3084679  66.6083450  59.1955872
  24.0658474  66.4356613  60.6796036  22.9242172  70.7170486  52.2864647
  23.7076321  70.1925049  52.1211014  22.9079857  71.3548279  51.5728798
  79.8152008  50.5769653  16.8991337  80.0623093  51.3809662  17.3560238
  80.5060654  49.9529648  17.1217556  36.0858383  22.4446487  17.0126476
  36.4959602  21.9826260  16.2815056  35.2063713  22.6559200  16.6993866
   7.3220444  57.3885002  50.7016449   7.2303538  56.6098976  51.2508278
   6.7169628  57.2414436  49.9746742  61.2956848  70.9302826  85.8813477
  60.6719360  71.4939880  86.3389587  62.1065369  71.4384918  85.8595505
  10.2024794  54.3909988  69.5767975   9.8522596  53.5058365  69.6771240
  10.2444897  54.5260811  68.6301117  29.4107418  37.0396729  72.3518448
  29.9713764  37.7503395  72.6630859  30.0189819  36.3352852  72.1279831
  34.7460785  48.0314636  12.5797501  34.4623718  47.5132065  11.8266544
  35.4134331  47.4920883  13.0039482  31.4188156  51.2140999  12.9042835
  31.1659355  51.6909409  13.6947937  31.7277145  50.3665314  13.2243433
  47.1268883  29.7542152  48.6711998  47.5974083  29.0357246  48.2485733
  46.8193169  29.3849487  49.4990120  45.7663345  39.7329216  79.4349976
  45.3130302  39.2163467  78.7687378  45.3480072  40.5930252  79.3968430
  75.4323807  56.1253128  51.9947205  75.6359177  56.9792976  52.3761864
  74.4758911  56.0921860  51.9782372  52.7205811  56.2711601  16.9967213
  51.8483047  56.6649475  16.9795113  52.7618408  55.7454491  16.1978722
  18.8132191  25.3969173   8.7144871  18.0844707  25.9794369   8.5004148
  19.5010738  25.9811230   9.0335360   9.9734869  44.2262230  41.8623047
   9.7202721  44.5869713  42.7119980   9.5444307  44.7950668  41.2231178
  73.8681335  60.5984573   6.6149058  73.5976868  61.4743004   6.8905768
  74.6083679  60.3863068   7.1834798  82.1565323  60.5291672  58.2610512
  82.9529572  60.0449257  58.0432167  82.3765793  61.4438744  58.0846367
  51.7396851  15.8638163   5.0374975  51.7974129  15.5858564   5.9516296
  52.3090477  15.2558422   4.5658784  39.7496185  47.6450500  27.3587933
  39.9029274  47.3839455  28.2668400  39.2709541  46.9099388  26.9757500
  32.3069077  17.1451950  80.2768631  32.1405144  18.0874023  80.2487488
  33.1773338  17.0440979  79.8916779  42.9215431  69.1770020  36.0086517
  42.9560585  68.8708344  35.1023941  42.3873749  69.9704971  35.9732094
  54.4119110  51.3903656  31.3962421  53.8142319  50.6845322  31.1496429
  54.0430984  52.1715240  30.9839268  26.1706676  59.5526428  46.4252930
  26.6340199  59.0570984  47.1005516  26.0774326  58.9372139  45.6981163
   3.4312449  32.7987709   2.4269531   4.3558760  32.6745377   2.6410890
   3.2764874  32.2138710   1.6852173  57.3018188  27.9439163  80.5158157
  57.5272141  28.2360096  81.3990555  57.7225304  28.5808258  79.9382553
  35.4112282  46.2821388  63.9821053  35.8392639  47.1269684  64.1209488
  34.5735283  46.5021706  63.5745735   3.9129674  65.4682159  41.9734917
   4.2078347  65.3995972  41.0654297   3.8664286  66.4097290  42.1397018
   2.6786556  13.9869614  64.9123306   2.0603387  13.2634935  64.8098068
   3.1719296  13.9985104  64.0921021  76.0418091  23.8930435   4.5626040
  75.7921066  23.2481194   5.2243853  75.2144547  24.1533813   4.1577058
  64.1258469  45.0221786  39.2796211  63.8475990  44.4604530  40.0029984
  64.9728928  44.6657982  39.0117683  21.8922119  57.4004936  63.0931473
  21.9511185  57.2954521  64.0427399  22.7117939  57.8301659  62.8484039
  56.7668381  70.6061249  39.2410660  56.5905304  69.7471161  39.6248055
  57.5287209  70.9309845  39.7208900   0.9987385  62.5738907  71.7268906
   1.3560382  62.8169823  70.8728027   0.1139549  62.9391098  71.7291336
  10.9197416  41.5208435  38.5955353  11.1121693  41.0328598  39.3962097
  11.3018627  40.9920731  37.8950958  64.5281219  69.1798553  42.0890465
  65.0034256  68.3500671  42.1310654  64.3000488  69.2786942  41.1646843
  12.1618223   2.1962142  76.0694351  11.2169342   2.3492453  76.0694656
  12.4341278   2.3792498  76.9686508  21.8593102  15.8993826  28.9370365
  22.1909313  15.6012945  28.0900402  22.5844440  15.7507505  29.5439301
  38.6015053  56.9625511  10.0195627  38.6908760  56.0100632  10.0512657
  38.1782913  57.1910858  10.8471470  34.4717484  66.9574966  40.9799461
  35.1352806  66.9568787  41.6698418  33.9942322  66.1375656  41.1061707
  45.1063690  58.3771515  23.4635334  45.6789360  58.3228149  22.6983891
  44.7873459  57.4832916  23.5879135  42.8949356  29.1566715  15.9911118
  43.4621544  28.7777500  16.6626110  43.3154297  29.9855404  15.7622223
  35.2412262  61.2500381  57.1112862  34.7516098  61.8008347  57.7221298
  35.0402794  61.6122055  56.2483330  31.7280140  55.2964897  88.0767670
  31.4503059  55.0167313  88.9490356  31.3619785  56.1755562  87.9793396
  14.8494835  63.3990211  43.2025604  15.3896408  63.8407707  43.8577843
  13.9537306  63.6623116  43.4135971  25.0446815  15.1588106   8.8245163
  25.0599689  15.4242115   7.9049730  25.8689137  15.4883680   9.1826572
  79.2086029  11.8298950   2.9634154  79.0277328  12.4312782   3.6858113
  80.1376038  11.6181803   3.0549002  43.9226646  58.3588295  78.7113800
  44.0481644  58.9527206  77.9712601  43.7289696  57.5122108  78.3089447
  26.4847355   4.9743609  88.2956924  27.0217037   4.4123015  88.8542480
  27.0940437   5.6329813  87.9622345   2.9720774   1.0522116  68.7945251
   3.0319266   0.1092922  68.9479980   3.8816469   1.3496512  68.7734375
  60.5230370  62.6416855  71.2924042  60.7607155  62.4832420  70.3788223
  59.7262726  63.1699829  71.2444458  11.1937180  46.4804001  18.6245308
  11.8399429  45.9287605  19.0653496  10.3489676  46.1054688  18.8736420
   3.5229874  67.6717834  59.0723457   4.4157929  67.7638931  59.4049797
   3.0136559  67.3838577  59.8299141  53.1607437  40.3773460  72.4319534
  52.4777679  39.7154350  72.3240128  53.9724350  39.9229889  72.2062378
  15.5753117  11.7769642  86.5266647  15.3223114  10.8755350  86.3275528
  15.3897200  12.2611132  85.7220612  69.4565582  70.4482956  11.3955603
  70.1096649  69.7494354  11.3597813  69.2501450  70.5357971  12.3261337
  11.5892200  44.5046730  51.4433861  11.1913862  44.6874962  50.5921898
  10.9280224  43.9957161  51.9124413   5.2268486  17.3377991  55.7343330
   5.2124114  16.6324501  55.0874100   4.4191689  17.2206364  56.2344894
  83.7028732  66.1123505  88.8700714  83.9396439  66.8483124  89.4344482
  82.7804108  65.9477386  89.0655136  70.4669037  32.2347031   3.6418250
  70.9032288  33.0625801   3.8429952  70.6946411  32.0596237   2.7287450
  49.3442917  23.3908672  70.7554016  50.0767670  22.7816010  70.8476028
  49.0401840  23.2655239  69.8564911  68.7725296  54.0310478  79.3828888
  68.9603348  53.6069069  80.2201843  68.6400528  53.3063850  78.7717056
  36.8373032  71.6755295  42.7637482  36.1746292  71.0071640  42.5894318
  36.7921143  71.8167114  43.7094002  78.1495667   4.0651407  51.2420464
  78.0843887   3.2391415  51.7213249  78.8031235   3.8972042  50.5631561
  73.0441284  26.6155567  59.9823723  72.6758575  25.7322540  59.9627113
  73.5817413  26.6333370  60.7741356  24.6159668  58.0976601  59.2928696
  25.2874737  58.4797440  58.7277832  24.6053257  58.6608849  60.0667572
  80.7264938  68.5524368  74.1535797  80.6625366  69.3477402  73.6247787
  79.8226929  68.2495193  74.2408676  46.6396179  38.7159195   4.5690255
  47.4957199  38.2894211   4.6066909  46.1655006  38.3684921   5.3245001
  11.7828789   5.2342844   4.3866735  10.8571730   5.4156847   4.2242103
  12.2201977   6.0735526   4.2431011  80.7814789  67.5350571  52.5288506
  80.5839767  68.4098511  52.8634415  81.6116028  67.6383514  52.0635948
  14.6186981  55.9691887  33.1351471  14.0045977  56.6715660  33.3490944
  15.0201244  56.2447777  32.3110466  53.2343826  16.4566574  84.4566116
  53.2995834  16.4977360  85.4106979  52.2937279  16.4710236  84.2799835
   8.6984415  36.1951332  74.9384995   8.1835804  36.9309006  75.2698517
   9.0275831  36.4953995  74.0913010  70.1352386  30.2932720  61.7417793
  70.3220444  31.0099945  61.1354408  69.4318237  30.6275349  62.2982864
  29.3966351  53.3356819  43.3217659  30.1642952  52.8711395  43.6551323
  29.0926266  53.8590012  44.0633507  52.0339928  63.1569176  22.4192810
  52.5656395  63.7298546  21.8667183  51.4260826  63.7485504  22.8627319
  59.4586754  39.4637413   6.3868113  60.3973274  39.2810402   6.3445697
  59.3820190  40.3834648   6.1329103  58.0593910  19.7126083  68.9739914
  57.6789780  19.5944672  69.8443756  57.3566284  19.4710903  68.3706512
  38.0724754  60.9958572  81.2923965  38.2189560  60.7489777  82.2055359
  37.7131157  60.2073402  80.8857880  73.8954544  48.9223480  58.5287743
  73.7201843  48.0209618  58.7989883  73.2260056  49.4407158  58.9752846
  85.6954269   4.2370586  70.5829697  86.0082703   3.3325551  70.5675583
  85.9120331   4.5504766  71.4610825  82.6899796   7.4728527  55.0908279
  81.8036804   7.7705126  54.8856354  83.0278244   7.1364136  54.2608261
  16.9425144   7.5457993  85.3540497  17.4826889   7.3766427  86.1259460
  16.1489277   7.0307350  85.4995193  26.3270149  63.8446007  62.3189278
  25.9267387  62.9795914  62.4070969  26.2970715  64.2134705  63.2016907
  85.5980301   4.6033902  44.9745026  86.0856857   5.3437371  44.6135178
  84.8742676   4.4718285  44.3620529  47.1046104  10.4952812  74.9018021
  47.3290329  10.1425076  75.7628632  46.4008064  11.1204605  75.0751190
  39.1170387  69.6141739  22.1141491  40.0685959  69.5706558  22.2083626
  38.8190536  70.0703888  22.9011116  84.6185455  67.7741928  46.3161469
  84.7618103  68.5359497  45.7545128  83.9598999  68.0628738  46.9478798
   5.2429023  69.3858109  79.2374954   5.6035972  70.0047455  79.8723602
   4.3046231  69.5747910  79.2252197  63.9062004  10.8088293  17.8827038
  63.6649780  10.0493155  17.3524380  63.8469467  11.5501966  17.2801304
  82.7275162  11.1469507  87.5544586  83.1136932  11.5925903  88.3084564
  82.2689133  10.3951702  87.9296112  76.4541473  37.0826530  43.4271889
  76.0383682  36.9062042  42.5832558  76.2154388  36.3334923  43.9730873
  68.0025177  54.8984756  88.5448227  67.8179626  55.8374252  88.5213776
  67.9859543  54.6742859  89.4752502  18.6898270  45.0251961  15.3640938
  18.9907894  44.4026566  16.0259838  19.4806767  45.2593193  14.8783216
  10.2998819  55.3677559  54.7807465  10.8911276  56.0982094  54.9626808
  10.8613920  54.5929832  54.8064919  36.3302231  54.0457153  50.4709587
  36.6121025  53.1994705  50.8182983  36.4128532  53.9545364  49.5217018
  61.8451195  34.3881760  11.1517057  61.0042725  34.2098198  10.7305222
  61.9495277  33.6801949  11.7873917  52.8708954  46.6096878  15.7666922
  52.8275986  46.9678421  16.6533051  52.2299919  47.1193085  15.2709484
  72.7301102  19.1665916  41.6621704  72.9864502  18.3188572  41.2990379
  73.5370636  19.5211353  42.0354691  50.4683113  34.0254173  62.8505173
  49.5254974  34.0338249  63.0156212  50.7996292  33.3078156  63.3904305
   6.0731359  53.5056458  52.5103149   6.5652895  54.1842804  52.9723473
   6.4837074  52.6848717  52.7823334  62.8862190  70.7330856  34.1086960
  63.4760399  70.2087784  33.5669899  62.0097961  70.4317169  33.8693428
   2.6621690  40.0524368  22.8683281   1.8854109  40.3490143  22.3940697
   3.0901837  39.4413986  22.2686062  13.9907446  62.9553223  78.5107040
  13.6053782  63.4530678  79.2317963  13.3416147  63.0083733  77.8092422
  52.9515610  16.5864525  87.5069733  52.7957001  17.0088902  88.3516541
  52.4816437  15.7545538  87.5648880  72.2245178   6.7713718  80.5618362
  71.8489761   6.2876821  79.8261414  72.9725800   7.2357249  80.1863174
   6.9536638  42.4889069  14.1852303   7.2017813  41.7836800  13.5874643
   6.8840046  43.2630272  13.6265583  39.9536476  15.8748970   2.8730483
  39.5685310  15.0286579   3.1006362  40.2455635  16.2378597   3.7092745
  25.5761852  67.4210663  81.7673111  24.9084625  67.1734390  81.1277313
  25.8571911  66.5915604  82.1535645  83.5947800  38.3806686  25.5716858
  83.7390442  37.9795113  26.4287109  83.6017838  39.3222542  25.7437363
  79.5299911  53.1142578   0.8482959  79.1620789  52.7237015   1.6409763
  79.5227585  54.0559578   1.0196941  74.4519272  59.2212257  87.2718811
  74.7531281  59.3051224  86.3671799  75.2424545  59.3364410  87.7991638
   8.2579279  47.6587830  30.2906227   8.7785873  48.3514748  30.6972256
   8.4809237  47.7059059  29.3609543  13.7800226  24.8412209  86.2589493
  13.3505058  25.3172207  85.5481949  13.5059090  23.9320793  86.1382980
  65.4442902  68.6613770  29.7807255  65.5215530  68.9878922  28.8842621
  64.6634293  69.0936508  30.1266060  26.3721523  28.9790173  12.3910017
  26.5406551  29.9212379  12.3834238  26.6910324  28.6718445  11.5423594
  63.7333603  58.8119888  53.5266914  63.9271240  58.2504692  52.7761040
  63.8875885  58.2542648  54.2891808  28.8866615  41.6486435  87.2504807
  28.8728218  42.0425301  88.1227722  27.9974289  41.3182144  87.1227493
  58.4151154  54.0296288   8.8364868  58.6412735  54.8797951   8.4592628
  59.1175804  53.8504219   9.4615135  29.9852467  33.8687973  12.1314068
  29.9122620  34.8028030  11.9350815  29.9561729  33.8219337  13.0870161
  56.9961243  51.7444305  11.9446802  57.2975502  52.5277023  11.4843998
  56.7830276  51.1240807  11.2475500  62.0165100  13.6029739  51.6364021
  62.8001595  14.1526184  51.6403580  62.3520584  12.7078085  51.5882645
  79.4899750   8.7395201   5.5080485  80.0905533   9.4828320   5.4530296
  79.6372910   8.3767138   6.3814912   8.8470545  29.6449528  86.4254913
   9.4481869  29.2199192  85.8137512   9.3904228  30.2786274  86.8939362
  25.1919823  47.0647278  31.7967987  24.6804142  47.6399002  32.3657494
  25.5462723  47.6464806  31.1242847  71.8351288  22.6168423  70.7352676
  71.8242874  23.1527443  71.5283127  71.2758560  21.8686314  70.9441376
  82.1247864  59.7625580  87.1604309  81.9796371  59.7289886  86.2148972
  83.0170212  60.0962944  87.2540817  43.1419449  41.8332405  73.6210938
  42.3462868  42.3628731  73.5696182  43.3672371  41.8292389  74.5513916
  79.1672974  21.8009090   2.4987776  78.2415009  22.0363827   2.4381287
  79.3813629  21.9076214   3.4256124  21.9969654  68.4357758  31.6052494
  22.5537434  67.6962662  31.3616104  22.4366055  68.8283081  32.3594818
  39.5441704  65.1472321  67.0402222  39.9103165  65.5052185  66.2315140
  40.2268105  65.2898102  67.6958923  55.7335968  26.3020554  29.9484615
  56.1010056  27.1522141  30.1902752  55.9856606  25.7196369  30.6650410
  80.3965836  42.4213867  67.3674698  80.1908798  42.7984619  66.5120544
  81.2979813  42.1109276  67.2818680  16.0963993  52.3207016  25.9449215
  15.4883289  52.9620056  25.5772133  15.5359001  51.6090050  26.2540474
  33.7683296  71.7695236  80.5451508  33.6675224  71.1653976  79.8095551
  32.9367714  71.7144470  81.0160065  85.9178772  38.6570244  23.2824154
  85.6945267  38.6108398  24.2120457  85.1903992  38.2203636  22.8393230
  39.8438530  58.9074478  45.6990852  40.5218391  59.2752647  45.1322708
  39.6737823  59.5930519  46.3450356  67.4760132   0.1711655  74.0411682
  67.1276703  -0.1598125  73.2133102  68.3667603   0.4516853  73.8311462
  56.8672905  53.6177254  50.0569153  57.5958672  53.5226593  49.4434242
  56.1315765  53.1846733  49.6239929  75.5726166  69.4684753  28.2113361
  75.0269623  68.7587433  27.8725567  75.6496887  70.0813065  27.4800777
  38.1848297  51.7335243  47.5167847  37.6749878  51.0167961  47.1391640
  38.4361420  52.2705421  46.7653275  20.8464413  19.7199326   7.2458310
  21.6313534  19.3098526   7.6091228  20.1204834  19.2898579   7.6977730
  53.4140091  71.2565689  22.8959599  53.1106377  71.3879852  23.7942524
  52.6253700  71.3472977  22.3611279  22.9866371  15.3994446  84.7306061
  22.2087994  15.9527254  84.8018799  22.6519985  14.5054655  84.8016739
  73.8658829  45.2217636  52.5320930  74.7758179  44.9712410  52.3724632
  73.9249954  46.0625839  52.9857025  17.6296062  57.9814186  17.6116219
  17.3989697  57.1796570  18.0808926  18.1526356  58.4829559  18.2370281
  77.7105408  27.5057316  68.9445648  77.7332153  28.0037155  68.1274185
  76.8174591  27.6194935  69.2696686  78.2321243  66.0654907  43.7528915
  77.8392258  66.1243286  44.6237526  77.4856186  66.0021667  43.1571121
  56.7263222  61.0203362  64.4208603  57.2220078  60.2014885  64.4170456
  57.2398758  61.6137466  63.8728142  31.5184040  68.7468948  65.6037521
  31.9615097  68.0289688  66.0559311  30.7896690  68.9789963  66.1793442
   3.0431294  41.4828682  20.2071400   2.3129387  40.9466934  20.5162773
   2.7131639  41.9013901  19.4120331  84.9503250  59.3397064  18.3527031
  84.3599396  59.5625725  19.0724316  85.0520096  58.3897552  18.4117374
  71.6894379  66.2472382  16.3167896  72.6184540  66.4770050  16.3360176
  71.6619797  65.3360367  16.6086788  68.3654175  16.7847805  79.5555115
  68.8865280  16.5956879  78.7751846  67.5703278  17.1975365  79.2183151
  65.4438248  64.7261047  79.0630417  66.3036957  64.4949341  79.4143448
  64.8232880  64.4008179  79.7152328  31.5277290   9.7221479  89.1309128
  30.6900406   9.4399567  89.4981689  31.8743801   8.9420271  88.6979218
   5.9948072   5.8823843  14.0578051   5.6846910   6.7842813  14.1392965
   5.2291303   5.3462701  14.2640886  48.9726295  52.2178383  33.1707382
  48.5237999  52.9337616  33.6204453  48.3463821  51.9192352  32.5112801
  67.2309799   6.6328979  72.3372650  66.3273697   6.3491826  72.4759140
  67.7595673   5.8670506  72.5615540  12.4402819  49.8640137  35.4794922
  12.0629597  49.1260529  35.0006676  13.2176113  50.1043777  34.9752960
  54.5945129  39.0696869  68.6316986  54.2068138  38.8697357  67.7796783
  54.2078934  39.9095039  68.8796158  69.6850662  41.6872444  40.1364899
  69.0197067  41.0913696  39.7923088  69.6437988  42.4507065  39.5605965
   0.6049471  46.5485497  26.1294174  -0.2720070  46.9314194  26.1050663
   0.9905871  46.8845139  26.9385166  86.0163269  55.9134102  33.9768410
  85.4407654  55.8030815  34.7336731  86.8722153  56.1162453  34.3543816
  44.7754326  62.4706764  70.7229080  44.0900688  61.8027954  70.7438812
  44.6822624  62.8825760  69.8638992  43.6535683  45.9781036  48.6768074
  44.5262527  46.3414612  48.5264130  43.8064537  45.0473061  48.8395233
   1.6251905  59.9427681  72.4931946   1.3961660  60.7352867  72.0077133
   1.6091959  60.2115555  73.4117432   0.3928520   3.3935285  33.9081039
   0.7825646   3.5224383  34.7728195   0.9501644   3.8990681  33.3164406
  16.9311676  11.2001429  74.0206757  16.1690483  10.6267967  74.1024170
  17.6218491  10.6330338  73.6777802  86.3269424  62.3792381  67.8812943
  85.9012222  61.5700684  68.1645584  86.2597656  62.3637009  66.9265823
  57.4026756  28.4529114  40.8678246  57.0514565  29.3164387  40.6505699
  56.7899323  28.1005993  41.5133133   7.6089230  59.5444298  52.2629204
   8.0903330  59.2875061  53.0493469   7.3518710  58.7160072  51.8581085
   4.7275639  46.1669121  35.7111015   4.1626520  45.5174217  36.1297493
   5.6103897  45.8069077  35.7962265  36.9470825  10.2778149  76.9184113
  36.2759094  10.9396095  76.7517242  37.7645264  10.7732277  76.9692459
  24.0940247  44.7572708  57.8744316  23.9860630  45.0074120  58.7920418
  24.4930782  43.8878860  57.9085312  55.7300644  26.0548153  83.6257401
  56.0632172  25.1650276  83.5094833  56.5082588  26.6101074  83.5778046
   2.8986819  24.3465881  14.8172216   2.5225918  23.7837467  15.4939766
   3.7918985  24.0214977  14.7044706  16.4588509  69.4451752   4.8585749
  16.8304558  70.3109970   5.0273738  16.8036156  69.1997986   3.9999943
   1.3478760  58.7364540  57.6896400   1.6553608  58.7377281  58.5961075
   2.1304727  58.9229507  57.1709938  55.8818703   1.1411321  26.7755413
  55.8546371   1.4307166  25.8636036  55.4172707   1.8249756  27.2579689
  69.7977600  31.5172386  57.7090836  70.2683411  31.6556358  58.5310516
  69.7563477  32.3852425  57.3077240  86.1271362   8.4513378  60.9097710
  85.9007721   8.7336798  61.7959290  85.2850418   8.2595139  60.4970703
  28.5506458  11.4750843  15.2125616  27.7673092  11.9879122  15.4116144
  28.2471008  10.7999058  14.6057453  53.6160088  38.4613190  13.6055393
  54.5693130  38.5470581  13.6150274  53.3484344  38.6632462  14.5021219
   5.2773981  28.1828918  37.6782036   5.0501018  27.4170341  37.1509171
   5.9219441  28.6543198  37.1504288  53.0843163   2.0093949  49.3816605
  53.3310318   1.5351055  48.5876732  53.1256676   1.3518546  50.0760384
   9.8741035  51.7891884  77.0414963  10.4407911  51.1238899  76.6510162
   9.0836611  51.7772751  76.5017776  27.8932686  53.5523186  19.1316605
  28.7385521  53.2284698  19.4428692  27.2576103  52.9161911  19.4595528
  78.4601593  40.4706879   4.3147249  78.9026642  41.3194046   4.3042507
  77.6407394  40.6335564   4.7819052  34.9752274   7.3930297   6.9652410
  35.4746475   7.6495395   7.7404919  35.6305199   7.3208289   6.2712617
   2.2714248  58.4152412  28.2111263   1.4722669  58.2935448  27.6985149
   2.4042096  57.5753975  28.6507378  39.8131523  13.9920006  10.6788120
  38.9989510  14.3634768  11.0183878  40.4465561  14.1171503  11.3854742
  18.2860584   0.1719071  22.9898109  18.9337578   0.5327038  22.3843842
  17.6928616   0.9015335  23.1686840  69.6769028  60.4126434   2.2870753
  70.1903000  60.4907112   3.0911615  69.4034805  61.3084450   2.0895598
  52.4319153  60.1330872  25.0291920  53.2142715  59.8055840  25.4729233
  51.7328339  59.5420876  25.3089008  16.3524704  18.3110504  83.4004288
  16.3702087  18.4404316  84.3486786  17.0192318  18.9100361  83.0644531
  46.2643394  71.0927124   1.3628377  46.9220657  71.4640121   0.7748228
  46.7651405  70.7837601   2.1178095   3.3492875  65.6868057  77.4542618
   2.4857602  65.6809998  77.8672028   3.5396297  64.7642822  77.2841339
  17.5840702  36.4729958  28.2612076  18.0003662  37.2920380  28.5297184
  16.9089775  36.7406425  27.6376324  23.5980511  35.0828667  88.4289169
  23.1810379  35.7577820  87.8933640  23.5504036  35.4227753  89.3224640
  78.4699707   5.3362246  37.9552002  78.5519485   4.4203238  37.6894226
  77.6140900   5.6064639  37.6225357  25.4994640  21.7201061   5.9760704
  25.9542007  22.4947605   5.6453772  24.5717697  21.9530602   5.9393659
  84.7940140  41.3103447  63.0744476  84.3417130  41.9183731  62.4896812
  84.3654480  40.4680901  62.9222298  46.8895187   0.2628396  46.0212631
  46.7955894  -0.0101341  45.1086349  47.8350449   0.3260218  46.1562614
  14.9798298  16.9310799  10.2979269  15.7611618  17.4356995  10.5240059
  14.6443691  16.6195545  11.1385517  72.2457581  57.3024788  64.4692917
  71.5911407  56.7718277  64.0152893  73.0761642  56.8596344  64.2945328
  56.7117462  45.0772552  10.9330902  56.1798973  44.5841980  10.3083811
  57.4559059  44.5044975  11.1185884  85.6543121  31.7071018  25.1819267
  86.5395126  32.0098228  25.3844223  85.0809708  32.3079720  25.6578159
   2.7864778  31.2397881  43.7859154   3.1775150  30.7813683  43.0421600
   2.6395061  30.5553570  44.4387436  78.5210114  30.3863144  67.1425018
  78.4484558  30.9528923  66.3744125  77.9018097  30.7558002  67.7720261
   0.2229669   4.6740665  73.1815720   0.2863406   5.0858378  74.0433502
   0.8778484   3.9762189  73.2008209   5.1751523  41.6717148   3.9693105
   5.2517447  41.9343185   3.0520289   4.2324643  41.6473732   4.1335621
  36.2218018  46.3325081  41.3498039  35.5845070  46.7877007  41.9001579
  36.2213593  46.8224449  40.5274963   8.0119019  58.9515152  43.1730499
   8.6688461  58.6719971  42.5354538   8.3974218  59.7206192  43.5926704
  66.9372787  61.8781090   7.4980693  67.5347214  62.6043320   7.6766644
  66.7267151  61.5232468   8.3617620  44.2861710  61.1052513  42.6196289
  45.1292419  61.5545273  42.6797371  44.4205284  60.4320869  41.9525223
  54.2073364  43.4973946  57.7682953  53.7470512  44.3181877  57.5931778
  53.5099411  42.8566780  57.9074211  79.6764755  64.5513611  65.8533096
  78.7857666  64.5015411  65.5063477  79.9262085  63.6396675  66.0038910
  13.4611712  55.8843079  28.6616077  13.3371315  55.3669472  27.8658810
  14.3002977  56.3261337  28.5316563  78.2708054  63.2554817  44.5674400
  78.2509918  64.2124710  44.5713463  78.2888718  63.0200768  43.6398125
  66.2634048  26.2379570  78.5318069  65.4226303  26.0781384  78.1031113
  66.9128571  26.1109486  77.8402023  69.4941177  53.1663704  15.9799509
  70.2345886  52.5830498  16.1463184  68.7237930  52.6033554  16.0564404
  77.9666977  13.1956911  76.9873199  77.8825989  13.6504383  76.1492462
  78.8756485  12.8962908  77.0072098  42.2976151  38.1994820  36.3855247
  42.4592972  37.8965034  37.2789993  41.4886360  38.7073517  36.4475403
  66.6201401   3.3842692  60.3640366  67.3548660   2.8191166  60.6028023
  66.2979584   3.7238235  61.1989822  37.8856544  63.9450760  44.4999161
  37.7941170  63.3466873  43.7584457  37.5324135  64.7760162  44.1821327
  86.4109268  23.9438610  66.5596848  87.1911697  24.4414635  66.3150558
  86.0374222  24.4301376  67.2947083  50.0150871  45.1276054  19.8361149
  50.9638176  45.0246086  19.7616920  49.7539215  44.4769592  20.4877911
  25.0654659  50.5409966   3.3028095  25.4736023  51.3437920   2.9785028
  24.3782425  50.3472633   2.6652968  41.4201775  30.9364891   1.5257605
  41.9257278  31.2007809   0.7571251  41.9179649  31.2776661   2.2687511
   4.3058872  48.2439575  25.0907574   3.4411526  48.3770714  24.7024956
   4.3502388  48.8833733  25.8016796  34.0642815  38.2268143  57.4275436
  33.2309036  37.8408470  57.1578331  34.4149246  37.6128311  58.0727615
  43.1550064  51.5907288  53.7568245  43.5295143  51.2859497  54.5833168
  42.9892693  50.7899857  53.2592545  47.7223473  24.9287319  10.7465420
  47.3540955  25.7765007  10.9953566  48.3752785  25.1379566  10.0786066
  57.1099014  20.5640907  58.3177299  56.9476967  19.6993046  58.6946449
  58.0219574  20.5322762  58.0289879  42.3303261  32.9419250   3.4029753
  42.9913521  32.5369720   3.9644833  42.7584801  33.0255661   2.5509655
   1.3032601  47.4371796  68.8413391   0.6051741  47.7495079  69.4169769
   2.0274129  48.0448570  68.9915466  12.2495785  60.0981064  66.4612274
  12.7550135  59.5386047  67.0509109  12.8026590  60.1898117  65.6853943
  59.4169846  39.7716713  47.0965996  59.1627617  39.1966629  46.3748169
  60.2848282  39.4617386  47.3554764  84.7384186  37.3528938  16.1294575
  85.1572113  36.9645119  16.8975754  85.2035370  38.1786003  15.9948931
  78.4283752  68.4530258  66.8156586  78.4581070  69.4057541  66.9031830
  79.2399521  68.1496811  67.2225342  54.5406036  13.1531763  28.4163532
  55.4831314  12.9862366  28.4166260  54.3928604  13.6910753  27.6384907
   3.6839368   9.7498732  79.5690842   3.6645830   9.2683048  78.7420731
   3.5819879   9.0759287  80.2411270  21.8387604  25.9610214  31.7955875
  20.9871025  25.7670155  32.1870918  21.7476082  26.8498268  31.4521503
  76.7236328  37.7625237  75.1256027  75.8905334  37.6607513  75.5858383
  76.7502747  37.0273972  74.5131378  84.8896713  10.0880289  79.5891342
  84.5763397  10.9601879  79.3495712  84.2321854   9.7570143  80.2009964
  74.9359970  59.9364281  22.5339203  74.2394257  60.4349747  22.1067448
  75.7308273  60.1809502  22.0599060  73.9270096  57.2202721  28.0904732
  74.6790924  57.4858894  28.6196766  73.2237778  57.8109970  28.3601665
  57.8608322  64.5400009  25.2558784  57.4623985  64.9865952  26.0028934
  58.7366638  64.3008270  25.5591049  29.7464771   0.3098221  22.6683178
  29.6065121  -0.6349542  22.7318726  29.1286850   0.5988310  21.9967251
  48.4661713   6.1353679  83.9124146  48.7887611   5.6846323  84.6928024
  49.1504021   6.7711382  83.7030029  40.6441383  68.7134476  25.6807251
  40.6860390  69.5283737  26.1810894  39.7091675  68.5176392  25.6197376
  84.7375641   9.9255400  45.3411331  84.8433151  10.8625355  45.5057182
  84.5983963   9.8625498  44.3962021  29.7665062  43.0154572  37.8980370
  29.5148659  43.7237854  37.3054352  30.7231750  43.0437965  37.9125481
  16.1506138  13.6189566  61.8892632  16.5752182  14.4363432  61.6288338
  15.3187017  13.6197805  61.4158173  75.3726578  64.6629257  23.7158489
  74.7244339  64.4526596  24.3880291  76.0395508  63.9820786  23.8049183
  68.1512146  65.0011139  50.2244186  67.9426346  64.0680389  50.2700920
  68.2046814  65.1890030  49.2873650   3.7327387   9.6621475  17.0979156
   3.0890779   9.1335411  17.5696239   4.4017558   9.8647480  17.7518272
   6.4463181  47.3680763  41.0276260   5.9007263  48.0347214  40.6103172
   6.1513371  47.3527069  41.9381104  18.2163525  54.6536331  36.3887978
  17.5864525  55.3734360  36.4254036  19.0540981  55.0776939  36.2028351
  37.8994904  38.4357224  40.9033356  37.7328568  38.5072784  39.9634743
  38.6813354  38.9683380  41.0491982  82.9631805  28.7501869  77.3233643
  82.9124069  29.3705864  78.0505219  83.1998444  27.9186096  77.7340927
  77.7555084  46.8590622  81.5993347  78.1108704  45.9718399  81.5465622
  77.4550781  47.0499916  80.7107925  35.5876884   2.4046707  77.5457153
  36.2500076   3.0586815  77.7689438  36.0898056   1.6534189  77.2299118
  53.6245651  22.0771313  21.0801716  54.3644791  21.5240765  20.8293953
  53.4522095  22.6123333  20.3055191  16.3963203  63.4541550   4.5930109
  15.9909897  62.6097603   4.7903309  16.0563393  63.6869698   3.7290425
  52.9508705   8.4052868  49.0478477  53.5645981   8.1999159  49.7531090
  52.8550072   9.3570127  49.0833397  42.8986359   8.2323761   3.9236224
  43.6641693   8.3784237   3.3678684  42.7314072   9.0830564   4.3293438
   8.8277626   6.9288216  20.3620777   8.5240755   7.5092645  19.6641579
   8.0434761   6.7453451  20.8792458  60.1934700  35.3852768  33.3501701
  59.4347420  34.8916130  33.6613960  59.9834099  35.5994797  32.4412003
  56.5486794  29.2375011  47.4946404  55.7597694  28.6954784  47.4868088
  57.1426430  28.7872868  48.0952606   5.6302648   5.5105748  75.2773361
   5.9330831   5.2107525  76.1344452   6.1677423   6.2799339  75.0890884
  63.5169067  63.3553581  12.3617001  63.9693718  62.8325005  13.0236130
  62.5920715  63.1355286  12.4738827  59.8531761   0.3216853  68.3043518
  60.3148232  -0.1661578  68.9863510  59.2697906   0.9098890  68.7838440
  16.4496918  49.4525070   2.5543504  16.8897648  49.6728859   1.7333741
  16.2052364  50.2984543   2.9296463  26.3817139  26.3762112  78.5009155
  26.7487984  26.8535500  79.2449799  25.9446678  25.6203918  78.8932953
  36.5952530  10.1441374   5.5641470  37.3170319  10.3325157   4.9643297
  36.8444824  10.5751934   6.3816476  57.6099892  17.2426777  41.2431717
  57.1687469  18.0635796  41.4614716  58.3793068  17.5105724  40.7405624
  50.4238777  17.7237701  25.5590191  50.3174706  17.1991138  24.7655163
  51.0263634  17.2162132  26.1027374  85.8517609  59.8180351  36.7090607
  86.6884918  60.0343018  37.1205826  86.0752029  59.6267891  35.7981644
  38.7694130  46.9938278  39.7441864  38.0491714  47.4689064  39.3297195
  39.1126060  47.6023750  40.3984947  60.2327042  43.5153275  72.5475006
  61.0888138  43.1689682  72.7991791  59.7145309  42.7398911  72.3320465
  86.2309265  18.2232475  50.9642410  85.3286514  18.5251846  51.0689430
  86.2815781  17.9308891  50.0541916   2.5256422  45.0059357  69.7724304
   1.9488857  45.6207314  69.3189850   3.3893468  45.4170036  69.7367783
  35.9771690  39.5080452  59.2487221  35.8486938  39.0467682  60.0775452
  35.4827957  38.9946632  58.6097603   8.9712124  32.1061478  31.2925529
   9.4609165  32.6702919  30.6940880   8.0974340  32.0482216  30.9060478
  71.0739822  51.1288376  29.0636673  70.6343307  50.6533813  28.3587723
  71.7275772  51.6676216  28.6178379  76.4886856  32.1788483  51.5466232
  76.4856415  31.2918873  51.9065132  77.3919144  32.4773598  51.6529236
  74.7844009   6.8148704  62.3376656  74.4217453   7.7005949  62.3518562
  75.6667099   6.9229817  61.9825974  85.0160141  55.2077522  27.8875999
  84.6449661  54.6574402  27.1978779  85.6331024  54.6359863  28.3442249
  60.9153557  10.6576586  75.8571014  60.0775681  10.9712992  75.5165482
  61.5291138  10.7796583  75.1327744  65.2163391  50.0400963  73.8649979
  64.4924545  49.7434120  73.3134537  64.9338531  50.8942184  74.1919708
  76.4269104  44.0155983  67.7551727  77.0577240  44.7351570  67.7783966
  76.9643478  43.2245331  67.7954178  85.6427307  46.8078346   2.2336791
  86.0585785  47.5738792   2.6292474  84.7101135  46.9197006   2.4179087
   3.3638210  18.3517761  63.5969353   3.6165376  19.1495819  63.1323128
   3.1536164  17.7268696  62.9030075  32.3118477   5.6903486  72.9624100
  32.6121559   5.7921553  72.0592575  32.3706207   6.5701084  73.3349686
  63.6652908  44.8385201  71.2241821  63.5130310  44.0095367  71.6778793
  64.3706589  45.2560539  71.7184906  65.8655777  57.3572769  20.1148090
  65.5684128  56.7175903  20.7618999  66.7876434  57.5020752  20.3270950
  53.8628960  48.6194763  45.2840462  53.2753868  47.9578209  44.9189720
  53.4501686  49.4543762  45.0630646  37.4207115  56.8877411  25.0997105
  37.8289032  57.6909599  25.4228973  38.1116180  56.4519691  24.6007290
  72.4502487  26.6998444  70.0760727  73.1163406  27.3719540  70.2203522
  72.6148911  26.0490818  70.7584457  29.2333336  36.3184395  64.5477982
  28.8040504  35.8210907  65.2439270  30.0153618  35.8085556  64.3364258
  68.6312714  17.5985470  56.0084496  68.5590820  16.6830101  55.7386131
  69.5728073  17.7508793  56.0893402  65.4959183  29.2302742  10.0339222
  65.3313293  28.8184605  10.8821859  64.6252441  29.4434223   9.6981916
  69.3956909   4.6072626  72.9016953  69.7366943   3.8391874  72.4434280
  69.8846054   4.6320467  73.7242432  40.5889626  47.5160942  61.5606728
  39.9761391  47.0568848  62.1349640  41.1616325  46.8278198  61.2222061
  55.5235252  50.8411560  24.4688816  55.7282639  51.7476921  24.6980228
  55.3801003  50.4079666  25.3103142  68.7342682  14.4188194   4.6612577
  69.2274704  15.0873756   4.1858459  69.1923904  13.6007948   4.4683905
  43.3184509  12.6510229  22.9909134  42.7571869  13.2297096  23.5069904
  43.1231041  12.8765020  22.0813923  17.4272442  44.2684898  63.8292847
  17.1114140  43.3651428  63.8504028  18.2754059  44.2154465  63.3887863
  28.5257454  64.6902924   6.5264854  28.9097557  63.8250771   6.3844728
  27.5918579  64.5205078   6.6500092  86.1609268  62.0378418  85.2593613
  86.2416153  62.8420601  85.7721558  86.5638428  61.3635521  85.8063660
  26.8976402  61.6174240  50.1817894  27.0023308  61.7420769  49.2385292
  27.6685715  61.1142426  50.4439049  59.5783501  13.7222548  64.3675537
  59.9192085  13.3953724  63.5349655  58.7532234  14.1493807  64.1374130
  51.2156601  59.6060677  43.2225761  50.5973320  60.1615868  43.6972351
  51.8414345  59.3209724  43.8884239  65.3223877  55.0046539  50.4502258
  64.5085144  55.1028748  49.9560738  66.0057907  54.9667778  49.7810783
  60.8535080  51.4580765  85.6581955  61.4761505  52.1850891  85.6589890
  60.7884369  51.1994629  84.7388916   6.5460591  14.4623652   4.8942986
   6.6303463  14.4600878   3.9408197   7.4476171  14.4936838   5.2143679
  73.3043823   0.4064744  15.4394274  72.9439774   0.2188792  14.5727396
  73.9997940   1.0438066  15.2768202  30.4014263  64.2340851  51.0418854
  29.6691818  63.8620758  51.5334702  30.2185211  65.1732254  51.0137672
  58.6132126   9.4508429  71.9237595  58.1694908   8.7281094  72.3675995
  58.2398109  10.2392521  72.3177338  61.0374947  52.5331116  26.6512661
  61.3736687  53.1486549  25.9998627  60.9623375  53.0503387  27.4531784
  83.0506134  29.0502033  51.1173744  83.4950867  28.5777264  51.8212471
  83.4815445  28.7491245  50.3174438   6.7567415  67.7681885  16.8352203
   7.2548690  67.0616455  17.2461929   6.9420023  67.6794815  15.9003181
  59.5644226  43.6334877  56.4927673  59.4291077  42.7039490  56.3086891
  58.7868309  44.0637436  56.1371498  55.7399101  69.7648621  23.3189964
  55.4481392  69.0341644  23.8641472  54.9574089  70.3035202  23.2016430
  34.7935028  50.5022011   1.4228106  35.4351959  49.8064499   1.5656202
  34.3414726  50.2495651   0.6177793  61.5128365  64.6756897  33.3964958
  60.5989990  64.7862625  33.6589966  61.7423058  63.7949562  33.6929512
  61.2774620  38.4851112  18.7570686  60.9639168  38.4463387  17.8535099
  61.5287285  37.5845566  18.9622536   2.3173432  42.1604500   9.2619610
   2.4078879  41.6824837  10.0863266   1.9870788  41.5095291   8.6427231
  45.6850166  58.9274101  11.9717073  45.7796593  59.7831650  11.5534277
  45.3716698  58.3527679  11.2732563  33.7475395  62.4098473  28.4632111
  34.2026749  62.3972626  27.6212349  32.8284264  62.2613983  28.2408867
  71.9977036  49.5493469  44.1257324  72.9116364  49.7921982  44.2740021
  71.9200439  48.6706734  44.4973907  33.1085205  23.6735897   6.2031345
  32.9034424  22.7811832   6.4820352  32.4468231  24.2164841   6.6316876
  55.4633446  49.4531021  73.0754013  55.7826157  49.7413177  72.2202835
  54.5842552  49.1164932  72.9018250  32.1651955  41.7078247  53.4888000
  32.8857536  41.2755356  53.0303764  31.4882393  41.0347977  53.5595131
  86.4971390  67.0108261   3.6680148  85.7754288  67.6374359   3.6158788
  86.0885849  66.1994858   3.9697497  70.5284195  18.7046986  29.9389668
  70.9245453  19.4886265  29.5584755  70.3054733  18.1589031  29.1848888
  31.1392746  68.3722687  44.6104927  30.7904205  69.2621536  44.6618423
  31.5116634  68.3113861  43.7308044  77.4484100  47.3013306  65.8963318
  78.1876373  46.7588387  65.6215973  76.7195511  47.0075035  65.3498306
  48.3647728  56.0329170   4.4876857  48.0570869  55.7434692   5.3466291
  49.1174660  55.4717216   4.3012872   8.7707243  10.3444366  87.0033875
   8.0701780  10.9322176  87.2862015   8.3196735   9.5397959  86.7477798
  46.3624535  39.9903717  75.9765167  46.9017715  40.5749321  75.4439240
  45.4859276  40.3732109  75.9395828  85.6148071  59.5967903  78.9409332
  86.4540100  59.6970215  78.4915771  85.8449020  59.2531738  79.8041916
  52.6254234  36.1045647  12.8971567  52.7569008  35.5622597  13.6748800
  53.0371971  36.9405708  13.1157036   5.4017916  13.4567909  81.5143661
   4.8629656  12.8056374  81.9636917   4.8620224  13.7485676  80.7796936
  31.0891838  67.4128494   6.7149386  30.9941406  66.6764603   7.3190331
  31.9693184  67.3129654   6.3521447  45.4250221  50.6140518  20.5223370
  45.4712906  51.2474594  19.8061790  45.3515854  49.7649040  20.0866852
   5.5076275  27.9699764  55.6714745   5.6022201  27.3300991  54.9658966
   4.7816391  27.6383209  56.1998444  57.2539520  11.2195692  57.4591827
  57.7881088  11.8406506  57.9543228  56.4226265  11.6740589  57.3229065
   7.8618965  44.2272797   2.2839518   8.0665703  44.1035156   1.3571169
   8.4728193  43.6509857   2.7431767   0.4391665  65.0626450  35.9785500
   0.1535430  64.2159271  35.6354561   0.3819976  64.9674530  36.9292870
  17.0597115  34.5884323  21.6115036  16.9706612  33.9797668  22.3448715
  17.9774742  34.5152664  21.3496075  44.1602859  61.4387932  84.7922363
  43.2871819  61.3244820  85.1675415  44.0329742  62.0585670  84.0739746
  61.9322166  59.3261299  88.4918518  61.6680565  58.4108238  88.3987427
  62.5249481  59.4803658  87.7562485  70.0282288  15.2533236  17.2871990
  70.6482315  15.6567755  16.6797009  70.0439758  15.8210526  18.0576973
  14.2622919  67.2863922  59.0591278  13.5956059  66.6060257  58.9649658
  15.0910397  66.8080063  59.0827179  29.9993362  35.6494789  80.9123993
  30.0784054  34.9290085  81.5376282  29.0669384  35.8659668  80.9131012
  63.5102043  42.7473869  72.8140793  63.3562431  43.0368805  73.7133636
  64.2235947  42.1131859  72.8854370  64.6608505  46.6791496  19.5985832
  64.8108597  47.5089874  20.0514641  63.8878174  46.3096962  20.0253792
  16.2910538  18.7228451  74.7256393  15.4083176  18.4275913  74.5024033
  16.2794914  19.6643066  74.5531616  10.1910458  24.2300739  75.5224075
   9.6499500  23.7207565  74.9190445  10.4880505  23.5939121  76.1730347
  66.0315781  35.1377068  82.8383331  65.5766602  35.8590050  82.4035721
  65.5250854  34.3597450  82.6049423  67.5931778  17.1479225   9.9707251
  68.1015778  17.8992481   9.6653242  67.2998581  17.3974686  10.8470373
  20.6648922  21.1004124  71.7619934  20.3188801  21.1953697  70.8745804
  21.6064072  20.9782047  71.6401520  47.3522263  32.5824928  79.2928619
  47.2955894  32.4476624  80.2388229  46.4432564  32.5638924  78.9934311
   9.8237343  60.6399918  46.0012169  10.4386358  60.3637123  45.3216591
   9.7090950  59.8643036  46.5502129  10.3042965   7.8979340  65.6504059
   9.4559250   7.7682471  65.2265167  10.5813580   7.0180635  65.9059372
  54.8949165  38.8078041  34.5395012  54.2778549  39.0518379  35.2293701
  55.7081642  39.2532730  34.7770195  66.3562088  51.5867043  44.1196899
  66.4924774  51.7424927  45.0542412  66.9207764  50.8409462  43.9163666
  36.7887268  16.2712460  89.2188416  37.2264786  15.9378500  88.4356079
  36.7484741  17.2183170  89.0859222   4.0710263  52.3776245  21.9046726
   3.5821192  51.5673676  22.0484791   4.8503814  52.2876434  22.4530716
  81.3510132   1.0313541  22.0271645  81.0095825   1.1251487  22.9164677
  80.9467773   1.7483441  21.5385456  51.3821144  12.2036314  40.6716652
  51.9727020  11.4774609  40.4713745  51.8644981  12.7375574  41.3029022
  27.4237156  58.9781952  32.1143570  28.0088959  58.4245453  32.6313400
  27.8947124  59.1239891  31.2939072  43.0468063   1.8753903  16.8781643
  43.6547432   1.5643952  17.5489311  43.3542595   1.4675311  16.0686226
  86.5119019  14.9003696  57.3901443  86.7145233  15.8345137  57.3396339
  85.5568085  14.8649626  57.4429207  44.7451363  38.9905205  43.7468262
  45.6271172  39.1419983  43.4071274  44.8261604  38.1991730  44.2792130
  40.7116547  59.6828384  39.4784393  40.6908112  60.6114883  39.7095413
  40.6233635  59.6711540  38.5253906  54.6658058  58.5422058   5.8676486
  54.2480240  58.8964081   6.6526508  54.0806656  58.7907181   5.1520491
  33.3716431  50.6994972  66.1766281  33.9152641  49.9989548  66.5371094
  33.6084900  51.4734840  66.6875839  36.9664421  47.8846931   5.4720702
  36.4592056  47.2601089   4.9535742  37.6169968  47.3477936   5.9245620
  69.8527756   7.0550957   5.6537290  70.1616287   7.3161559   4.7861538
  70.4123459   7.5374851   6.2623458  69.6561813  11.4919071  62.3876457
  68.8841171  11.0358782  62.7225838  69.3086548  12.1126871  61.7472687
   2.4776318  40.2095909  36.4211197   2.6273644  39.3782196  35.9709740
   3.3236039  40.6561394  36.3870926  44.5299568  12.9858189  45.2990990
  44.1018143  13.5283060  44.6368027  45.1691322  13.5684309  45.7092819
  28.5221863  60.5541344  62.5578499  28.6676617  60.6318588  61.6149673
  28.4850082  61.4583130  62.8697929  70.9242249  67.0806732  46.3911552
  71.8044052  66.7887497  46.1538849  70.9982986  67.3437576  47.3085060
  51.8183670  28.6059132  69.0632324  51.2514343  27.9469242  69.4639206
  51.4782639  29.4412823  69.3837357  56.8158493  55.4292793  71.8707123
  57.1891174  54.8937302  72.5707779  56.0335274  54.9516220  71.5949478
  50.7144890  44.9022980  39.1417694  51.3718033  45.1747780  38.5015144
  49.9495697  44.6695633  38.6155014  72.5177155   6.8616066  24.6510258
  71.8895493   6.1690197  24.4461613  72.1739960   7.2692237  25.4459743
  72.2570419  52.5113068  12.4132948  71.6479797  53.0967560  12.8633251
  73.1237183  52.8075066  12.6914654  40.6851120  56.1012344  50.5324860
  40.6130180  55.1899948  50.8165207  40.0295792  56.1890068  49.8405266
  42.2672539  58.8202248  80.7886276  42.7570496  58.6906166  79.9765091
  41.3627510  58.9518509  80.5044022  31.5117149  48.3246574  33.3186798
  31.3118935  47.6751938  32.6445122  32.4652634  48.4056244  33.2981148
  82.6016464  70.7382584  87.3017197  82.2210922  71.5655212  87.5967560
  83.2522049  70.9936523  86.6476669  43.5022926  10.8220959  73.5348511
  42.8160286  10.3795815  74.0343018  43.9321136  11.3926878  74.1719589
  77.2253342  32.2780495  24.8395557  77.6538162  31.4445782  25.0344067
  76.2952347  32.1104622  24.9913979  75.5587463  40.8876266   5.1488333
  75.8595886  41.1530457   6.0179014  74.8447495  41.4925117   4.9474597
   3.7187436  59.3439865  84.2805023   4.6537480  59.1405640  84.3053741
   3.4367864  59.0683975  83.4082794  58.5966644  26.4434223  58.5331802
  57.7693634  26.0509262  58.8120193  58.3570366  27.0136242  57.8026466
  14.2078724  21.1809731   6.4020143  15.0472870  21.0337925   6.8378496
  13.9552574  20.3189297   6.0714116  61.2791252   2.5597844  80.2160645
  61.0549240   2.8533144  79.3330002  61.6121292   3.3442543  80.6519012
  33.7303162  34.6704216   3.1383202  33.3725014  35.1145706   3.9070420
  34.4418335  35.2385521   2.8430214  19.3191109  57.5128975  32.5331421
  18.3831997  57.3197517  32.5878792  19.5707874  57.2311134  31.6536579
  52.8044319  53.9240036  51.6643333  52.6461830  53.6840973  50.7512970
  52.0400009  54.4445381  51.9111519   2.4791329  68.0940018   8.8214550
   3.2293396  67.7548141   8.3332195   2.5081961  67.6298904   9.6581087
  16.8831711  16.0914803  73.2763062  16.6083488  16.6054497  72.5170059
  16.6200428  16.6189175  74.0305023  62.7127419  39.3398781  41.0483360
  62.8122063  38.4339905  40.7555809  63.2006416  39.8543396  40.4052849
   6.8378243  25.2330894  88.9788361   7.4992805  25.8085938  89.3628998
   7.1856194  25.0114403  88.1150436  11.6629705  56.0050507   7.7072105
  10.7840681  56.1873283   7.3747373  11.5298700  55.7889481   8.6301489
  10.0571146  21.7110081  30.6272068  10.3794870  21.8754425  31.5133610
  10.6352186  21.0293179  30.2846794  66.1139297  17.9493790  63.2639923
  66.1568375  18.3307209  62.3870850  66.0036240  18.7006798  63.8467560
  17.1136379  52.7995300  87.3612442  17.2162075  53.7290840  87.5653076
  17.4819088  52.7051086  86.4827805  14.1294489   1.2424699  24.1205502
  13.6318789   0.4454950  24.3035431  13.6770010   1.9260747  24.6147213
  46.0805016  12.7799330   1.3869990  46.1320686  12.0613070   2.0171974
  45.1587982  13.0381145   1.3930392  53.8213577  57.9746437  80.4088135
  52.8749123  57.9560165  80.2669373  53.9323616  57.7029572  81.3199081
   0.8820976   7.8961601  16.8055401   0.9461434   8.8440876  16.9220009
   0.2552883   7.6147761  17.4719963  17.4342213  70.7291946  38.6425247
  18.2515278  70.2469559  38.7677803  17.6035614  71.5906601  39.0238876
  36.4039879  36.6671791  21.3966904  35.9525566  36.2831116  20.6450729
  35.8019257  37.3368874  21.7211075  40.8479462  48.8641090  86.3957443
  41.3810692  49.5303307  86.8295288  39.9518356  49.1940231  86.4618607
  29.2178059   0.9273137  71.1150665  29.5454960   1.5321070  71.7807007
  29.1163921   1.4664797  70.3306885  41.6838150  65.1046524  72.4008865
  41.1896248  64.7174454  73.1234360  42.6003304  64.9385452  72.6214294
  29.5977135  66.5358810  43.0450020  29.4964104  66.8783569  42.1569214
  30.3617878  66.9954224  43.3932076  72.5247498  54.8497086  31.4789944
  72.9001694  54.1063957  31.9509907  71.5844879  54.7907486  31.6482868
  83.3940887  59.1833382  75.5213470  84.0560150  58.5127487  75.6898346
  82.6556320  58.9361496  76.0779572  45.2864113   8.9723377   2.4834878
  46.0960846   9.2784328   2.8921008  45.5780144   8.4411879   1.7424887
  73.7902069  49.3889542  33.4819260  74.4610825  49.8660240  33.9703560
  73.7003555  49.8743629  32.6618423  80.4165878   9.6269341  64.0969543
  80.0002670   9.4852333  63.2467613  80.1689224   8.8614054  64.6154709
  25.8910732  12.7187462  81.6824570  26.1517849  13.5518293  82.0751877
  26.4748058  12.6151428  80.9309540  54.6420975  29.8120289  84.9129105
  54.8578873  29.4634399  85.7778702  53.9425316  30.4443588  85.0772171
  34.4972496  55.8708153  75.3817139  33.9084625  56.5563736  75.6972656
  33.9468498  55.0897255  75.3251572  40.5861435  36.6315079  75.4277954
  41.1959801  37.2726936  75.0628052  40.6010590  35.9050598  74.8046722
  18.0384102  64.0586166  72.1915283  18.0481148  64.4653778  71.3251038
  17.1338692  63.7687569  72.3099213  46.7393417   7.0301952  86.5263290
  46.6380310   6.0857048  86.6442566  46.2859802   7.2189808  85.7047119
  25.2241993   4.9898639   9.4411116  25.2055187   5.6464195  10.1374006
  26.1193409   4.6511135   9.4552851  12.5733557   1.7157360  58.9759903
  12.5125132   1.8548201  59.9210777  12.1725235   0.8582117  58.8338013
   8.5622330   7.6001740  33.2373581   9.0178194   6.8434286  32.8685608
   8.7486916   7.5582914  34.1752853  50.4362869  31.0150032  59.3897514
  50.8290405  31.5821819  58.7262077  49.4949150  31.1685257  59.3092880
  68.7364578   0.6830988  20.1838226  67.9372025   0.6967046  20.7103539
  68.5802383   0.0027806  19.5288448  77.3170395  32.1814842  69.2381592
  77.4089813  32.0030441  70.1740723  77.4974060  33.1177597  69.1539917
  78.6400299  60.0757599   2.0986300  79.0424805  59.5125656   2.7597456
  79.3693314  60.3531036   1.5441593  26.4384251  56.0463181  60.9718857
  26.6343479  56.7961998  61.5336037  25.9357643  56.4157486  60.2458801
  75.8892975   4.7954764  31.2250023  76.3709564   4.0870566  30.7979431
  76.2841339   5.5959749  30.8792553  11.3287382  59.1129570  63.0340767
  11.8625870  58.5852585  63.6280212  11.5404015  58.7799644  62.1619835
  83.7769928   3.5320988  46.7695732  84.4977417   3.5515261  46.1399841
  83.7892151   4.3993602  47.1744690  11.8554373  47.1802483  34.3136711
  12.7814884  47.3890457  34.1909370  11.7999096  46.8571396  35.2129745
  56.6195488  26.0895977  51.7691269  55.9733353  26.4631348  52.3683853
  56.2145119  25.2818813  51.4532547  24.0660896  58.2641678  73.0010910
  24.7752857  58.6432991  73.5202560  24.1067944  58.7283134  72.1649399
  19.6696701  44.6678429  30.9360218  19.5350685  44.9153366  30.0212193
  20.4806271  44.1593742  30.9297485  28.0133915  59.6919861  18.1662674
  27.1773357  59.8686943  18.5975666  28.4714813  60.5323677  18.1783924
  77.8000259  58.8851662  49.4387436  77.9603043  59.1168861  50.3535385
  77.1129837  58.2197800  49.4770432  79.7025299  64.9033661  61.6311073
  78.8051224  65.1747437  61.8241005  80.2461853  65.4595413  62.1890831
  26.4389553  56.6302948   3.3085713  25.5068893  56.5001411   3.1337984
  26.4751282  57.4318771   3.8304787  52.8446503  28.8960266  87.6534805
  53.6766281  29.1870155  88.0267944  53.0939331  28.2854595  86.9597244
  33.6016502  62.0757141  80.3795624  34.2253685  62.7949409  80.4791565
  33.9760208  61.5278244  79.6897125  48.1222687   3.0848312  64.2834320
  47.8027191   3.3208497  63.4125633  48.9399185   2.6149874  64.1193314
  86.9226532  68.9223633  16.0221996  87.0664749  69.6948242  16.5688763
  85.9838409  68.7498322  16.0936165  58.9425392  31.9366550  32.0792084
  58.8234520  32.7533684  32.5640106  59.4782600  32.1818657  31.3248177
  24.8808880  52.2445946   9.8550749  24.5420208  52.4626884  10.7233114
  24.1489372  52.4155388   9.2624054  75.1818924  64.6512985  70.3408890
  75.3588638  63.9483261  69.7157974  74.2554703  64.8563690  70.2147522
  75.5156403  46.1929817  83.4531174  76.2402573  46.7021904  83.0899811
  74.7339249  46.5619850  83.0420227  13.4269609  23.2735271  77.0604172
  14.0815506  22.6368809  77.3475113  12.6642675  22.7442608  76.8271637
  23.1145859  40.2987785  24.7670460  22.2167835  40.5175209  25.0167122
  23.2133102  39.3782768  25.0102825  47.4126244  45.1402855  61.9234467
  46.7146378  44.8797989  61.3224525  48.1690407  45.2974281  61.3583145
   4.4098163  24.4126339  83.4631653   5.2262816  24.8609619  83.2426758
   4.6771221  23.5178967  83.6734619  85.3837280  44.4970055  31.3990555
  85.3043671  44.0966606  32.2648811  85.0658951  45.3919067  31.5189228
  48.4002113  27.8802795  47.1609802  49.1087189  27.3759499  47.5608597
  48.3546486  27.5573177  46.2610626  26.8343105  40.0634460  77.8101044
  26.5869923  40.2819481  76.9115982  27.5164585  40.6973381  78.0316544
  24.2744484  18.1419144  76.4207611  25.0528545  17.7934952  75.9861069
  24.1601868  19.0144615  76.0441437  25.6973400  57.3801231  53.0734673
  26.5937729  57.0509071  53.0082245  25.6571617  58.0933609  52.4363518
  73.1361008  16.3227577  40.6752129  72.9821243  16.4728565  39.7424774
  74.0879135  16.2582932  40.7535057  29.3148422  60.0188904   9.4055586
  29.3526669  59.3978844   8.6781311  28.4077301  59.9780731   9.7084045
  41.1842384  59.6434212   3.4244421  40.3041153  59.4630699   3.0941505
  41.7377396  58.9863091   3.0024648  19.9138203  22.1413555   9.8188133
  19.3090401  22.3537292   9.1079187  19.4535408  21.4797859  10.3352432
  65.5074997  28.8533096  77.7770309  65.6509094  28.0963287  77.2090149
  66.3560104  29.2953873  77.8057404  17.7658691  39.4931984   7.1065111
  18.0996990  39.0469742   6.3282609  16.9266510  39.8613205   6.8300471
   1.4639332  29.5677414  23.9474220   1.4039086  28.7294388  24.4055462
   2.2385924  29.4820728  23.3917274  29.5018940  36.0447006  25.2231216
  28.7863827  35.4196434  25.1065941  29.3865166  36.3776398  26.1131058
  83.7297821  64.6490021  72.9318390  83.6098709  65.3509293  72.2921906
  82.8523636  64.4892883  73.2794800  47.2147903  44.2929344  48.6289330
  46.8518639  43.6064720  48.0692101  47.4252129  43.8467979  49.4492455
  29.9104958  56.2631416  14.5822554  29.0323715  56.4514351  14.2510843
  30.1588039  55.4453812  14.1511621  62.7755699  57.2569885   1.5719742
  62.9951096  57.9367599   0.9348370  62.8442764  56.4378586   1.0815309
  19.1203308  55.8332329  10.0596981  18.2590542  56.0933762  10.3864346
  19.1709156  56.2182617   9.1848125  80.1864548  68.4320831  83.2272186
  81.0903320  68.7071686  83.3806992  79.6563263  69.0878525  83.6801758
  38.4845734  16.6908855  77.8784485  38.9804420  17.1760082  77.2189026
  37.6133842  17.0871296  77.8625107  28.0185165  31.6929207  14.4364157
  27.6407890  31.9597645  15.2744789  28.2672234  30.7777710  14.5663404
  58.5608063  29.4688320  73.3085403  59.4198914  29.3152065  73.7017365
  58.0048828  29.7307415  74.0424194  18.1402760  14.9648800   2.3804314
  18.5974617  15.1318007   3.2046587  18.1442394  15.8090029   1.9291315
  26.1590157  50.9908638  45.3161888  25.2053204  50.9406929  45.3808517
  26.3311024  51.8762856  44.9958000  83.4642181  44.2910767  26.0141144
  84.0115585  44.6002655  25.2922688  83.5129471  43.3366585  25.9598618
  23.1265202  47.8919830   8.8565884  22.8198452  48.4228668   8.1215057
  22.7822628  48.3350601   9.6320887  28.4548187  50.0856285  21.9298992
  29.3604202  50.3955078  21.9203930  28.5273914  49.1322899  21.8839321
  31.9524651  53.1685753  28.3402328  31.3654919  52.4126892  28.3583679
  31.9054165  53.4867821  27.4386978  44.8659363  66.2678680  83.2375336
  44.3764153  65.9205627  83.9831696  45.7014618  65.8014374  83.2613373
  11.1172657  65.7053299   1.3353502  11.3753510  66.6088715   1.1530378
  10.6371164  65.4310913   0.5540175  80.5889053  30.0076904  16.0967522
  81.5022583  29.8087101  16.3027039  80.0867996  29.3426609  16.5677776
  65.6476898  31.4678364  57.9258881  65.6615982  31.7651443  58.8356400
  65.9198303  30.5511627  57.9692917  81.3070450  66.3392258   0.6666756
  80.4997559  66.2923050   1.1788541  81.8859558  66.9001083   1.1829056
  43.7581978  17.8591537  86.8663940  43.2925110  18.6530285  86.6034775
  43.4003220  17.1736164  86.3023071   5.0483642   2.3878713  81.7522125
   4.3598690   2.4309227  81.0886230   4.6834426   2.8508410  82.5063477
  64.7394104  57.5156021  51.4989777  65.5239258  57.8894958  51.0977592
  64.8230209  56.5729332  51.3553925  56.1442146  70.7085724  87.9935760
  55.6327515  70.0625000  87.5065231  56.4718895  71.3088760  87.3238754
  60.5942612   8.3049631  52.1612167  60.0215797   8.8742447  52.6752052
  61.3714676   8.1903515  52.7080650  25.0412464  53.9125900  41.6234474
  24.6030102  54.3004303  40.8659782  25.7239685  53.3573570  41.2468300
  11.8185387   4.7263632  88.5235825  11.0927210   5.0953517  89.0268402
  12.3758278   5.4777393  88.3208694  47.8921547  34.1824532  63.0830994
  47.1472359  34.5625191  63.5488014  47.7683907  33.2367935  63.1646080
  17.1705856  40.9184303  81.9986267  16.9839611  40.3976936  82.7798004
  17.6094341  40.3098221  81.4042892  22.8338757   3.6347697   9.3944225
  23.4848061   4.3363700   9.4111347  23.1704807   2.9811082  10.0073309
   0.9640729  45.4994202   6.1877437   0.2750367  45.5024643   5.5233254
   1.7777413  45.4281006   5.6886549  52.1527519  16.6740322  13.2751083
  51.5638924  17.1673241  13.8461971  52.5268631  17.3329716  12.6902409
  -0.0894842  38.3858604  45.4823341   0.3973873  38.7353058  46.2287102
  -0.2030401  37.4570808  45.6840897  43.1129265  11.4355650  47.7925911
  43.2876549  11.9845076  47.0281525  43.9786415  11.1531610  48.0875778
  73.3374100   2.6914179  42.2499046  72.7637100   1.9292350  42.3284988
  72.7469101   3.4151037  42.0405807  33.7210197   3.9613898  42.0425377
  33.4712524   4.8512363  41.7934990  34.4230118   3.7305231  41.4341469
  43.7249832  52.1740646  61.6595573  44.1350288  52.0032349  62.5074463
  44.3156242  51.7720909  61.0225410  36.0032578   1.9006053  25.5600357
  36.2334251   2.6033788  24.9522800  35.2006912   1.5245699  25.1984921
  40.0139427  20.1974812   9.7709503  40.4187469  19.3587437   9.5498466
  40.7150803  20.8391533   9.6573792  78.5377045  15.1670618  13.6335087
  79.2990189  15.7324429  13.7637720  78.8236618  14.5265722  12.9821768
  30.8186855   3.9358926  67.4227448  30.9254074   3.3659739  66.6611404
  30.2492790   4.6415052  67.1159515  76.4998550  31.6434631   1.0549170
  76.9970245  32.4585800   0.9867982  77.1043472  30.9678288   0.7477797
  76.8046341  42.4756165  61.9861717  76.4246216  42.3677406  62.8580589
  76.2635117  43.1468697  61.5704308  70.0624161  62.8614311  40.9525681
  70.6670685  62.4200249  40.3560905  69.4372101  63.3020592  40.3770714
  85.7215729  46.6129684  43.5179253  86.0227585  47.5025787  43.3332329
  85.4509735  46.6374245  44.4357567  67.4138412  53.9247208  36.2857590
  66.6553955  53.7448311  36.8413048  68.1607285  53.8970222  36.8837814
  75.7738190  33.9755592  84.1209183  75.5507355  34.4343147  84.9308624
  76.7203598  33.8432121  84.1735229  13.9659300  50.8561859  26.6999569
  13.2116394  51.4445801  26.6672344  14.2273684  50.8529053  27.6207561
  39.5399132   8.9090662   3.7491457  39.5365219   7.9868884   4.0056787
  40.0975571   9.3364620   4.3992219  57.1718636   2.2720592  35.4000244
  56.7394218   1.9909849  36.2063866  57.6669121   1.5044993  35.1136475
  78.7397461  39.0298462   1.9711652  78.6794968  39.7500229   2.5988185
  78.4564743  38.2591133   2.4630547  57.7762909  22.3433819  62.6197166
  58.1845856  22.8233109  61.8991623  58.4789009  21.7972145  62.9722404
  12.9506025   4.3594046  74.1995163  13.8208723   4.6598554  74.4614182
  12.8000965   3.5738943  74.7254028  41.1603355  70.2365341  62.9204750
  40.9518089  71.1685028  62.8557816  42.0600777  70.2144775  63.2463722
  67.2996902  40.1786194  35.6055870  66.9579468  39.3529854  35.2624054
  67.1478577  40.8110504  34.9033012  79.0133972  59.7459641  67.6858978
  79.8856506  59.3701401  67.5669174  78.9011078  59.7948303  68.6352310
  56.0184059  67.2212982   0.7224464  56.2058105  67.7472992   1.4999005
  56.6978722  67.4697571   0.0956828  75.4607544  33.8435783  28.5956421
  75.7066574  33.6138878  29.4917488  76.2947693  33.9463577  28.1372833
  13.4428530  48.5505829  68.8711014  14.1673708  47.9307213  68.7869644
  12.7352867  48.0399933  69.2646484  48.4579353  20.6814442  67.5607224
  48.6988525  19.8134670  67.2369843  47.6641541  20.9062920  67.0753479
  79.0777740  41.2093887  88.9749603  78.8993378  40.8029404  88.1269073
  79.5656662  40.5447311  89.4611969   3.6806200  35.2439613  13.9749336
   3.6057713  35.4587593  13.0451536   4.0800762  34.3741989  13.9884186
  72.4641495  58.5897408   8.0729809  72.7797623  59.1972504   7.4039898
  73.2528763  58.1460457   8.3848639  44.8765106  13.9519224  70.2916031
  43.9501495  14.1579123  70.4167404  45.2606125  14.0361576  71.1643066
   4.3723068  48.6289406  51.0400810   5.1960149  48.5759697  51.5247765
   4.3797054  49.5030365  50.6500359  76.2753067  47.4955711  17.5305500
  76.8908310  47.7525826  18.2170715  76.8168488  47.0538750  16.8764286
  14.2094259  28.8814163  88.5150909  14.2159834  29.4680233  89.2714539
  15.1170073  28.5891495  88.4307861  45.1813736  21.8432312  67.2401505
  45.2984047  22.0682297  68.1631393  45.4611549  22.6259480  66.7654800
   4.1339879  23.8480854  34.2915611   4.0401959  23.3959522  33.4531021
   3.4375651  24.5047569  34.2887878  84.2728271   2.9359753  33.7335243
  84.4693298   2.1229568  33.2681007  85.1249237   3.3552191  33.8535194
   8.7740545  25.1598644  14.6172304   8.7050610  25.9018421  15.2180157
   9.7140188  25.0607414  14.4659929  26.5498638   7.1036181  35.3835983
  26.1384678   7.3492861  36.2122307  26.9637794   6.2593341  35.5627327
  58.0823593  41.3673286  49.5949173  57.9358864  41.0457497  48.7053337
  57.5936317  40.7615700  50.1520844  17.6091633  35.9807320   7.8169498
  17.2622528  35.4036751   8.4973106  17.6327572  35.4361496   7.0301170
  67.0696640  44.7012558  26.9717846  67.6973419  44.6956825  27.6944370
  67.5973511  44.8977394  26.1977215   7.9234681  28.5783043  10.3122997
   7.6516013  28.2662773  11.1754103   7.1657205  29.0613976   9.9826450
  47.3870430  60.7816429  33.1659966  47.6884804  59.8966713  32.9606018
  47.1782837  60.7528877  34.0997124  62.8873825  33.7399178  32.6752739
  62.8679314  33.5618591  31.7349815  62.0583687  34.1845856  32.8520355
  53.4759941   5.4513340  83.9902191  52.7103004   5.1505871  83.5008469
  53.1564445   5.5722489  84.8843689  78.8482132  24.9728546  77.5316696
  78.3564224  25.6812096  77.1162109  78.1784210  24.4212246  77.9358063
  69.9608383  55.8188095  23.5216904  70.7505417  56.2274055  23.8761711
  69.3665619  56.5505333  23.3554249  23.3745441  36.3027153  13.0846443
  22.9828281  36.0589333  13.9233103  24.1662827  35.7680168  13.0256529
  18.1361008  12.1822472   1.9661251  18.6708107  11.9150229   2.7137265
  17.9919777  13.1193695   2.0975127   4.9188113  64.8646698  83.8198395
   5.6960120  64.4257202  83.4741287   4.3057723  64.1538544  84.0073318
  20.7967701  53.3759193  33.3329201  20.3949203  53.8423615  32.5999947
  21.6723270  53.1478195  33.0205078  50.5384903  61.6378441  87.5635071
  51.0474930  62.0514526  86.8663177  50.4669762  60.7214317  87.2964706
  73.9911194  48.1020355   4.9487748  74.2079468  48.9855080   5.2465844
  73.4389343  48.2376251   4.1787505  37.6706505  60.8243713  58.6261177
  37.2755203  60.9651871  59.4865112  36.9267464  60.6760750  58.0422935
  47.3688011  59.3004875  39.6096344  46.7052994  59.9668236  39.7885056
  48.0858459  59.7813721  39.1963158  80.7184601  69.1226273  32.7724304
  80.7009583  69.8225403  32.1197090  79.8194733  68.7947693  32.7962227
  83.6176300  68.0668640  86.4624405  83.6264114  67.4521255  87.1960983
  83.7994690  68.9179688  86.8609238  55.2097359  35.8535957  77.0223770
  55.4595985  36.7692413  77.1464539  54.3543472  35.7793007  77.4454880
  32.1312866  70.7435913  31.4519768  31.7425652  70.0404587  31.9722977
  31.8050041  71.5482101  31.8549175  36.2785378  33.6491890  63.1459274
  36.8141975  33.2788086  63.8474426  36.4822578  33.1123009  62.3801041
  78.4147339  65.0421066  24.6239624  78.5670395  64.9748840  23.6813526
  78.9029083  65.8211212  24.8905067  85.4015656  12.0912724  82.5250092
  85.6179581  12.1173201  83.4570694  86.2420349  11.9547739  82.0877228
  37.4512215  44.0516014  81.9795914  37.6751328  44.9638672  82.1636200
  38.2134399  43.7070847  81.5142288  57.2770805  71.0398178  11.9851322
  57.0796890  71.9713745  12.0824385  57.9641762  71.0088348  11.3194208
  62.0300636  33.8927879  18.4235344  62.3507957  33.3620529  19.1527004
  61.2223473  34.2877655  18.7518940  11.6544294  54.2738953  60.8156853
  12.3159046  53.8487511  61.3615189  11.8303909  53.9518814  59.9316177
  51.5126953  16.2510777  19.3311977  51.9312325  16.2041073  18.4716339
  52.2048111  16.0126934  19.9479465  46.8956184  68.1181641  38.8751984
  46.8024254  67.7412415  39.7501106  46.0389175  68.5014191  38.6870193
  29.1739922  37.5301819  85.2036057  29.3378544  37.7283211  86.1256256
  29.4046955  38.3357048  84.7408524  38.6619797  16.3846569  82.4586716
  37.8601990  15.9085846  82.6748505  38.8373299  16.9217682  83.2313232
  17.5103817  26.8246326  70.0509491  17.1462021  26.4428539  69.2522964
  17.1952419  26.2560253  70.7535172  49.6538582  69.9764481  49.1326561
  49.3275032  69.5421829  49.9207802  49.1664009  69.5701523  48.4160385
  28.1258526  69.1835098  19.6776180  28.2841873  68.4680557  19.0617523
  28.9944134  69.4099503  20.0101242  27.5159550  34.2953606  65.6951752
  27.0317535  33.8480492  66.3892136  26.8663044  34.4455681  65.0084229
   9.4377909  55.9416466  86.2089920   9.1746378  56.3963737  87.0091171
   9.3843298  56.6094742  85.5253372  41.4137955  66.5126190  39.2705612
  40.8977470  66.0528717  39.9327965  40.9373360  67.3290176  39.1198616
   6.2463164  25.9854164  85.5983429   5.9383750  25.0909100  85.7441559
   7.1993775  25.9241142  85.6627426  67.4267654  32.0932350  84.8531876
  67.6923599  32.1013107  85.7727661  67.8792496  31.3368645  84.4798355
  39.0739708  32.8652306  84.9757614  38.4979744  32.5461998  84.2810059
  39.8832932  32.3665504  84.8637543  83.5790863  16.9064198  44.8137054
  82.7409592  17.0220947  45.2613602  83.4350357  16.1672382  44.2228661
  39.7645836  50.2551880  49.6369667  39.8024216  49.6233826  48.9188957
  39.1986313  50.9548607  49.3107986  57.0836487   5.9281487  64.3926620
  56.4892159   6.6688452  64.2732773  57.5569229   5.8647375  63.5630722
  21.2536049   2.7678936  56.6361122  20.6612434   3.5185335  56.5927773
  22.1094456   3.1240840  56.3975868  11.7280245  67.1140213  72.9583969
  12.1820831  66.4236221  73.4415207  11.5305538  67.7782822  73.6186981
   5.6100879   9.9988070  87.6047058   5.8829331  10.4589939  86.8109741
   5.1977825  10.6741495  88.1433640  22.6067467  64.2930374   5.1532326
  21.8481236  64.0780487   5.6959147  22.2318974  64.5818634   4.3211870
  15.6533737  52.5533066  46.0300903  16.2799892  51.8371582  46.1336250
  16.1030235  53.3186531  46.3882675  62.0506096  55.1825294  21.4869862
  62.2402077  54.2574806  21.3302364  62.0359268  55.5752525  20.6141834
  31.8661728  52.3279495   1.3749759  31.5675869  53.2075272   1.6061170
  31.3712349  51.7473717   1.9530725  61.9175682  41.3069344   6.8094397
  62.7356987  41.5642662   6.3843846  61.4227943  42.1223564   6.8901563
  19.9659996  70.4695511  17.2870770  20.4651031  70.4723892  16.4703026
  19.0737934  70.2463455  17.0217915   9.2473288   1.2594995  54.7800293
  10.0536528   0.9126355  55.1618118   8.8302946   0.5010734  54.3712463
   9.5163231   5.7069778  72.6138306   8.7636280   6.2966647  72.5696487
   9.1642008   4.8962569  72.9812164  17.1279507  45.6588898  66.2310410
  16.8328552  44.9159927  65.7044907  17.5919189  46.2222061  65.6116486
  30.2370281  38.9574547  87.3444366  31.1293678  39.2514229  87.5275803
  29.7525196  39.7624016  87.1612778  81.8124542  29.2756882  22.8045158
  81.2422256  28.6538754  23.2566452  81.7988358  30.0579033  23.3560467
  71.9925766  16.3303108  18.5927429  72.2150192  17.2459450  18.4243145
  72.4064941  15.8477440  17.8771763  31.2104092  18.7243862   6.5819392
  30.8441467  18.4522572   5.7404938  30.6895103  18.2544289   7.2331209
  46.3278236  37.0274963  88.5584106  46.7980652  36.9283066  89.3862228
  47.0173607  37.1026688  87.8987732  15.5461245  69.0484924  69.2739487
  15.2145729  69.9123459  69.0288620  14.9008484  68.7118225  69.8956451
  78.6590271  40.7011642  80.7951279  78.3144073  41.3151894  80.1467133
  79.3869934  41.1687584  81.2045898  65.8354797  19.0793190   4.1789002
  65.5085373  18.4228630   4.7940454  65.0486679  19.5207977   3.8591428
  28.9478073   2.6008148  81.0132675  28.5350800   2.0882356  80.3181763
  28.7010670   3.5057344  80.8222885  40.3294601  43.3944092   6.0290465
  40.3445244  42.4636536   5.8061008  39.8863373  43.4305038   6.8767323
  10.3067369  12.8364229   2.4151771   9.8992491  12.0174599   2.6971104
   9.6060600  13.4857635   2.4755049  51.8079224  36.7998924   1.5625129
  52.0073166  36.7822342   0.6264776  52.0653114  35.9338303   1.8786088
  51.4616241  63.4464188  17.0844193  50.7022514  63.2910309  17.6460590
  52.1493492  62.8916969  17.4525948  71.0570297  69.0447006  55.6720238
  70.9635086  69.4706345  54.8199272  70.6396637  69.6469498  56.2879257
  29.8270512  45.8936424  65.9863815  29.7459507  46.1526299  65.0684586
  30.5751572  46.3945847  66.3113861  17.1504211  42.4817429  29.6428108
  18.0761070  42.2790146  29.7778702  16.7812519  42.5148811  30.5253334
  28.3620644  12.0622196   7.0471339  29.0378609  12.3877831   7.6417246
  28.3833294  12.6675453   6.3059459  76.4869308  55.7289772  28.2977657
  76.0961304  56.5361862  27.9632072  76.3516388  55.7718048  29.2443886
  41.4481392  14.3754778  82.5738678  42.0502434  14.8293781  81.9842224
  40.6479454  14.9001913  82.5494919  38.5721207  57.2568359  35.0687828
  38.5736656  56.4226723  34.5993156  38.7437744  57.0191689  35.9799805
  36.4069138  -0.0143014  38.5517426  35.7647896   0.6842217  38.6781387
  37.0029068   0.3260907  37.8845406  83.1861267  67.2008209  32.5625610
  82.4829330  67.8036652  32.8040848  83.8378448  67.7535324  32.1312675
  41.4564743  26.6045341  19.2225113  40.8757477  27.3633385  19.1658916
  41.4774857  26.2520943  18.3328056  79.5312195  52.1834755  42.5255585
  79.3520355  51.9249191  41.6215286  80.0462341  51.4605484  42.8838387
  10.9721317  68.7800598  51.8458786  11.8167830  69.1740036  52.0640602
  11.0524883  67.8691406  52.1287422  82.5091248  25.3646088  73.2856827
  81.9002151  24.8125763  73.7763214  82.2871704  25.2088318  72.3676987
  59.1622887   8.0874081  80.7704010  58.7093925   7.5352321  80.1330414
  60.0539551   8.1633549  80.4307022  27.4926872  31.0807858  80.6654816
  26.7266674  30.6826954  80.2519989  28.0269089  30.3376198  80.9457474
  33.4877052  38.2128792  61.1460114  33.3264351  37.9420204  62.0498161
  34.0841293  37.5490494  60.7998314   1.4074682  26.6465416  58.0701256
   1.1270674  26.8645096  57.1812515   1.0323482  27.3376884  58.6158638
  70.3998337  21.7178230  18.4461975  71.1788864  21.9359150  18.9578056
  70.4491501  22.2888432  17.6795597   7.2758150  51.9484863  39.1561852
   7.6220016  52.8295364  39.0142593   8.0503330  51.4102402  39.3194084
  84.3832169  55.5643158  68.6372070  83.5053482  55.9103661  68.4765320
  84.8088455  55.5835724  67.7800522  62.0491905  61.9150963  34.6525421
  61.9303856  60.9660187  34.6894760  62.9867821  62.0448380  34.7950745
  49.7876625  19.9262486  20.8033447  48.8548889  19.7246742  20.7289982
  49.8317413  20.6150227  21.4665775   2.5137062   4.5460935  28.0889397
   2.6528859   5.3454676  27.5811386   1.5948880   4.3237953  27.9386444
  63.3871841   7.3614726  39.1243629  64.0140762   6.7392035  39.4931641
  63.9016113   7.8829951  38.5082397  45.6184959  13.4500713  77.6536331
  46.0213814  13.1229343  78.4579315  46.0597458  14.2828512  77.4862823
  39.3345184   8.8233290  47.7520638  38.7689209   9.0929747  47.0284424
  39.2592316   7.8693075  47.7722321  10.2500544  10.9532557  80.4646988
  10.6902695  10.1726599  80.1283722  10.2978258  11.5835838  79.7459259
  74.5753021  23.8395100  14.9395466  74.7272720  23.9083748  15.8820925
  74.2814560  24.7127056  14.6798925  51.1195793  15.2048531  63.4675026
  50.4862175  14.6130476  63.0614815  50.9114151  15.1743813  64.4012985
  48.8725967  53.6382141   0.8935785  48.9711609  53.7414246   1.8400794
  48.6475830  54.5139046   0.5793034   6.5846553  35.2938652  52.3468628
   6.7815642  35.7498512  53.1651115   6.3159943  35.9877090  51.7446709
  77.8666916  35.1775055  28.1318417  77.4491043  36.0077515  28.3610687
  78.0933990  35.2708549  27.2065735  16.8403606  30.6201153  21.9089832
  17.4003201  30.9131012  22.6278973  15.9532528  30.6550083  22.2668285
   5.5948496  47.6745033  47.1067772   6.2483559  48.3671761  47.0100021
   4.8573008  47.9643593  46.5699005  65.1711121  36.7342606  74.4285812
  65.5550308  37.0592613  75.2429581  64.3568954  36.3104630  74.7000351
  10.0843887  45.4000320  31.3065548   9.5220461  45.0649414  32.0049248
   9.5079937  45.9536781  30.7797985   2.8209221  69.8337173  87.5774841
   2.7390902  69.0239639  88.0812988   3.5626392  69.6780930  86.9927826
  55.5504074  37.4253311  80.9646759  56.3841019  37.4081192  81.4346695
  55.2102509  36.5344658  81.0476379  49.8123474  57.1223793  23.0186272
  50.2053032  57.4187965  22.1976776  50.5388947  57.1114693  23.6417179
  18.2338181  31.7229748  88.4183807  17.5128193  31.2430058  88.0109253
  17.8376541  32.1517906  89.1769333   5.1846180  28.7335892  64.4181290
   4.6642838  28.1010933  63.9227142   6.0647740  28.3577862  64.4362488
  32.8965721  69.8745270  11.4306421  31.9763737  70.0084763  11.6576262
  32.9787636  70.2283173  10.5450296  35.0064392  45.4961624  66.7082291
  35.6934433  46.1510239  66.8323822  35.2841148  45.0008659  65.9376373
  79.0695877  66.4211807  59.1879349  78.9066925  66.6379929  60.1059151
  78.8593903  67.2241745  58.7112312  50.1570816  18.5614872  87.6910324
  50.6386604  18.7179871  86.8787384  49.4656143  19.2233829  87.6908493
  26.6106548  44.3188019  16.7298756  26.8545780  43.7936478  17.4920750
  26.8027229  45.2201271  16.9886303  64.5408401  67.1088791  15.2887335
  64.9498062  67.6493835  14.6128435  64.7009506  67.5835266  16.1043930
  60.6786804  21.4773998  28.7408829  60.1595154  20.6781445  28.6520596
  60.9895058  21.6608696  27.8543396  61.2441483   3.9201756   0.4013037
  61.8296776   4.3627119   1.0157533  60.5042610   3.6359355   0.9379659
  76.6365128  39.9281120  38.3282166  77.3312683  39.6910896  38.9425163
  75.8344650  39.6017303  38.7361755  67.5504990  68.9375458  79.9662476
  66.9165344  69.5240326  79.5534973  67.9169693  68.4321365  79.2406540
   2.8556185  24.4562302  38.2456017   3.1837139  23.6047325  37.9565773
   3.5000734  24.7562046  38.8866348  31.1656761  24.0234928  78.9222031
  31.5339718  23.1973438  79.2353592  30.2422791  23.9837265  79.1711731
  55.7053986  33.1212120  77.9101105  55.8120575  33.2600708  78.8511581
  55.5984459  34.0011139  77.5487671  67.7877426  69.7831802  39.9738274
  67.6160660  70.1530075  40.8398438  67.5841980  70.4935303  39.3653908
  52.8215332   3.8445077  75.2711105  52.9177246   2.9045641  75.4243546
  52.4111595   4.1766009  76.0695724  39.8429070  32.5762062  77.3264694
  39.8559990  33.2276955  76.6253052  40.3178864  32.9902458  78.0470200
  69.7633209  30.1030464  79.1582413  69.1005707  30.3592281  79.7996140
  69.5202332  29.2124405  78.9053268  73.5577469  56.4226151  60.8746910
  72.9200821  56.1026154  61.5128288  73.7667160  55.6565933  60.3401108
   6.5767369   4.2400055  31.8336372   6.2500243   4.1129246  32.7243347
   5.8062925   4.1254287  31.2772923  17.1538715   0.9793983   3.1504469
  18.0716038   1.0997971   3.3943787  16.6633434   1.2250401   3.9348404
  54.8681908  29.3834515  82.1983414  54.8437309  29.3113937  83.1525116
  55.7839737  29.5748348  81.9959946  10.8150148   6.2457190  13.7759361
  11.1085701   6.3602672  14.6797810  10.4838066   5.3482294  13.7435999
  64.6971588   9.4529724  78.5223083  64.1305923   9.6127586  79.2770920
  64.9774246   8.5431204  78.6215591  83.1819000  51.4796219  12.9449329
  84.0934753  51.6134033  12.6853762  83.2322693  51.1903114  13.8559732
  70.3361359  44.8858376   0.1510702  70.4973679  44.8618736   1.0942888
  70.3658295  45.8158646  -0.0734393  74.9236145  54.3873405  80.6725082
  74.2624359  53.9104500  80.1708679  74.4195786  54.9768143  81.2334824
  80.5266113  41.4243469   7.3741832  80.3193207  40.6179276   6.9020004
  80.5644531  41.1605949   8.2935505  75.6704788  18.6354141  14.2324371
  74.7304916  18.4564667  14.2072248  75.7320709  19.5904484  14.2510262
  74.9967117   8.9095049  77.0393677  75.7666092   9.3378830  77.4135208
  74.4467850   9.6304722  76.7327499  33.2060280  33.1153297   0.3166804
  33.3894844  32.8339882  -0.5796584  32.3434830  32.7486153   0.5110213
  28.3491802  55.7257423   0.8746842  27.7009125  55.5617142   0.1897928
  27.8295841  55.9019547   1.6590328  78.4012527  10.2047682  49.4079628
  78.9224167  10.6126280  50.0995293  79.0345230   9.7018757  48.8958054
  64.3718948  46.5385323  57.7597542  63.8656387  46.6313095  58.5668068
  64.2765961  45.6162605  57.5219231  56.3705978  29.9875679  12.2594938
  56.6854095  30.0273399  13.1625690  55.9352875  29.1375370  12.1948128
  67.6539001  54.4681587  20.2284260  67.6854858  54.1487541  19.3266411
  68.4832077  54.9310188  20.3477592  49.9720879  51.2903557   1.5411111
  49.2268066  51.6238441   1.0415385  50.7373543  51.5305138   1.0186893
   9.7084522  51.8525772  61.7086563   9.9941015  51.6855545  62.6068420
  10.1015835  52.6962471  61.4852676  10.7372227  47.4432907   2.8206227
   9.8829775  47.8263588   2.6212330  11.3004017  48.1955338   3.0028131
  35.0616951  65.5832825  70.1252594  35.4549904  65.8946457  69.3100281
  34.1222153  65.7230377  70.0066223  25.4277496  64.5926437   5.8550420
  26.0701962  64.1999817   5.2640171  24.5812035  64.3930740   5.4553356
  68.8406067  48.7240906  21.9327602  68.1041641  48.8338737  21.3312359
  69.5680542  49.1766624  21.5058784  31.0251598   7.5920143   8.3438683
  31.3094692   6.7668314   8.7368994  30.1871777   7.3842521   7.9305258
  74.0183716  66.8165054  31.0501194  73.5143127  67.1359711  31.7985153
  74.8291016  66.4812469  31.4329395  67.2685242  17.8653278  58.6440201
  67.8664703  17.8027115  57.8991890  67.2755661  16.9899006  59.0310707
  23.1110306   7.3389091  74.2999802  23.4709854   7.7838717  73.5327301
  23.0556259   6.4194784  74.0395737  82.4355469  30.0385227  86.0786667
  83.3835678  30.1692657  86.0987473  82.1428070  30.5259457  85.3086319
  84.3426895  50.9949455  32.3789520  84.9626007  50.9805031  31.6497517
  84.5952606  50.2488823  32.9228516  39.4307213  64.8208694  37.8318176
  39.2083817  64.3607941  38.6412201  40.2188911  65.3190460  38.0482445
  73.0143814  12.6695595  61.8397636  73.8151016  12.9442806  62.2865334
  73.1466446  11.7383232  61.6621780  24.0307941  18.4044209  81.2575455
  23.6704559  18.6131496  82.1194153  23.7752705  17.4946499  81.1050415
  17.7265434  11.3801231  80.0180359  17.8924904  11.3753004  80.9607239
  18.4487457  11.8894730  79.6503143  40.5866776  50.6243248  13.9655066
  40.1395645  49.7867584  14.0871649  41.4756432  50.3853798  13.7030725
  36.4995232  60.8731270  51.2864952  37.3814049  61.1890144  51.0896873
  35.9502182  61.6560059  51.2465401  14.5254641  41.9925270  56.8563652
  14.5119038  41.6192360  57.7376709  13.6312323  41.8789635  56.5343666
  27.4260578  10.1166563   0.8747245  27.6255188   9.3897953   1.4647421
  28.2284775  10.2407961   0.3678269  64.1092148  32.3953590  30.5131092
  64.8005600  32.3767281  31.1748638  63.9561539  31.4746704  30.3006496
  36.5227013  63.7421303  57.0969429  35.6771202  64.0559082  56.7763710
  36.4109764  62.7950935  57.1798286  86.5228348  13.2353306  78.4353561
  86.2725754  13.7539139  79.1999969  87.3377228  12.8049450  78.6941223
  12.6502495  40.2839394  10.9654627  12.9010668  41.1782951  10.7342749
  11.8520708  40.1214867  10.4627180  47.2432938  53.6206970  66.6509628
  47.1158028  54.4913025  67.0278168  47.0400772  53.0179710  67.3662643
  66.2777481  69.8782730  62.5017433  67.0415726  69.7446594  61.9405403
  66.0893326  70.8140793  62.4310150  30.2689304  48.4849892  29.5001812
  30.0233097  48.1248589  28.6480026  30.5377064  47.7232018  30.0136738
  12.4541979  25.2368851   4.7923026  11.8844366  25.6699276   4.1566310
  11.9008646  24.5656319   5.1916418  54.8515434  54.7638016  59.8617249
  55.2908974  54.9052277  60.7002907  54.3216171  53.9784851  59.9984207
   4.8044505  65.5692520  15.0669575   4.7592907  65.8908386  15.9673891
   4.9392319  66.3557053  14.5382290  73.7021027  66.3405914  46.6768799
  73.8669739  65.4693298  47.0373726  73.8631668  66.9367981  47.4082031
  67.1285553  27.8769512  71.3327026  67.7657394  27.4075890  71.8711548
  67.6586914  28.4518051  70.7806778  28.2486076  48.6963615  33.7121239
  27.9069309  47.8165627  33.5526047  29.1859818  48.5667801  33.8562317
  62.0349350   0.7078247  46.8886681  61.6450958   0.5793059  47.7533875
  61.8271637  -0.0949656  46.4105568  64.3410339  37.5886574  27.6500416
  64.2341232  37.6675339  26.7021065  64.2279358  38.4804649  27.9788551
  12.1258011  43.0271568  55.3416214  12.0338917  43.9590149  55.5401917
  11.2732973  42.6505432  55.5598640  21.0749664  38.3564796  87.5637741
  20.6779652  38.2682838  86.6972656  20.6489544  39.1240082  87.9454117
  53.1121674  55.5541382  42.7356834  53.2626610  55.5230751  43.6804695
  53.6817322  56.2581139  42.4254456  55.4241714  48.0483742  81.5657272
  54.9259529  47.3656807  82.0151062  54.9572411  48.8588295  81.7691116
  52.9981880   9.4729719  40.3932877  52.9791412   8.8232775  41.0959740
  52.3153839   9.1886930  39.7856712  62.6170311  12.3708134  77.1913376
  63.3767357  11.7886524  77.1783066  61.9369469  11.8876305  76.7220230
  58.6439133  50.1936951  20.2174244  58.8651657  49.2894096  19.9948368
  58.1896172  50.1292877  21.0574837   9.0697784  61.5844193  24.3862400
   8.2695169  61.1669884  24.7049332   9.4386539  62.0151749  25.1573486
  75.6519089   8.1951342  65.2768402  76.3795013   8.7578745  65.0119553
  74.9385681   8.4308434  64.6836929  45.7538872  65.2024002  27.9947739
  45.7690887  66.0610275  27.5719700  45.7308540  65.3971405  28.9316711
  12.5550737  44.5491982  41.7186317  12.5415668  45.4758492  41.9581413
  11.6322651  44.2972908  41.6839981  18.5037117  65.5445862  13.1131268
  19.0558243  64.7728271  13.2387810  17.6253624  65.1905899  12.9737663
  18.1979389  33.2068672  68.0042191  18.4017143  32.2968712  67.7883148
  18.4653206  33.7023392  67.2301102   1.0872401  14.0438738  46.5737839
   1.7288611  13.7017813  45.9512672   1.1372380  13.4478683  47.3211174
  17.0745945  18.8068066  13.2396450  17.3989677  18.2452908  13.9437141
  16.1251392  18.6863155  13.2553539  24.3984070   0.3456795   5.5977569
  24.5801487  -0.1247933   4.7842107  25.2618484   0.5885351   5.9320054
  19.5612240   2.5195911   9.9407549  20.4438190   2.2486594   9.6880598
  19.2022591   1.7633930  10.4050169  12.6029463  50.2909927  12.5142937
  12.5163746  50.9035645  11.7838869  13.3305206  49.7214622  12.2642889
  85.4867477   7.5805082  15.0602007  85.6081467   8.3024988  14.4435778
  86.3216171   7.5190110  15.5243587  52.7709999  51.0086899  10.3229084
  53.6420708  50.7292900  10.0411272  52.6675453  50.6274033  11.1947756
  67.3301392  15.8931417  22.8963051  67.1220474  16.2952290  22.0529461
  67.8221893  15.1037817  22.6703968  69.9403610  32.9896774  16.7790756
  69.3745117  32.3184662  16.3976021  70.5832443  32.4985275  17.2906399
  72.7117691   5.8193154  33.7569962  73.5251770   6.0110378  33.2902527
  72.2731247   5.1639180  33.2145271  44.7868996  69.3982849  57.5796700
  44.8911896  69.7483902  58.4644203  44.1820297  68.6635895  57.6825714
   3.1094067  24.6627197  19.3894730   2.6586392  24.6349888  18.5455112
   3.5416818  25.5166569  19.4021816  49.7492905  19.3883743  10.7617683
  49.5437050  19.0731373  11.6418781  48.9478493  19.8226204  10.4696074
  75.5346451   2.5725212  83.5305939  75.2680359   1.9695923  82.8365936
  75.3452072   3.4421120  83.1782303  73.8178406  66.6837006  19.4948120
  72.9972382  66.7031021  19.9872227  74.3674469  66.0603027  19.9697132
   5.3675628  61.8631859   6.6650076   6.0828762  61.2419777   6.8016028
   5.7996745  62.6652565   6.3714199  73.9466476  21.6929607  79.6637497
  74.5454254  21.3311672  80.3170547  73.5471497  20.9256439  79.2540512
  18.9926071  60.5869370  52.3253250  18.4270878  59.8148117  52.3409042
  19.2411423  60.6832733  51.4059868  58.0882797  70.3968277  59.3422089
  58.0855865  70.5479431  60.2874031  58.0209770  69.4463196  59.2514267
  58.3412132   7.7967076  22.4724598  57.6005630   7.1918478  22.4298859
  58.3478851   8.2277250  21.6178188  13.6804543  31.2940903  46.5436172
  14.0059595  31.8477097  47.2533913  12.7449551  31.4910755  46.4959869
  33.1630478  53.6215286   6.0353518  34.0140724  53.2544556   6.2746258
  32.8787003  53.0983391   5.2859178  81.6022186  31.6482277  56.7311249
  81.2333908  32.2029610  57.4184875  82.3675003  31.2409286  57.1369362
  58.4027824  64.1448441  14.2596807  58.2143517  63.2066154  14.2810955
  57.8724174  64.5118561  14.9669600  74.4716721  53.9279404  59.4604340
  74.1862106  54.1136436  58.5658607  73.9585114  53.1633453  59.7217445
  76.5967941  57.3810005  11.6817131  77.3970566  57.1282349  11.2213526
  76.8697968  58.0884590  12.2658396  85.5067673   0.0243445  53.9340477
  86.3470688   0.2936214  53.5630760  85.1666031   0.8139989  54.3547211
  25.7444096  46.8433342  57.1282768  24.9832058  46.3619690  57.4524460
  25.3986588  47.7018204  56.8839531  70.1342316  59.4555740  56.9301758
  69.5475159  59.0869904  57.5905914  70.7082901  58.7290611  56.6875534
  37.2574844  38.8013916  38.2534256  36.7455673  38.1927757  37.7207375
  37.5697632  39.4592018  37.6321373  30.2170315  51.8892555  73.7899704
  30.0270329  50.9632835  73.6392746  30.0578499  52.0173225  74.7251129
   0.2013218   5.7417650  21.3989220  -0.4926680   5.4326644  21.9812164
   0.3059107   6.6669593  21.6209774  11.5055275  66.6403427   5.4295282
  10.9398146  66.1172638   4.8615594  10.9471340  66.8791962   6.1693778
  47.8664703  54.6247101  33.8065338  47.6639175  54.8967819  34.7016220
  48.7244492  55.0095291  33.6275902  68.2391357  24.4156895   3.2630069
  68.9297180  24.1339111   3.8629484  67.6879654  24.9961262   3.7879252
  67.7362289  36.3401375  84.4451447  67.0298386  35.9975891  83.8975143
  67.6406784  35.8764648  85.2770767  76.4270325  50.2507248  58.8138466
  76.4471893  50.6662178  57.9517632  75.5909271  49.7852478  58.8358955
  85.1512985  44.2429771  69.9306030  84.9901657  43.3464317  70.2246704
  84.4137878  44.7449989  70.2774124  73.2420807  20.9604683  11.3957758
  72.9877243  21.7753181  11.8288479  72.4280701  20.4615936  11.3269558
  77.6932526  38.0410271  26.2560349  77.4696960  37.6805916  25.3979321
  78.6502762  38.0546150  26.2681713  24.6629276  62.5290604  58.1751099
  24.5905361  63.3171310  58.7135696  23.7588921  62.2401886  58.0505867
  22.9134712  56.3094177  13.6409483  22.4355049  55.7946625  12.9907112
  22.7776604  57.2184715  13.3737144  30.8738976  63.0306969  35.7070694
  30.0090923  63.3014603  36.0153465  31.4802361  63.6382141  36.1307564
  17.3532963  37.9918213  63.9833679  16.4542751  38.2974434  63.8625946
  17.8901558  38.6416855  63.5298347  77.9671631  62.2852592  61.1396523
  78.6224976  62.9829140  61.1332130  78.1506653  61.7769775  60.3495827
  32.5796928  40.3155251  31.6243839  31.7740402  40.3925285  31.1132851
  33.2817116  40.4109917  30.9807301   4.2341084  34.6595726  47.0806503
   3.9688866  34.2217712  47.8894882   3.4384496  35.0917892  46.7702522
   1.6899457  18.0899963  13.8340673   0.9463497  18.6237144  13.5539923
   2.4580491  18.5611439  13.5111599  27.9596081  -0.3406314  54.9298706
  27.7736473  -0.0785695  55.8315201  27.7471523   0.4325261  54.4070663
  51.1914902  53.1050453  11.7866840  51.4407463  54.0288429  11.8132095
  51.9443970  52.6650581  11.3920050  59.6676178  35.2819977  75.6414948
  60.2672768  35.8060913  75.1104889  59.8731384  35.5242538  76.5444412
  56.8709564  30.4536419  35.1575661  56.2637444  30.4353390  35.8972893
  57.7318497  30.5771275  35.5573730  73.2253265  30.3199253  28.4647484
  73.8510132  30.9173737  28.0551090  73.0927887  30.6770782  29.3428745
  85.0657425   5.6662149   1.3986866  84.6948318   6.3109121   2.0012000
  85.3130722   4.9300027   1.9581956   6.1392546  16.2463264  78.2024536
   6.1082563  16.8528004  77.4625549   6.7663250  16.6402702  78.8089371
  82.8335876  63.6885643  11.3568325  82.1219025  64.2412338  11.0338936
  83.2403870  63.3352852  10.5656672  64.2510071  41.5315971  66.2835922
  65.0534821  41.7700920  65.8195038  64.4565811  40.6965561  66.7039337
  84.9390869  19.2546558   3.8665206  84.2424011  18.9874439   4.4660707
  84.9690475  20.2082481   3.9439483  53.8929939  16.7371902  49.8670959
  54.6384773  16.1385880  49.8206329  54.1224670  17.4520569  49.2733459
   8.3766775  51.3525696  48.8175697   8.5160503  52.2805367  49.0064583
   9.1718483  51.0791855  48.3601913  37.3026199  36.7218781   7.7452316
  36.4586525  36.4803047   7.3636637  37.5108376  36.0022926   8.3411102
  21.5974369  22.0665684  28.2509842  21.2397919  22.8239994  28.7142563
  21.0657635  21.9978619  27.4579926  72.9101105  41.3222542  84.7553406
  72.8154526  42.2712250  84.6733398  73.8168793  41.1492424  84.5022278
  41.3644028  34.4292908  87.3893890  41.0127831  34.5437469  88.2722855
  42.1843109  33.9524040  87.5180740  57.0812492  52.0730858  31.2674751
  56.7132912  52.9547462  31.2081985  56.3179626  51.4958229  31.2871857
  80.7606430  64.6041412  87.2608414  79.8547134  64.3800049  87.4736481
  81.0776138  65.0766754  88.0305634  78.3492203  64.0173187   8.3734512
  78.6068344  63.1933365   7.9600310  77.7897415  63.7540283   9.1041307
  71.5133209  30.8624554  73.3291931  71.8702240  30.8119431  74.2159271
  71.5691376  29.9664326  72.9971466  20.5388088   1.0602863  21.8402729
  21.0624599   0.3647153  22.2380161  20.6576366   0.9405624  20.8980522
  12.6542301  49.8428574  62.9439621  12.8269901  50.5742950  62.3511848
  12.0107403  50.1845322  63.5647774  72.4725342  57.5674248  14.5440197
  73.0741959  58.0986557  15.0655832  73.0408249  57.0676765  13.9579058
  49.8196831  26.9747982  75.9181900  49.9264374  27.8999557  75.6970215
  48.9892082  26.7258415  75.5125198  45.7337723  65.8772812  80.4205627
  44.8362617  65.7271118  80.7174606  46.2393188  65.9773026  81.2271957
  66.5680923  33.5603828  20.9221058  66.8314896  32.8362350  20.3542480
  65.6166077  33.4792557  20.9879494  39.1811943  58.5077744  29.8278370
  40.0854340  58.6736107  30.0944557  38.6823921  58.5322380  30.6444340
  17.8436832  52.5096054  84.6066666  18.1343689  52.9451332  83.8053818
  16.9610538  52.1995354  84.4040527  68.3062515  52.2327347  41.4763336
  69.1150284  51.7849083  41.7244415  68.0053864  52.6488571  42.2841415
  54.0416870  57.6015739  30.4075165  54.8688087  57.3240166  30.0137310
  54.1649513  57.4626656  31.3465271  65.1029053   3.0920646  86.5064545
  64.7076416   3.9638338  86.5106430  65.9925461   3.2340064  86.1830139
  83.4223328  34.4762383  73.4142609  84.3331985  34.7096710  73.2352066
  83.0323257  34.3522072  72.5489578  44.7105904  32.2534027  30.4569721
  44.7954865  32.4122810  31.3970699  45.6062202  32.3059731  30.1233387
   0.8260160  26.7703629  24.6303253   1.2879555  26.6822014  25.4640350
   0.4298937  25.9113503  24.4839821  51.8536644  29.9252663  10.1014881
  51.6363144  29.5643959   9.2419748  52.8042717  30.0356064  10.0815086
  19.6857033   6.4488502  32.2421951  20.1408939   7.2644300  32.4516296
  19.6467285   6.4350758  31.2858887  13.7041893  29.5360222  82.3859558
  14.3702393  28.9305115  82.7114792  14.1755514  30.1069870  81.7792892
  51.5583572  13.5734911   6.7956800  51.3645477  13.3760033   5.8793464
  52.4515381  13.2547922   6.9256458  66.9709854  62.7550354  86.8890686
  67.2386551  63.5627480  86.4506760  66.0451660  62.8883286  87.0923386
  57.4680328   2.4375713   4.0521989  56.8338203   1.7232617   3.9907930
  57.6867867   2.4842927   4.9828954  65.4568939   7.5909677  49.8425484
  64.6004181   7.6499715  49.4192200  65.4311676   6.7621064  50.3206291
  18.3331642  56.8370171  14.1369724  18.2222118  57.4025383  13.3727045
  18.7368336  57.4016342  14.7961321  56.9134483  45.1932526  85.6715088
  57.3529739  45.4332237  84.8557434  56.0034714  45.0399895  85.4171753
  61.6627235  20.9638214  17.2628269  60.9217186  20.9334164  17.8679867
  61.2979317  20.6840668  16.4232464  22.1560459  52.6031418  70.1077576
  22.8813229  52.1898727  69.6393433  21.3840103  52.4028130  69.5785446
  73.0137024  53.3393784  28.8253765  72.4864044  53.3048477  28.0272560
  72.5975571  54.0169487  29.3582497  52.8370476  19.1198273  26.3200340
  51.9249992  19.1554813  26.0317097  52.8250732  18.5397091  27.0813179
  42.3670959  66.4153061  36.9095688  42.1231270  66.4474487  37.8345947
  42.6087723  67.3161011  36.6941643  56.6203804  58.9738159  28.3582134
  56.8931160  59.1859550  27.4655533  55.8120651  59.4703140  28.4860687
  46.5196114  40.5150948  67.8564301  46.0909576  39.7907906  67.4005051
  45.8134308  40.9470139  68.3370438   2.2374377  37.3654671  74.0964966
   2.9208128  37.4791451  74.7570343   1.4280101  37.6110001  74.5445786
  69.3999863  21.7002220  52.3717384  69.8254929  22.1926975  51.6698532
  69.2611542  20.8281593  52.0023308  72.4343491  58.8122559  20.9198742
  72.0860672  58.2988281  20.1909542  73.0918732  58.2437096  21.3206921
  85.0309219  64.9736862  16.8527851  85.0312653  64.6210327  15.9629154
  85.1060028  65.9206619  16.7351665  13.1668549  44.4233093  76.0916595
  13.1955681  45.3385277  75.8127594  12.2492390  44.2702789  76.3170319
   1.0505575  18.3589115  86.3449478   1.2539771  17.9705429  87.1958466
   0.1463860  18.0966454  86.1719666  34.0395927  44.3377762  45.8202324
  34.5889854  44.0373306  46.5442009  34.5578117  45.0200882  45.3934631
  61.4227562  13.6795883  35.0851784  61.3177681  12.8368959  34.6435013
  60.8928947  14.2877703  34.5698204  30.3537598  12.1602983  11.9854383
  30.5671120  11.3987913  11.4461603  30.5123882  11.8697643  12.8835802
   1.4668704  22.1129951   3.8899758   1.6919570  23.0339451   4.0219555
   2.1699529  21.6299801   4.3242617  83.7038727  56.7772026  86.1478806
  83.3521652  56.0892868  85.5828094  84.2513275  57.3067741  85.5681610
  25.5506687   9.1941252  31.6671124  25.8334293   9.5743732  32.4987907
  25.3520889   9.9494190  31.1136417  64.3938446  12.2849312  30.3921375
  65.0121765  12.9234724  30.7473316  64.1783905  12.6189127  29.5213528
  55.2291603  42.0166855  86.1681824  55.9973717  41.5368805  85.8585510
  54.9257889  41.5188560  86.9273682  47.4438095  63.9332962  26.4332161
  46.8375664  64.4712296  26.9424629  48.2781982  64.3996429  26.4837246
  51.2606544  58.7243767   8.2588472  50.9333496  57.8514671   8.4759436
  50.9827156  58.8661766   7.3539300  85.6417542  11.2370434  48.2610092
  86.4179840  11.4785528  47.7556686  85.8951721  11.3810139  49.1727562
  74.8863678  53.7508125  24.2290478  74.7859573  54.5401115  24.7611732
  75.7754517  53.8092804  23.8792610  72.4685898   9.1094398  38.9395828
  73.3691406   8.8988562  39.1863708  72.5532227   9.8346853  38.3206406
  79.3885269   4.4934511  78.4908524  78.7544022   4.7736130  77.8308334
  80.0821457   5.1519008  78.4513016  37.0678864  53.3934135   8.9568682
  36.5241585  53.4879036   9.7389565  37.9425201  53.6605339   9.2395267
  66.2246170  42.2521362  28.9060936  65.8748550  41.5396919  28.3710098
  66.4011536  42.9560432  28.2819290  72.1336899  46.2461853  82.7169647
  72.7889633  46.8926086  82.4543152  71.4709015  46.7536926  83.1853485
  26.3291359  27.1044388  83.3306274  26.4446774  27.7601948  84.0182724
  26.6753254  26.2964764  83.7095490  50.9426308  51.7414513  63.3566170
  50.4510002  52.0862465  64.1020355  50.4190750  51.0030785  63.0452881
  43.1899719  43.7394600  82.2053452  43.7405396  44.4323616  81.8406677
  43.7560158  43.2885590  82.8318558  17.6364479  40.5916939  75.4246140
  18.2120380  41.2911720  75.1153259  17.0400906  40.4312935  74.6932755
  12.2505283  12.5330620  23.5993423  12.5240059  12.8640127  24.4548607
  11.6031666  13.1679773  23.2926884  46.4881325  56.8654137  40.7331047
  47.3454094  56.4445953  40.6681442  46.6855240  57.7961731  40.8377647
  62.9952431  48.0283890  29.3642979  63.9489403  48.1055679  29.3371849
  62.6782379  48.8266792  28.9418392  42.2038651  59.1743431  75.3095779
  41.3557587  58.8001709  75.0709534  41.9884491  59.9084663  75.8848038
  31.4422817  36.9138336  18.7020245  30.5357170  36.7675552  18.4318886
  31.3975105  37.6641769  19.2946548  51.0367508  37.3700447  33.2340317
  51.2100677  36.4757767  33.5281029  51.0896149  37.8985252  34.0303688
  56.8365936  44.9123611  26.4460545  57.3116379  44.9451904  25.6156998
  55.9772835  45.2831383  26.2452049   3.1937125  67.1742325  87.9694138
   3.3408124  67.0269547  88.9037018   3.7613425  66.5380173  87.5343704
   7.1887565  37.1655846  54.1744919   6.4978623  37.8279610  54.1621132
   7.8209844  37.4908905  54.8153458  83.8411789  63.4061928  67.2629547
  83.2864151  62.7011986  66.9291077  84.7167435  63.0218353  67.3063736
  80.3123856   3.2400231   0.7873679  80.6624146   2.9739063   1.6375996
  80.4113922   4.1920080   0.7749288  50.2701416  62.9295807  24.6052246
  51.1158180  62.4864693  24.6739101  49.9935265  63.0596504  25.5123062
  25.5855541  50.5984383  34.6672974  26.0136509  50.5327530  33.8136902
  26.2699795  50.3709717  35.2966270  83.5488205  48.1756592  65.9004898
  84.0982361  47.4001541  65.7866211  82.9172821  48.1292610  65.1826935
  11.9401808  27.8257999  78.3708725  12.3412256  27.0070114  78.0793610
  11.0974989  27.5615978  78.7400894  19.2974453   9.6131258  60.7383461
  19.7973919   8.8157730  60.9130325  19.9169960  10.3245859  60.9002457
  14.8316622  38.4075394  62.7180634  13.9119873  38.6335335  62.8571854
  14.8443956  37.9684448  61.8676109  68.5744553  64.8545685  47.5257301
  68.4042358  64.3650436  46.7209778  69.5290222  64.8904343  47.5868874
  11.0685530  34.6631546  78.1131897  11.0345402  34.9019051  77.1868668
  11.4072332  33.7678833  78.1175003  41.4011383  11.6092834  79.1830292
  41.1430588  11.3134861  78.3100281  40.8615189  11.0916033  79.7805710
  43.7572060  12.5627136   9.1785049  44.1511002  11.6951437   9.2701654
  44.5015488  13.1520157   9.0563984  56.5510521  10.2283125  79.5414734
  55.9197960  10.1508865  80.2568359  56.0162010  10.4097881  78.7686691
  80.9208908   6.9777732  23.7342453  80.0942612   6.8623180  24.2028446
  80.8359604   7.8290715  23.3049316  30.9475632  59.9223671   2.3368089
  30.9186745  59.8776436   3.2925270  31.8718204  59.8014145   2.1192043
  15.5001774  64.4350510   7.2029123  15.9848537  64.1030045   6.4472232
  15.7579813  65.3546066   7.2675910  35.6563873  10.9077635  73.1303177
  34.7901878  11.2694550  72.9429550  36.2663155  11.5264721  72.7285538
  57.5283623  26.9133720  71.9335785  57.6744728  27.8358707  72.1430511
  56.8593063  26.6293850  72.5564270  60.0395012  27.9855633   5.5061750
  59.8904686  27.6983395   6.4070215  59.7814293  27.2358379   4.9699454
  67.3207474  44.1214027  44.2678337  67.1185608  44.2198868  43.3374329
  67.0507507  43.2275124  44.4782982  20.3136139  62.7549477  27.3708839
  19.5102558  62.2592697  27.2122917  20.7407417  62.2941666  28.0930138
  73.5624161  45.8237839  22.1933289  73.5157394  44.8902092  21.9871845
  72.7095566  46.0272026  22.5773525  75.7865524   5.3169498  36.5103226
  74.8387146   5.2273831  36.4112663  76.1102600   5.4381852  35.6177177
   3.0465572  17.9653988  50.4513626   2.5869892  17.1263237  50.4200325
   2.8055217  18.4011688  49.6339035  31.0163479  41.9086914  25.0331097
  30.0911465  42.1291466  25.1409740  31.4419708  42.2759361  25.8078423
   8.2012644  13.6220102  46.5754089   7.2822580  13.8387260  46.4182701
   8.6821184  14.4015026  46.2971916  43.7441940   2.0401897   2.8542571
  42.8901329   1.8849218   2.4508944  43.5712051   2.6841009   3.5410500
  79.5508881  59.2305717  35.6470070  79.1356506  60.0220947  35.3045158
  79.5801468  59.3660851  36.5941124  40.6375008  38.1913147  16.3254852
  39.8321533  38.6884193  16.4687920  40.8138771  37.7729378  17.1681519
  81.3243332   6.2002521  62.5763969  82.2590942   6.3600750  62.4463692
  80.9992065   7.0014420  62.9870300  31.6543388  48.1553841   6.7717900
  31.8874168  48.8286705   6.1325755  32.1503105  47.3836784   6.4984593
  45.0211411  21.0721912   8.9712362  45.1890335  21.9809399   9.2206745
  44.0773621  20.9624233   9.0872889   4.6644235  22.6973896  16.3759651
   4.4000864  22.4168930  17.2521381   4.1525631  22.1466656  15.7835703
  29.5981140  43.4034958  51.5640526  29.8475246  42.5484200  51.2135162
  28.6854916  43.2956314  51.8318558  44.3410492  19.6248379  78.6719742
  44.5264702  18.9162979  79.2882690  43.3877029  19.6242733  78.5861588
  65.3670654   8.8421688  61.0013199  65.9097214   8.9080744  60.2155609
  64.6167068   9.4089060  60.8224182  36.0614700  49.1782074  64.1106186
  36.5539894  49.9842072  63.9556389  35.1454468  49.4317017  63.9971581
  79.7070847  23.6054039  48.7735367  79.4755859  23.7579765  49.6897011
  80.1307144  22.7470512  48.7732849  72.5499878  54.5950813  46.0459824
  72.4420929  54.4609795  45.1043854  71.6561584  54.6382294  46.3857422
  52.9728661  20.0128517  37.7318153  52.0296364  20.0675850  37.5783615
  53.2987862  19.4567566  37.0241661   7.1025939  59.8157349   7.1751971
   6.9635258  58.9055290   6.9136324   7.6334152  59.7582092   7.9696474
  78.9105606  56.6465569  29.7748032  78.8594589  57.0408325  28.9040756
  78.9523315  57.3923569  30.3733578  85.7734222  57.5621605  51.4649124
  85.8109818  57.2423325  50.5635071  86.4492340  57.0636711  51.9242783
  51.3815765  28.3519726  59.2233086  52.2602386  28.6274395  58.9619675
  50.8625984  29.1560192  59.2032013  50.2021141  65.7496948  71.8120270
  50.8875313  65.1604004  72.1269379  49.3843040  65.3312302  72.0809402
  74.7708588  44.2644157  61.3418961  75.2453308  44.5990143  60.5808754
  74.1737823  43.6082840  60.9824142  62.0675812  49.4770432   9.6979980
  62.7314415  48.8572731  10.0003347  62.1375504  49.4563179   8.7435837
  46.7616463  33.5831184  18.9797096  46.1092987  33.0348244  19.4156494
  47.3694572  33.8317833  19.6761017   0.5967217  64.3539047  44.6374207
   0.0192487  64.6566315  43.9366226   0.4957724  65.0070190  45.3298721
  65.8107834  20.8003159  44.5276833  66.1666870  20.5192738  43.6847267
  65.0795898  20.2042122  44.6896820  48.7409286  42.1434822   1.7862477
  48.1157951  42.2718735   2.4996591  48.7202721  41.2017212   1.6162750
  81.8040161  56.4327278  61.8281631  80.9191513  56.7819099  61.9345207
  82.0768051  56.1973190  62.7149544   4.8184590  56.7791138  27.4408169
   5.1091323  57.6464691  27.7226696   5.4280124  56.1734657  27.8625603
   8.9213390  40.0651398   2.1274905   9.3622236  40.0241394   1.2788612
   9.2728024  40.8530121   2.5421743   1.0518382  38.4014931  80.2282562
   1.7393684  38.7257614  80.8099670   1.5245663  37.9878502  79.5059967
   4.0874667   3.1308515   6.3485098   5.0249581   3.0101306   6.1976209
   3.6697102   2.7531435   5.5745277   6.9090910  17.8252258  70.3377533
   7.1398530  18.6318836  70.7984924   6.6642261  18.1133308  69.4583969
   5.4182105   8.3604679  51.1808701   5.6333647   8.9334116  50.4448814
   5.5445046   7.4749899  50.8399696  82.7823486  43.5396690  48.3536797
  81.8983231  43.2771492  48.6102219  83.1753082  42.7424469  47.9983521
  62.3855858  42.1346741  24.6352253  61.9847565  41.2665520  24.6791573
  61.9535866  42.5607605  23.8949165  75.7068787  41.0274048  66.1504135
  74.8929443  40.9706879  66.6509399  76.1863861  40.2319984  66.3819962
  21.9626560  21.8112907  86.7498169  22.7297134  21.5815811  86.2253265
  21.4209442  21.0221825  86.7402878  41.2158890  26.8850269  73.6497269
  40.6398888  27.1207218  72.9224701  41.5835228  27.7184219  73.9438934
  84.7494965  65.5466843  62.3632545  84.8904114  66.4903030  62.4404411
  84.0240860  65.3632278  62.9602089  24.1870518  24.6514511  44.2379723
  24.2135639  25.6052666  44.3138924  24.5312557  24.4711494  43.3631897
  60.1784363  44.4448967  75.1549683  59.3269539  44.6749535  75.5268250
  59.9786453  44.1389236  74.2702637  69.6860199  11.5859938  78.5956421
  69.9619141  12.0929537  77.8320236  69.9368057  12.1261034  79.3450546
  32.0868950  49.7961197  19.4244499  31.6028156  50.4056549  18.8673439
  33.0071182  50.0092735  19.2695847   0.7770702   8.6810036  80.2605820
   0.0671913   9.2095337  79.8959503   1.0611186   8.1270895  79.5334473
  15.9593687  43.5602493  26.4469090  15.5665531  42.7318382  26.7219791
  15.8165560  44.1504173  27.1868649  36.7384224   7.2990003   8.9799128
  37.4551811   6.8353815   8.5468483  36.7271500   6.9453087   9.8692989
   7.6498022  15.4517946  81.6825409   8.5509815  15.1509304  81.5659714
   7.1122532  14.6987867  81.4370804  18.1810665  24.9508419  12.0881872
  17.8952923  24.8453693  11.1807518  18.9805450  24.4280910  12.1498175
   5.3899851  13.2105703  18.8839703   5.7646031  12.3908768  19.2064552
   4.7498636  12.9389219  18.2261829  73.4837112  25.1616268  77.6878433
  74.0154114  25.8070107  78.1536789  73.0438766  24.6687546  78.3805542
  47.4866104  43.1427879  14.8678408  46.9219093  42.3856468  14.7126741
  47.8595047  43.3433990  14.0093899  40.3294563  45.6590652   8.6671448
  40.6629066  46.3970299   8.1568041  41.0906525  45.3394547   9.1515665
  27.5085907  39.9549599  26.4268284  27.6221275  40.0675240  27.3705826
  27.1084023  40.7738342  26.1343803  66.3928146  43.8057899  38.6826172
  67.3203583  43.9659462  38.5087204  66.1830597  43.0279083  38.1657600
  46.2736740  66.5731659  66.4224014  46.2973061  65.6392059  66.2140884
  46.8782768  66.6698303  67.1581650  60.7229881  43.6675186  12.8860950
  61.3997498  43.2411575  13.4118738  61.2027054  44.2827606  12.3314915
   8.7271986  58.2910423  54.6783142   8.6388378  58.0051041  55.5875282
   9.5804367  57.9553375  54.4035072  35.9969292  39.4053535  44.1609001
  35.8119049  40.2078133  44.6488113  36.1917038  38.7545471  44.8352509
   2.9217353  48.1105156  36.4920044   3.3862329  47.5817986  35.8432121
   3.0832119  49.0150795  36.2238235  76.2766647  13.6096325  85.8061523
  77.1198959  14.0580616  85.8701935  75.6758118  14.1558437  86.3129654
   4.3913555  57.8207092  54.0762062   4.2203922  58.7114449  53.7702751
   3.5224502  57.4355888  54.1898651  62.1814079  39.7517700  64.1187134
  61.4063225  39.1940269  64.0523834  62.1244698  40.1379967  64.9926834
  20.5017548  41.4954643  16.0691433  20.1919346  40.9644737  16.8028278
  19.7771664  41.4858818  15.4437532  44.7329407  42.9848709   4.5129752
  44.2003822  42.1895370   4.5206466  45.1426239  42.9904556   3.6478972
  33.9713821  58.5227852  81.8672333  33.9465828  58.1505318  82.7487335
  33.2340240  59.1326942  81.8439789  57.7673607  35.9209518  15.8210821
  57.5950394  35.6177635  16.7124920  58.6928787  36.1651382  15.8258638
  32.3623466  57.2221756  36.9148369  32.3904915  57.1291275  35.9625854
  33.2700768  57.3934479  37.1656837  74.3296967  60.3570633  19.0769024
  74.1044617  60.5385437  19.9893513  74.0218048  61.1257553  18.5967522
  85.7414856  42.3461494  85.4077148  84.9579239  41.7972031  85.3772736
  86.2981949  42.0080414  84.7062912  59.0899811  50.6460609  47.2915077
  59.1955147  50.9207802  46.3806686  58.2554855  51.0290337  47.5620308
   3.3828964  17.0911388  23.6361408   3.3289316  17.1208820  24.5913563
   2.7409854  17.7363892  23.3397751  79.7681732  36.9252968  65.4567108
  80.4113159  37.4987831  65.8734970  79.4409027  36.3752823  66.1684723
  57.4193726   7.2168584  34.2759666  57.3755455   8.0039473  33.7330093
  56.7456665   6.6398778  33.9161797   5.1125660  58.5778694  22.0146446
   5.6526179  58.0005150  22.5543060   5.5234866  59.4382477  22.0990753
  82.0130463  67.3636780  76.2486954  81.5757828  68.0794525  75.7875137
  81.4080124  67.1265945  76.9515152  54.6725159  38.4136925  56.9235458
  55.0969620  37.6107483  56.6212845  53.8048019  38.3924446  56.5200005
  40.6244469  47.6327362   6.6584120  40.4294052  47.5974159   5.7219596
  40.8717270  48.5436783   6.8173685  60.2852211  68.9636307   0.5543795
  60.5621834  68.2482910   1.1269268  60.4597321  69.7569656   1.0607359
  49.4694977  28.3465157  25.3451214  49.3595085  28.9171352  26.1057320
  49.4293671  28.9383602  24.5938950  48.3374329  28.4163456   0.6883980
  47.9941292  27.5426407   0.5012677  47.8518753  28.9953728   0.1008644
  23.1976242  46.9810371  71.8021469  22.8477497  47.8708344  71.7564926
  23.0900517  46.6356125  70.9159546  49.6845360   0.5766795  46.0862656
  50.3303490  -0.0712276  46.3680038  49.8252640   0.6607110  45.1432037
  67.6374588  15.0048771  65.9098282  67.5263062  14.2010508  65.4021454
  67.3556061  14.7705870  66.7940750  76.0771332  63.7542801  16.3577557
  76.9476089  63.3676796  16.2626114  76.1391830  64.5974579  15.9089499
  47.8204880  24.7978745  28.7174988  47.2259102  25.5407925  28.6136513
  47.7107811  24.2891808  27.9141140  26.0171223  20.8768959  71.3568192
  26.8164597  20.5786457  70.9228363  25.3386326  20.2764320  71.0480652
  40.5783272   0.5413962  17.6094494  41.4476433   0.5748203  17.2101955
  40.0121117   1.0007563  16.9892712  65.7175980   3.9992523  83.1814499
  65.4194031   4.0754452  84.0878143  66.6709900   4.0642219  83.2367096
  57.4317284  17.2424717  21.4560757  57.7936859  16.3638954  21.3406506
  56.5687523  17.0969486  21.8437939  13.9135590  49.2721291  24.6053829
  14.0722694  49.9330711  25.2793255  13.6294394  48.4979553  25.0913525
   7.9376082   8.7704639  38.1042213   7.1605186   8.2146759  38.1630707
   8.3184395   8.5602055  37.2515831  71.6439056  47.1054726  41.6650047
  71.8305969  47.3880692  42.5602798  72.3117447  47.5382042  41.1330643
  77.5130692  30.2690220  37.5265083  77.3977509  29.8693542  36.6644211
  78.4177170  30.0668240  37.7651749  31.7814312  42.9401054  27.9447727
  31.6022644  42.0606956  28.2775936  31.4634132  43.5256653  28.6319523
  78.7927780  57.6308174  76.5815048  78.6148071  57.2313194  75.7300568
  78.3805466  58.4932976  76.5322495  59.4415779   5.8930583  86.0180969
  59.0152206   5.0361166  86.0280991  58.8154411   6.4669700  85.5767288
  60.4542656  25.8032360  10.9143419  61.2675667  25.9493866  11.3974657
  59.9620438  26.6170597  11.0222321  23.8392315  25.7449360  15.8291483
  23.6985912  26.6756287  15.6551905  23.5786247  25.3077030  15.0185041
  43.0271873  55.3545609  33.7984428  42.2942505  55.0335808  33.2730827
  43.8052750  55.1195755  33.2928772  75.2612000  10.5086050  37.0735703
  75.2447586  11.2834673  36.5118294  74.3718033  10.1581993  37.0243797
  10.9522285  42.9158936  11.3981743  10.1744404  42.9024200  10.8404150
  11.6870213  42.9010391  10.7849121  27.5179577  60.7568398  39.0949898
  28.1836205  60.1658630  39.4469376  27.1140118  61.1503792  39.8684158
  48.2611313  59.1239891  62.3086891  49.0765114  59.6222610  62.3644943
  48.5312080  58.2109375  62.4068069  81.8040543  62.8585701   4.1605883
  81.0366516  63.4291801   4.2020993  82.2132645  62.9444847   5.0216355
  41.5221405  16.1293430  73.9882126  41.2853775  15.9512377  74.8984070
  40.9867554  16.8845692  73.7448425  54.3425255  12.4319448  23.9591980
  53.8311615  12.4618673  23.1505928  53.7407341  12.0705204  24.6099262
  66.7437439  68.6093826  56.0722160  65.8202515  68.8233490  55.9394951
  67.1657715  69.4546890  56.2257843  44.6638336  69.4954758  89.0729065
  45.3339500  69.9339447  89.5972366  44.9965363  69.5362930  88.1763153
  32.9596100  48.2344933  73.6537247  33.0978394  47.3421326  73.9712372
  32.4347115  48.6529045  74.3361053   5.6405478  64.2156906  10.6703367
   6.1583347  64.2395096   9.8656254   5.8175163  65.0556030  11.0939665
  12.7596817  55.2155952  25.5800552  11.8212328  55.0292130  25.6084423
  13.1428022  54.4511108  25.1499252  53.8670807  53.4174080  21.3764877
  53.3443146  53.4260025  22.1782799  54.6765633  52.9700394  21.6231289
  62.9730530  15.1189976  28.0161629  62.4113541  15.2653275  27.2550335
  62.4652290  14.5354853  28.5799541  80.2886734   4.0324907  66.1773758
  80.7497864   4.1782112  67.0034332  79.3880310   3.8382065  66.4368668
  28.0422802  37.9924469  69.8138199  28.7777634  38.6022758  69.7554398
  28.0958004  37.6368752  70.7009125  54.8230896  66.6521912  15.9789248
  55.3484383  67.4151230  16.2201328  54.3560905  66.9231567  15.1885300
   9.7780924  63.2870789  70.9844284   9.2223215  64.0096436  71.2763977
  10.5759611  63.3726196  71.5062714   6.9974442  40.8404655  23.0033112
   7.0185900  40.3248711  22.1971169   7.7367554  41.4429588  22.9217587
  44.6112671  57.9137459  42.8492393  44.8570824  57.4287186  42.0614891
  45.4361305  58.2720032  43.1770859  79.0025406  58.5172958   8.6624498
  79.3004074  57.6262245   8.8454561  79.0783539  58.9721947   9.5012312
  29.2338600  63.3478355   0.4258123  28.8337688  64.1039658   0.8552575
  29.4140987  63.6462975  -0.4656286  37.0734787  47.0829735  67.6159058
  37.5967140  47.0131950  66.8174210  37.7179375  47.1823730  68.3166428
  60.9139557   7.0175576  40.0191383  61.7859192   6.8840508  39.6475296
  60.8130150   7.9686456  40.0575294   3.0568459  42.9842682  59.4114532
   2.8100736  42.9517899  58.4871788   3.5751357  42.1913681  59.5489807
  74.0272675  67.7384872  12.0676775  74.4966812  68.5575180  11.9093370
  73.1587982  67.8837585  11.6923237  26.4892273  32.0012131  71.2230377
  26.5213318  31.3455696  71.9196930  26.3847218  32.8342552  71.6827621
  11.5883303  65.6106567   9.4212332  12.4913406  65.7984772   9.6772175
  11.1806364  65.2668152  10.2160873  24.4437618   9.8920059  37.1868362
  24.5026245   8.9433212  37.2998238  25.0732937  10.2474451  37.8142014
  38.2724304  19.9867020  86.4279327  38.7335472  19.1735001  86.2222519
  38.9444275  20.6654835  86.3654251  39.8009071  29.3634300  77.8671646
  39.0522423  29.9272594  77.6726608  39.6042557  28.5409870  77.4186630
  16.3748970   2.4718342  27.2344227  15.6788540   2.8748615  27.7533875
  17.1781063   2.6703916  27.7157326  46.5773087  10.8914204  44.1556053
  47.5057411  10.7847357  44.3626404  46.1235733  10.6697445  44.9687538
  61.0559540  43.9806213   6.5186124  60.5250587  44.0149345   5.7228699
  60.9830627  44.8584633   6.8932033  58.4607506  27.8323898  14.0948496
  57.7367439  28.2550983  14.5567617  58.1136093  26.9789009  13.8354616
  80.7550278   2.4943726  12.3019133  81.4600754   3.0899405  12.5557604
  81.0055389   1.6515827  12.6803045  45.2275009  54.0314178  32.5939636
  46.1666985  54.0762939  32.7732048  45.1636620  54.0702858  31.6396847
  83.6634216  24.2204285  22.3498039  83.7116699  24.9399643  22.9792252
  82.8574600  23.7568474  22.5773010  78.6974487  52.2690125  55.9351387
  79.4469376  52.3403015  56.5262566  78.9147263  52.8451958  55.2023125
  65.5581741  23.3781147  74.7681427  66.4372940  23.5989132  74.4605331
  65.3013306  22.6237125  74.2379150  10.5926294  67.7831116  67.7595367
  11.5187788  67.9726639  67.6093826  10.5852556  66.8976746  68.1231079
  77.0542145  54.3570976   7.4310160  77.5286713  55.1590157   7.2118182
  76.3493118  54.3116913   6.7850447  75.8149796  60.0890427  35.1531944
  75.4012222  60.9426422  35.2812729  76.7499847  60.2834129  35.0883255
  36.2037888  70.7500153  51.0309486  35.4935608  70.8340378  50.3947525
  36.6800919  71.5779800  50.9689293  57.2228737  54.3303947  74.3888397
  56.6806602  53.6842499  74.8413086  57.2085876  55.0977516  74.9608459
  68.0520096  14.3108196  87.4906693  68.6102142  15.0358810  87.7716064
  67.7755127  13.8917265  88.3056183  19.9781761  65.9776459  64.1406021
  20.7271729  65.8020630  63.5710373  19.7008953  65.1134949  64.4448929
  71.8641891  49.3960991   3.4660752  71.7718887  50.3317986   3.2866921
  71.0082245  49.0254517   3.2511964  24.8258648  58.2102509  31.8117256
  24.7727642  57.9197426  32.7222290  25.7256584  58.5210075  31.7115574
  61.7278290  46.9040184  17.8054581  61.6999283  47.8553238  17.7031116
  60.9280167  46.5938797  17.3807831  62.8164062   6.2858386  17.6707439
  62.6194839   5.3963041  17.3771782  62.0963058   6.8157911  17.3289299
  52.3131447  11.3188095  74.5273972  51.3618660  11.4025545  74.4619064
  52.5091591  11.5228577  75.4418182  19.1177006  64.3006287   9.9524841
  19.6126423  63.6155853  10.4019041  19.7846775  64.9111786   9.6384726
  47.9746056  19.5262642  73.6945953  47.1695747  19.9483490  73.9945908
  47.9595566  19.6306019  72.7432175  73.7752075  13.6539984  15.1905193
  74.5530701  13.6280031  15.7477293  73.0857315  13.2574787  15.7230844
  77.3231277  61.0848427  82.6335678  77.5696793  60.6033630  81.8438721
  77.8916550  61.8549156  82.6318588  33.9569435  55.1496696  24.3996925
  34.0639305  55.3522568  25.3290710  33.0841713  54.7614632  24.3381023
  22.3621807  30.7943687  53.6592636  23.0263195  30.4736767  53.0490913
  21.5322437  30.4916649  53.2907448  51.0268707  68.7761536  78.5258255
  51.6024933  69.1324158  77.8490906  50.9952087  67.8370590  78.3432922
  50.3541489  24.9253654  39.1797371  50.0115891  25.1351280  38.3108978
  51.1025009  25.5118904  39.2901535  62.3009224  21.1795921  20.9849396
  62.8779907  21.9197445  21.1730728  62.7674713  20.6755581  20.3182220
  74.3539581  14.2943096  59.5270119  74.1631317  13.7019472  58.7997398
  73.5318069  14.3479624  60.0142670  63.6412697  38.1343498  59.1113014
  63.4406204  38.4110565  60.0053978  63.0452843  38.6448097  58.5631561
  67.4302368  37.4107628  71.8600388  66.6499329  37.9638863  71.8976593
  67.1117096  36.5326920  72.0692368  44.1125069  59.0786018  60.2946358
  43.2912827  59.5374908  60.1178856  44.7601013  59.5291328  59.7525291
  76.1709213  13.2047300  67.3080826  75.8239670  12.6299982  67.9903870
  75.3943787  13.5857391  66.8981400  34.9748993  66.0521088  16.0128365
  34.4692078  65.2701569  15.7913342  35.7561760  65.7157059  16.4517765
  33.4341011  25.1786270  19.1928997  32.9905090  25.3489304  18.3619614
  32.7294579  25.1561031  19.8403568   9.7781515  33.0616913  75.1061325
  10.6353207  33.4876518  75.1132660   9.2812443  33.5345879  74.4385376
   6.7395201  34.0655556  22.5947933   7.6057496  33.6949768  22.7637558
   6.1300802  33.3633766  22.8223019  79.8994370  44.4998627  28.2164993
  79.4123840  44.7107506  29.0130806  79.4498825  44.9858551  27.5251637
  53.4251251  59.8764267  15.6697912  53.0030174  60.6710587  15.3432655
  53.0244522  59.1680336  15.1659307   7.0727620  20.6719818  82.9653244
   7.4774451  21.4973011  83.2323608   7.6264362  20.3533630  82.2524719
  66.2488251  33.7731323  40.2098351  66.1776886  33.1619949  40.9431076
  65.6871567  34.5082893  40.4553986  10.8582354  64.1874161   3.4527962
  10.8099699  64.7378845   2.6712072  11.7816715  64.2084351   3.7039034
  13.8015356  44.4241905  37.0704269  14.0373545  43.5104942  37.2309952
  14.3106718  44.6708183  36.2982979  25.3425674  20.5242882  47.5135460
  25.4657192  20.2602348  48.4253235  24.7354984  19.8761101  47.1563835
  59.2816238  24.9883499  67.3565750  59.2608376  25.6188087  68.0765152
  59.3037109  24.1337452  67.7871552  82.1416168  16.1601753  78.4425430
  82.4422913  16.2039909  79.3502426  82.7209854  16.7572842  77.9692383
   1.7831047  57.9777946  18.4261246   2.6085019  57.9695702  18.9107723
   1.8839983  58.6888542  17.7933159  68.4575043  13.7255449  21.5258904
  68.3311005  13.4202452  20.6275330  68.7675629  12.9538136  21.9997330
  30.6239185   3.2568393  22.8539486  30.3437576   2.4355021  22.4500332
  30.4153328   3.9271286  22.2032280  18.5302773  24.9940014  15.9558706
  17.9399261  25.0408516  16.7078838  19.1787167  25.6793327  16.1173553
  20.4301300  46.9159164  83.2092819  20.7235107  47.0789795  82.3128586
  20.0057182  47.7318420  83.4745483  77.2460709  49.4907951  62.1553726
  76.6305237  49.9720840  62.7082672  78.0349350  49.4078865  62.6911430
  76.8543091  55.0212364  78.9910812  76.2160339  54.9031868  79.6945801
  77.1614609  55.9218445  79.0950012  79.6915436  67.0602951  36.5368118
  79.2931824  67.4986801  37.2887115  78.9521255  66.8308334  35.9739304
  48.4825935   4.8629184  17.3647137  49.2742882   5.3645377  17.1702175
  48.2544518   5.1130996  18.2600307  13.7522802  43.0568886  81.8305893
  13.5010242  42.1386566  81.9303436  14.1387491  43.2924461  82.6740265
   3.4070623  50.1620674  43.2586784   3.2398677  50.2939682  42.3254700
   4.1822729  49.6012459  43.2861938  13.4107656   7.6042352   3.6387656
  13.9245510   8.4098396   3.5816941  14.0638943   6.9049788   3.6651320
  74.8380737  26.9729462  20.7566605  75.3478775  27.4679184  20.1153088
  74.7557220  27.5641556  21.5049400  72.5369186  18.4686832  68.9961853
  73.1140060  17.7376556  68.7752762  71.9177856  18.1026764  69.6278076
  47.5426674  62.7115822  19.3562775  48.3968315  62.6695557  19.7862415
  47.6525230  62.1998901  18.5548191  66.6503525  61.0131378  40.7928619
  65.7902527  61.3466568  41.0482521  67.1711960  61.0547867  41.5948715
  56.0306740  24.0391350  39.8798676  55.2425995  23.7981739  39.3929253
  56.6883392  24.2047138  39.2043724  42.5233345  56.6797485  37.3885117
  41.9531517  56.0752563  36.9134178  43.1286736  56.1126137  37.8661690
  48.8799629   3.3862891  15.2347708  49.5836983   3.8366001  14.7676420
  48.8107834   3.8506129  16.0689468  11.0589104  13.1851063  78.4691544
  11.9396734  13.1645870  78.8434067  11.1945095  13.0562906  77.5304031
  39.0743561  61.9158440   1.6781827  38.6664658  61.2776871   2.2635148
  39.7638435  62.3185730   2.2060511  55.0434036  67.8335495  68.7490311
  55.9777756  67.9519958  68.9197540  54.6720009  67.6011276  69.6000671
  46.3345528  59.5292778  84.5845413  46.6228600  59.1986504  85.4353027
  45.5047874  59.9699974  84.7675323  58.8924599  47.7910995  85.5007935
  58.2799835  48.3830414  85.0640869  59.2072601  47.2153816  84.8038864
  38.4485970  66.8132629  21.6937981  38.4893227  67.7679138  21.7504272
  39.3638382  66.5332794  21.7070904  16.0202351  44.7837143  39.2236290
  15.3207159  44.3171730  38.7661934  16.4409695  44.1147385  39.7637100
  39.7736778  17.6408329  88.0882721  38.9782372  17.2174168  87.7654266
  40.3116379  16.9207401  88.4173584   3.3365853  29.5722637  84.9436111
   2.4239254  29.6483135  84.6652222   3.6143746  28.7145271  84.6221237
  12.6993380  65.0016174  13.1341076  12.1453009  65.4258728  12.4789104
  12.3193169  64.1295776  13.2407026  10.0128250  44.5449295  73.9477615
   9.2478151  44.1942673  73.4916611   9.9736948  44.1506996  74.8191376
  68.0585861  13.9494200  76.0214920  67.1727142  14.2734966  76.1841049
  67.9440460  13.0145512  75.8508072   6.1461749  46.5679398  60.3499260
   5.2652974  46.2001915  60.2788696   6.0091400  47.4557266  60.6805153
  22.9738483   2.5862865  20.9105568  22.2501469   2.3864522  21.5043201
  23.2963581   1.7300472  20.6293583   1.2200859  69.3826141  55.1146355
   1.8335761  69.5247879  55.8355026   1.2504083  70.1956940  54.6104393
  48.8599091  43.6743240  12.3227177  49.3522720  44.3888321  12.7268076
  49.5314217  43.0763435  11.9945049  62.7783966   4.9995723  84.8507767
  62.0132294   5.2243266  84.3214035  62.4465103   4.9625421  85.7478333
  69.2337265  27.9904690  26.6942806  69.9211960  28.4326382  27.1923828
  68.4316177  28.1641045  27.1869278  76.2537231  65.8950958  10.0633430
  75.7393188  66.5345306  10.5560427  76.8479614  66.4244385   9.5314541
  39.2259216  51.7776451  56.8648643  39.1122284  51.5272141  57.7817001
  38.3431587  51.7444420  56.4962730  11.5174913  39.8004837  56.2260284
  12.2013474  39.7856140  55.5564384  11.6157293  38.9674988  56.6872444
   6.1415873   6.8991513  56.5009689   5.2296681   6.6092038  56.5247612
   6.2503242   7.2762165  55.6279106  44.2536736   8.5670719  56.5441895
  43.4520531   8.1936808  56.1778374  44.8998184   8.4816942  55.8431625
  44.4383163  48.0654564  37.4170532  43.6854248  48.1298103  36.8294792
  44.9717789  48.8321381  37.2076492   1.6838344  22.7268257  53.2510948
   2.3772061  23.1663666  53.7433090   1.4760869  21.9505577  53.7711716
  38.1932755  39.0482826  17.1203518  37.9229088  39.6460953  17.8173103
  37.6482773  38.2715225  17.2462521   0.2400426  18.9052410  32.7430420
   0.3163047  19.5679169  32.0565453   0.3562915  18.0723305  32.2859039
  26.8466663  68.0189590  41.0157509  26.6022892  67.6843567  41.8786240
  27.5375042  68.6572952  41.1932373  39.7246056  58.0556145  79.7087860
  38.9618149  57.5128784  79.5092468  39.8614464  57.9400101  80.6490707
  14.7166348  47.0403938  52.3272552  14.9251528  47.4759712  51.5008049
  14.1302509  47.6485786  52.7772560  50.8055534  17.6966248  83.8068695
  51.1192818  18.4581261  84.2946396  50.3704720  18.0667839  83.0388107
  78.7782974  23.7261257   5.9868274  78.0694275  23.8661995   5.3590360
  79.0409622  24.6075306   6.2520823  78.3832779   1.5158032  76.3175812
  77.9267502   1.7576369  77.1233902  79.0942383   0.9441681  76.6074142
  40.5609055  64.9024277  31.3431854  41.4497528  64.6122971  31.5481339
  40.3600006  64.4853210  30.5053959  28.9786549  13.7710266  73.0395737
  29.8016758  14.2494974  72.9398956  29.2283211  12.9512663  73.4660645
  84.3978882  31.1399174   2.7190318  83.7256546  31.2470188   2.0460768
  84.3381882  31.9366722   3.2461469  50.5267487  36.8464050  77.9202194
  50.0388145  37.6534424  77.7564011  49.8700142  36.2316818  78.2474060
  58.5545578  17.8392715  37.4404907  58.8896751  17.7997417  38.3362389
  57.6274376  18.0551147  37.5409279  57.7684517  42.5359917  42.5000343
  57.7667656  42.9816780  41.6529274  56.9187469  42.0972252  42.5415154
  57.2510338  45.7038689  71.2334671  57.6542931  46.4948997  71.5910797
  57.0763893  45.9174461  70.3168869  65.0401764  17.1185970   5.9601321
  64.7255096  17.4712162   6.7925248  65.8564301  16.6709976   6.1828861
  39.4988213  42.3921432  85.8305588  38.5716820  42.1621017  85.7695389
  39.8584328  41.7713280  86.4641953  67.7103729  57.0758209   9.3720856
  68.5418701  56.6577415   9.5958061  67.3140564  56.4905663   8.7266045
   3.3465967  22.3798141  64.0811615   3.5023570  22.9339943  64.8459167
   3.8364215  22.8021908  63.3755379  56.4944687  56.4279556  41.6715927
  55.7012444  56.9347305  41.8453979  56.3272514  56.0021973  40.8307610
  69.9136581  17.5107346  27.4866848  69.4345474  16.7106018  27.2710991
  69.4356689  18.2054901  27.0338364  30.7205925  69.0256729   0.4094174
  31.0073433  68.3656998  -0.2218021  30.2837543  69.6913757  -0.1218537
  60.1781311  61.4463196  80.7021713  59.8967056  61.2856102  81.6028442
  59.8846779  60.6743889  80.2181931  42.6503410  68.2773514  27.6479950
  42.8788452  67.3660965  27.8313866  41.9306564  68.2219543  27.0193329
  49.0792198  53.3770332   9.8223228  49.5707436  52.8863640   9.1636286
  49.5613594  53.2339363  10.6367521   9.9955463   4.5971947  58.8280220
  10.7227240   4.9915724  59.3095932   9.4195166   5.3326683  58.6194534
  73.1707001  56.3652344   5.4124117  73.0714493  57.3070641   5.2733417
  72.5221939  55.9676781   4.8313622  31.5978832  70.9062271  70.7625198
  31.5342236  71.3369904  69.9101028  30.7951736  71.1584625  71.2188873
   9.6612225  32.0508690  52.4154816   9.2506256  32.7853165  51.9591599
   9.4984236  31.2961578  51.8496704  62.4942169  53.2537537  58.9051170
  62.5884438  52.3803482  58.5249634  62.4556084  53.1011238  59.8492813
  42.1837959   2.3438220   8.8842134  41.9634323   1.7081057   8.2033787
  42.0888367   3.1950498   8.4568663   0.6949136  40.9207611  56.9762802
   0.1351130  40.4958763  56.3264122   0.0844221  41.2798958  57.6201401
  79.2946014   3.3582859  57.0152245  79.7320557   3.3408618  57.8664398
  78.8745956   2.5010948  56.9441948  31.6437759  32.7733612  81.6107101
  32.4865036  33.1935234  81.7824936  31.4905205  32.2215309  82.3776703
  46.7878571  53.5883865  15.9910688  46.6800804  53.2781982  15.0919580
  46.2956085  54.4087296  16.0220470  71.1224670   4.4603152  47.2483788
  70.6571655   5.2718172  47.4513283  71.9965744   4.5867105  47.6174164
  72.4566422  66.2567444  81.0564575  72.7009583  66.0385590  80.1570511
  73.0310440  66.9857941  81.2905273  48.7958336  38.6564331  41.1197128
  49.1768837  39.4181290  40.6828499  48.0013046  38.4667397  40.6207428
  22.6673527  41.6324463   5.7986403  23.3015938  41.5858078   5.0832424
  22.4483566  42.5619392   5.8643579  57.2739601  21.8282623  78.0285797
  57.3829536  22.6478462  77.5462570  57.0518265  21.1830425  77.3573227
  18.8133297  17.6141491   1.8330345  18.3949680  17.7254333   0.9793249
  19.5026875  18.2780190   1.8502969   0.1036008  46.2003136   8.8028145
   0.0842162  47.1470718   8.6631641   0.3574706  45.8381424   7.9539242
  56.4122047  43.1534843  51.1118622  55.7880211  43.4916801  50.4697952
  56.9638863  42.5496788  50.6145744   6.5472136  23.8243160  68.1280594
   6.1672406  24.4722195  67.5347061   5.8303380  23.5897541  68.7173843
  71.1339645   2.7339737  11.5085468  70.3870697   3.1564882  11.0844412
  71.8911972   3.2473848  11.2270470  44.2981033  71.4171906  31.8247089
  44.3027420  71.4603500  32.7809258  43.3719215  71.3501968  31.5924683
  57.0058212  48.2281837  58.6103020  57.3252029  48.4422455  57.7337151
  56.4946976  48.9938164  58.8725815  14.8585701  37.0558739   7.2494216
  15.6914177  36.6263924   7.4447188  14.8796835  37.8638268   7.7622585
  74.1044540  33.4892502  51.9806519  73.8000793  33.8941383  51.1684570
  74.9386215  33.0819130  51.7472572  60.9190140  25.4037399  78.0345612
  61.3068924  24.5496655  78.2251740  60.6358566  25.7338810  78.8872375
  77.1441116   6.7344947  60.2760620  76.7234116   6.2542357  59.5629005
  77.8918915   7.1678123  59.8646088   5.5400014   8.8899422  70.4067841
   5.5133476   8.5113077  69.5280609   6.3685222   9.3683853  70.4364014
  38.5715370  45.0906982  16.0043526  38.1742172  44.6081581  15.2794199
  39.0695534  45.7904854  15.5818510  68.1119156  28.0572968  53.4813728
  68.6751328  28.4851418  54.1263275  67.8654175  27.2281380  53.8912048
  65.8581924  32.9064140  26.5611420  65.1190109  32.3431664  26.7904778
  66.2174377  32.5173302  25.7637806  33.7407608   8.2078018  19.2334309
  34.5248146   8.0060549  19.7441082  33.9496727   9.0289755  18.7881641
  63.0572662  13.0492125  16.4338226  62.1095848  12.9284630  16.3742561
  63.2715073  13.6275396  15.7017908  52.9866142  57.3894081  58.3836021
  53.1046715  57.9311981  59.1638336  52.4497337  56.6548920  58.6810493
  81.3458710  53.9122887  36.9546967  81.0796051  53.1677818  36.4152107
  81.4761581  53.5412521  37.8273888  32.7742310  31.7261105  84.1112671
  32.8053970  32.5462303  84.6038742  31.9102840  31.3626881  84.3055649
  66.9031067   6.5759158  32.7347183  66.2144394   5.9120941  32.6985626
  67.0837936   6.6829696  33.6685944  76.1058273  37.9911499  86.7057648
  75.8760300  38.9149208  86.8061447  76.3971863  37.7208290  87.5765457
  66.6731110  13.8108425  13.1778421  66.2577286  12.9739971  13.3861189
  67.5824356  13.7028131  13.4565668  52.7994652  21.6439095  34.9568596
  51.9440651  21.2366123  34.8203583  53.2384682  21.0733776  35.5877304
  59.2087936  15.8141365   8.1212816  60.1062241  16.1449490   8.1589308
  59.2262650  15.0139637   8.6463051  86.6506729  23.7845173  45.0643120
  86.1682663  24.1931705  45.7830086  86.0407562  23.1424503  44.7010117
  57.2778893  22.2298985  27.2104607  57.5309715  21.3740253  26.8645363
  58.1054344  22.6425381  27.4577084  56.6295547  34.9282303  42.1349373
  57.0244942  34.4633484  42.8725967  55.7536163  34.5506134  42.0551376
  42.7594566  69.3685150  13.6622229  43.4193306  68.6836319  13.7705383
  42.0269814  68.9291916  13.2301273  83.0278015   6.4588027  25.3233681
  82.1991577   6.7423820  24.9371624  83.3132095   7.2040954  25.8518715
  82.1637878  68.1628189  60.6677246  82.9763794  68.5927734  60.9343109
  81.8376846  67.7500839  61.4674339  57.1313667  26.1053295  56.0759850
  56.9987259  27.0528259  56.1057854  57.4609680  25.9372749  55.1931763
  69.6585999  21.1265030  42.9062500  69.7763672  21.8719902  42.3175125
  69.0133286  21.4264965  43.5464516  39.1517868  42.8820114  46.8708916
  38.4965858  43.4844627  47.2230263  38.8772354  42.0200386  47.1837006
  50.3279343  68.1212311   6.0637603  50.8603592  67.3386993   5.9209352
  50.2398300  68.1806335   7.0150442   7.3613381  13.9757004  77.1212082
   8.2626104  14.2832432  77.0244751   6.9330802  14.6508284  77.6475449
  13.5864372  38.3761787  82.8908539  13.3939762  38.8432121  82.0777893
  12.7301121  38.2357254  83.2948532  72.3653259  70.1697083  36.5918236
  71.4381638  70.0338745  36.3964958  72.5317612  69.6201630  37.3576775
  72.9035873  68.7897186  51.6380234  73.4434586  68.8802643  50.8528023
  73.4451294  68.2839966  52.2440071  53.2041435  26.4458542  17.5849533
  53.2634125  25.4949627  17.6772823  52.6164322  26.5780945  16.8410835
  58.4541206  20.0593681  26.2496033  59.0713081  19.4309406  26.6242886
  58.0278473  19.5813942  25.5382214  38.1551247  53.0805550  54.1587486
  39.0945282  52.8994370  54.1278305  37.8071480  52.4362640  54.7752190
   1.0811331  36.0138054  67.7143021   0.9854735  36.0119324  66.7619019
   1.1042922  36.9410210  67.9508743  54.1665344  19.7196560   0.8164527
  53.2157021  19.7991829   0.7401040  54.3232002  18.7780266   0.8873220
  34.8890572  47.3596764  36.7268295  34.0363655  47.7252960  36.4913063
  35.3750534  47.3350754  35.9025497  48.0968742  38.4266014  59.4232864
  47.4400940  37.9620323  59.9419861  48.6529770  37.7344971  59.0655556
  21.4653835  66.8264236  49.7658195  21.5856495  66.1225052  49.1284294
  22.1005745  66.6356735  50.4560204  12.9670515  49.0111008   7.9054637
  12.1432371  48.8671341   8.3711195  12.8802147  48.4992867   7.1012626
  67.9775391  17.9745064   0.9689576  67.6623917  17.1508217   1.3410529
  67.1845779  18.4905300   0.8235028  37.1024818  46.3962097  47.4128075
  36.9448280  45.5168495  47.0691414  37.7300682  46.7830124  46.8022766
  60.8537712  48.7960014  43.6347046  61.3814354  49.0512352  44.3914452
  60.3986435  48.0025520  43.9167099  70.2393951  44.4907227  45.4780579
  69.8515320  44.6302681  46.3419533  69.5729675  44.0051804  44.9918976
  20.9263344   0.3138636  19.2735615  20.5967293   1.2086321  19.1900005
  20.4547272  -0.1788072  18.6019249  60.7104454   0.8591338   4.4668617
  59.8621101   0.7711639   4.9013977  61.2875900   1.2210665   5.1392775
  73.5455246  62.5170021  65.6178284  72.9964676  61.9943352  65.0333710
  74.2256546  61.9114342  65.9126968  46.1259727   3.9326601  86.5426254
  46.2489815   3.1930532  85.9475784  45.2421188   4.2477589  86.3535538
  79.8010635  59.2427902  31.1827145  80.5216904  59.8714828  31.2235489
  79.0197525  59.7817345  31.0589123  59.7310295  16.4794865  18.3469486
  59.8147430  16.1734371  19.2500305  59.1584053  17.2442875  18.4053535
  51.4818344   0.8585652  20.9776249  52.0109329   1.4522038  20.4448204
  50.6226692   1.2781821  21.0222549  71.5563049  41.9808044   4.6935515
  71.6860733  41.0342064   4.6356745  72.4397354  42.3467484   4.6502962
  54.7443771  60.2747917  73.8305740  55.2699356  61.0745354  73.8097916
  55.1245499  59.7567291  74.5400238  81.1502075  25.5647011  70.7263260
  80.7151718  24.7556057  70.9952927  80.7350159  26.2467690  71.2541809
  64.9957428  38.8137283  72.7541504  65.0210419  39.6653328  73.1904526
  65.0816422  38.1779938  73.4645691  13.1017075  44.9715424  20.1015396
  13.5316076  44.9100304  20.9545555  13.6523037  45.5716171  19.5985584
  53.0406418  66.4668503  73.5356674  52.6249733  65.6082230  73.6144409
  53.1594009  66.7592697  74.4393387  53.5446930   7.8197646  59.4517288
  53.5683174   7.4868221  60.3488503  53.0472374   8.6353264  59.5119514
  57.7771912  32.6636658  62.6417122  57.6874390  33.5454712  62.2803345
  58.4160309  32.7582436  63.3482361  11.3595276   2.6236465  17.3327637
  11.2878017   2.1965892  18.1864090  11.9010687   3.3958597  17.4960194
   6.9198332  38.6923180  81.7202911   7.5142612  37.9465218  81.8019943
   6.1985888  38.4901543  82.3162460  40.9711266  41.5242386  59.9842033
  40.2927399  41.2400551  59.3716164  40.6432266  41.2604752  60.8439369
  48.5044556  66.6103516  56.5735512  47.5953217  66.3451843  56.7128220
  49.0184937  65.9727478  57.0689926  65.6609039  70.5438766  86.1714401
  66.1519470  71.1866989  86.6831894  65.4703217  70.9898071  85.3461761
  64.0428772  20.2979126  13.1510754  64.5344772  20.9437389  13.6584864
  64.3036575  20.4571228  12.2439508  22.6860695  59.2056923  47.4220123
  23.6102600  59.4130020  47.2837029  22.5122375  59.4762421  48.3235779
  56.0071869  46.0823631  17.0920849  55.6915894  45.5085793  16.3939400
  56.1684265  46.9204903  16.6587543  -0.2525399  68.5501404  51.8296089
   0.3736085  68.9906158  51.2550201   0.2619588  67.8746338  52.2714348
   5.2321010  -0.0205215  66.1808395   5.7322211   0.1634963  66.9759827
   5.1898761   0.8198799  65.7245789  15.0656681  39.2153015  76.5192795
  14.7376785  40.0081024  76.9436798  16.0131149  39.3432388  76.4723053
  42.2110748  43.1447754  24.3123055  41.4705124  43.2659836  23.7180767
  42.6321220  42.3403244  24.0092983  72.7847290  67.5079193   2.4263301
  73.6550751  67.7109528   2.7691245  72.9480743  67.1556549   1.5514262
  55.2725830  53.8974495  25.6918716  56.1106377  54.1176834  25.2851868
  55.5103683  53.4855919  26.5225716  81.7092361  57.7161255  41.7630081
  82.0271683  56.8612518  41.4725876  81.3705139  57.5589180  42.6443634
  13.7558632  27.2871914  72.8466034  14.2684555  28.0019150  72.4689102
  14.3645220  26.8410740  73.4354553  59.0325165  41.2783813  68.9432297
  59.5471764  42.0409622  68.6789780  59.0157013  41.3204117  69.8993530
  39.5712128  49.2100792  20.7508087  39.0512390  48.8335876  21.4608154
  39.3911018  48.6474457  19.9976578  18.3930378  59.6621666   6.6997132
  17.4884892  59.8810921   6.4758906  18.8302345  60.5093307   6.7857661
  29.9342613  35.7012672   7.7118840  29.2873287  35.7718620   7.0099382
  30.0394917  36.5973282   8.0316248  33.4868469  45.4668922  69.2550354
  33.8856239  46.0938683  69.8584595  34.1406021  45.3486214  68.5659485
  64.8653412  16.0552559  40.1629333  64.4918213  15.4671068  39.5065842
  64.1152649  16.5449924  40.5002403  10.1879177  40.5196114  87.6890869
   9.5498800  41.0936127  87.2652206  11.0380077  40.8538399  87.4029541
  15.3964367  10.6253424  62.5891304  16.2550011  11.0168695  62.4284859
  15.2632685  10.0293722  61.8520279  23.9178085  15.3271399   4.4224749
  23.2622147  15.9994965   4.6078577  24.6076622  15.4808273   5.0680079
  22.8188190  60.8822556  55.8313522  23.6628704  60.4865189  55.6140938
  22.2913189  60.7707062  55.0404434  61.4846001  22.8122196  67.1892242
  61.8828316  21.9498005  67.0714264  60.6043205  22.6268959  67.5163269
  27.4135742  20.6260986  16.2114983  27.0062046  19.7814159  16.4033222
  27.9620590  20.8063774  16.9749737  60.2858582  36.9078102  61.2071571
  60.4353676  37.5484848  60.5118752  59.9800720  36.1246796  60.7495193
  17.4660530  40.3649101  87.8183212  17.5615387  39.6173439  88.4084549
  18.1350956  40.9853630  88.1075439  72.7674332  10.3351440  54.9073982
  73.3899841   9.8905487  55.4827271  73.3154068  10.8329964  54.3006859
  78.2310944  31.1293259  14.3310900  78.4303207  31.3221512  13.4149246
  79.0827332  31.1363697  14.7680063  64.5786285  68.7739029  46.1820526
  64.9719620  69.5550919  45.7931252  65.3164444  68.3000183  46.5658455
  56.0588303  35.4793243  37.7804184  55.3104210  35.3127251  38.3534431
  56.8166809  35.1812973  38.2834816  72.5547028  37.0305901  28.4183140
  73.3840637  37.3556976  28.0680428  72.7825241  36.6653252  29.2732449
  56.5621681  28.8856316  59.4936600  56.5832634  28.8385010  58.5378532
  57.2345276  29.5294094  59.7166176  73.2023697  45.5749855   5.4953318
  73.1544189  46.4992867   5.7394571  73.2562485  45.1093216   6.3298898
  55.8528557  15.0734644  61.7314949  54.8997841  15.1600523  61.7117119
  56.1162338  15.1147194  60.8121719  17.3769455   3.0438192  57.5659027
  17.5976658   3.2646046  58.4707603  18.0882816   3.4197032  57.0473061
  50.9452858  65.7572403  35.7340164  50.3366241  66.0012741  36.4313049
  50.5432968  66.0981750  34.9350166  20.2887020  34.8262215  63.1857071
  19.7663212  34.8320465  62.3836365  21.0808563  35.3134575  62.9591599
  22.8941650  49.7926865  11.0919638  22.1209068  49.7814293  11.6560354
  23.5050449  49.1863937  11.5108509  32.9133453  17.0351639   2.1726990
  32.1694450  16.4605923   1.9918242  33.6742325  16.4546814   2.1548288
  32.5838394  48.8015976  39.0493622  33.0464935  47.9664879  38.9802704
  33.0927811  49.4030533  38.5058022  80.3038177   1.6610020  82.7631989
  80.4073715   1.0109155  82.0682907  80.8087463   1.3099836  83.4967270
  82.1677017  15.4416561  22.9320793  82.9685440  15.0159998  22.6259727
  81.7345581  15.7403727  22.1324615  77.1234360  20.2372417  42.8321838
  77.4284058  21.0451794  43.2450562  76.2334671  20.1196518  43.1643982
  67.0018005  35.5722198  37.1884270  66.2600250  34.9911499  37.0200233
  67.6522827  35.0132141  37.6134224  42.9423790  66.7450409  11.8113050
  42.2564735  66.4329376  12.4015255  42.8656731  66.1859970  11.0381193
  21.4428425  57.9922409  34.2464409  21.4819145  57.0929832  34.5720787
  20.7476234  57.9787674  33.5886269  37.8856354  34.0517769  81.2856750
  37.4413948  33.6039276  82.0056152  38.3136139  34.8021088  81.6980743
   9.5906754  58.0560760  69.3644562  10.1877661  57.4977913  69.8624878
   9.3430920  58.7485352  69.9771881  65.4114685  36.1694565  29.6895313
  64.8334579  36.5598907  29.0340214  66.2319565  36.6551590  29.6050854
  28.3169155  12.1612988  84.6412048  28.6275902  12.6030674  85.4314880
  27.4287434  11.8781805  84.8585205  19.5431099  55.6618423  41.7818069
  19.5529747  56.3899231  41.1604919  20.4203968  55.6618118  42.1646881
  45.1278343  61.5749054  64.8838654  45.4785080  60.9502296  64.2490158
  44.6226883  62.1939850  64.3568039  19.8652630  18.3326244  50.4551620
  19.0890770  18.6582584  49.9993858  20.4859810  18.1289291  49.7555542
  28.7459984  67.8701019  17.3502808  29.0782890  68.1481934  16.4967728
  28.7899227  66.9142532  17.3245506  57.0356636  15.2506952  26.6102905
  56.2298126  15.1557026  26.1025352  57.3215370  14.3523664  26.7761612
  24.7627182  60.9504776  16.8476105  25.0729504  61.8445091  16.9914627
  23.8104954  61.0123405  16.9229736  55.6609650  48.3897400  64.8780670
  56.5403442  48.0966759  65.1168823  55.5992050  48.2206039  63.9379539
   0.5756001  35.0212059  62.9950752   1.3720546  34.6552124  62.6104469
  -0.0456565  35.0598679  62.2679062  16.8600445  63.9778633  59.1803627
  17.3217010  64.3171692  59.9471588  17.5539379  63.6471291  58.6099586
  80.6861420   0.4083745  60.6288490  80.6815186   0.2717791  61.5762444
  81.6026154   0.5854664  60.4168625  69.6180801   0.5695315  78.1427078
  68.7374420   0.4865672  77.7768784  69.9154663  -0.3329419  78.2581940
  49.2794075  25.9047985  36.5918198  48.8051033  25.4413471  35.9015465
  48.6842613  26.6033878  36.8638573  84.1441116  33.0584412  20.9697990
  84.8861771  33.6596947  21.0336056  84.3991699  32.3057327  21.5032825
  48.9463463  52.6184349  85.6246185  49.4359474  52.7971077  86.4274826
  48.1150589  53.0777817  85.7437744  40.5233765  51.1593170   4.1470351
  41.3139229  51.6936150   4.0708966  40.8391685  50.3048820   4.4410496
  29.8444328  69.1682129  23.4102707  30.7576389  69.2538452  23.1364918
  29.6761303  68.2261124  23.3916054  33.7403870  52.5173607  68.0351486
  32.9732552  52.8216476  68.5200729  33.8398705  53.1493568  67.3231735
  66.7944107  16.9826183  12.5819387  66.0661011  17.1502686  13.1800098
  67.5690613  16.9747543  13.1441536  63.8409500  11.7190857  52.6322899
  63.4963036  11.6389179  53.5216866  64.4036484  12.4928398  52.6623116
  16.3675728  69.8522339  65.4523468  15.4981461  69.7181168  65.8296204
  16.7124557  68.9684143  65.3252563  23.6771183  69.8466263  59.6692085
  23.4008808  69.7061005  60.5748482  23.3629036  69.0735779  59.2002716
  77.3600082  70.4518280  88.5992584  77.3903503  71.3687363  88.3261566
  78.2488251  70.1284943  88.4519424  44.3951111  42.7560272  85.9210129
  43.5597038  42.9528694  85.4972534  44.9677925  43.4806519  85.6696472
  75.6355896  30.8606606  77.8498230  75.2145081  30.5237961  78.6406784
  75.3233643  30.2875805  77.1495895  47.0385513  48.9344940   6.1529202
  46.3497849  48.7313957   6.7858381  46.8627625  48.3533592   5.4129109
  44.1564980   7.4731712  72.6002655  45.0443382   7.8160200  72.7023697
  43.6511459   8.2132854  72.2639847  30.0279541  53.4449730  38.0353279
  30.2116394  54.3345184  37.7333336  30.2154560  53.4671097  38.9737244
  69.1368561  67.0293655   7.0214195  69.3182297  67.9140396   6.7041178
  69.8059387  66.8719711   7.6875892  85.2975235  56.9545212  30.0510941
  84.4879532  56.8218117  30.5442619  85.2291946  56.3506546  29.3115616
  64.9184113  10.4726286  50.2349129  65.1229019   9.5682049  50.4724655
  64.4444351  10.8176880  50.9915581  73.6325836  71.9116974   7.4235415
  74.1610565  71.1145477   7.3848147  72.7719955  71.6144257   7.7189045
  53.7996826   6.4577227   8.6347799  53.3628197   7.3056650   8.7146292
  54.2783966   6.5118742   7.8076568  26.6625404  51.3856316  74.4328842
  27.0957699  50.5775337  74.7077026  27.1881104  51.7010803  73.6977005
  45.3912926  62.9155235  79.2007523  46.2890549  62.5886955  79.1421432
  45.4864388  63.8315735  79.4615707  47.6796913  66.3443527  17.3808575
  46.8192825  66.3542938  17.8001785  47.8313599  67.2538223  17.1237717
  16.6657429   9.2666616  28.9894333  17.4286957   8.9023867  28.5406132
  16.8360310  10.2078905  29.0257893  61.2273979   3.6880553  59.5509071
  61.8914108   3.0880523  59.2113304  61.0538750   3.3755708  60.4388657
  84.0343628   5.8912430  62.2512283  83.9312973   6.5538120  61.5681381
  84.5157852   5.1816192  61.8259048  47.2463913  14.5017719  15.4825048
  48.1250839  14.6607447  15.8272572  47.3490067  13.7456198  14.9046326
  56.7022896  34.5526314  70.9648819  56.2171135  35.0945587  71.5870972
  56.5391655  34.9601631  70.1142731  16.7762909  22.5548477  87.1949081
  17.1767559  22.7672119  88.0379791  16.6912479  23.3985348  86.7508469
  73.4139099  11.5739908  65.7189407  73.1615829  11.5645523  66.6422348
  73.8076096  12.4364481  65.5870438  84.5235901  21.9311409  49.6901932
  84.4818802  22.5733051  50.3987961  85.4308777  21.9673290  49.3872719
  56.4909859  17.5543194   6.0880408  55.8199577  17.7850590   5.4456148
  57.3192291  17.6803474   5.6250515  36.5551720  58.3061752  29.1585751
  36.4987106  59.2344933  29.3850002  37.4738884  58.0797882  29.3032894
  79.9999313  33.3576088  22.1043243  79.9391327  32.8536568  21.2928009
  79.6451035  34.2176666  21.8793240  84.9649582  25.9629974  62.6812935
  84.8941650  25.0096855  62.7304268  84.7282639  26.1745243  61.7782631
  31.5348797  37.3966904   5.6978965  31.9483299  36.6148987   6.0640807
  31.5142021  37.2370491   4.7543297  45.1040535  40.4961205  31.4363403
  45.6802177  40.6545563  32.1841125  45.5868759  40.8401642  30.6848412
  12.1473255  40.1091843  36.2939949  11.3364048  39.9749641  35.8034630
  12.7187300  39.3948059  36.0122223  46.8510132  50.6012535  22.9574909
  46.4313164  50.7138405  22.1046066  46.7117043  49.6791191  23.1731205
  58.0689545  46.0159607  56.2187881  57.4543419  45.9317741  55.4898224
  57.5262871  46.2858772  56.9596596  82.9299622  15.1132345   2.4949803
  82.3179626  15.7163153   2.0730970  83.7004852  15.6482506   2.6854634
  25.2716560  50.1977081  62.6972809  24.8087692  50.1475830  61.8609467
  24.7171383  49.7114716  63.3074608  78.0609512  26.7644196  74.3281174
  78.0259628  27.4315929  75.0136032  78.6425247  27.1339417  73.6636963
  44.7421608  70.4100037  71.7508621  44.8295898  70.8368530  72.6031418
  43.8713341  70.0130997  71.7699738  30.8042126   2.6587698  78.6881943
  30.5603695   2.5403278  79.6062088  30.6443977   3.5866411  78.5157242
  33.5758286   2.1196797   8.9637327  33.4669266   2.7998166   9.6284027
  34.4571686   1.7775009   9.1133528  68.1612625  39.1915703  67.8473282
  68.6540375  39.0654182  68.6581879  68.5169220  39.9979706  67.4738998
  84.2193375   1.8792692  39.8337784  84.1851120   0.9276888  39.9315300
  84.3126144   2.0200551  38.8915939  75.2627792   9.3732605  39.4241142
  75.8608551   8.6394157  39.5655556  75.4657059   9.6807814  38.5406647
  70.4926071  56.5908279   6.9213338  71.2234650  57.1878166   7.0815601
  70.1827774  56.8211861   6.0454497  77.1890717  48.6613808  54.0108490
  78.0171127  49.0153694  54.3352966  76.5870132  48.7442474  54.7503662
   6.7291203  37.4668198  63.1305313   6.0015130  36.8457413  63.0976334
   6.3713236  38.2311974  63.5821266  65.2001343  14.9363012  55.5244751
  65.0172958  14.1001120  55.9529495  66.1497879  15.0365753  55.5903435
  44.7257347  37.7436409  58.8265648  44.3896294  36.8529587  58.7268066
  45.4727592  37.6528854  59.4181328  49.7990723   6.1876020  43.8820686
  49.6588249   6.2146659  44.8285522  50.5898132   5.6595173  43.7721176
  57.8793678  40.9427414  78.6771088  58.2137451  41.7755051  79.0101700
  57.0580750  40.8081017  79.1499557  37.3028564  21.8437271  68.3280640
  38.2186508  21.6145763  68.4863129  37.3418312  22.6820431  67.8676987
  54.7443695  42.2266846  70.9605637  54.6247253  41.3634224  71.3564072
  53.8558960  42.5665398  70.8540115  15.7417355  45.4477348  87.7140350
  16.1122875  44.6677513  87.3010635  16.4575005  45.8025246  88.2413254
  22.3443718   2.5588794  76.2794189  22.0551853   2.3851476  77.1751938
  22.8002720   3.3987935  76.3335571   5.6835546   3.7083917  28.6457043
   6.4956517   3.5327299  28.1704426   5.4571791   2.8711672  29.0507240
  62.7073326  52.6983490  20.2137299  62.6525650  52.0428505  19.5183506
  63.6235123  52.6782417  20.4902172   6.3925457  36.4746857  35.1644135
   6.4743719  35.6773376  34.6411781   6.2705460  37.1722832  34.5204353
   0.9696680   3.0845606  45.2152252   1.4807144   3.5928013  44.5853386
   0.2034461   3.6288121  45.3966789  48.1101532  26.4313469  44.8091469
  48.1871109  25.4889488  44.9581337  47.3520699  26.5214291  44.2317162
  85.2882080  70.5144348  57.6993408  85.8235855  69.7371521  57.5398254
  84.7010803  70.5598526  56.9447212  72.7470932  50.2667580  39.7542496
  73.0708237  50.6128044  38.9225769  72.9223022  49.3269157  39.7070580
  84.7683411   7.7634978  41.1945076  84.8084717   8.5720654  41.7052345
  85.3516998   7.9200449  40.4519310  38.8581963  59.6066132  15.1109657
  39.3018723  58.8173866  14.8003139  39.3937073  59.9095154  15.8442516
  47.4508591  55.5171623  74.3725510  47.3270264  55.7522697  73.4529724
  48.0194435  54.7475090  74.3485184  18.8128738  65.0912399  85.1777573
  19.5951557  65.6283569  85.3033371  18.1444225  65.5114441  85.7188950
  21.6919193  70.3527679  15.1012611  22.3798428  70.9875031  14.9009886
  22.1364307  69.5051651  15.0865288  58.8859940  10.6926327   3.8319695
  58.8288574  11.6480589   3.8433118  59.7796288  10.5027256   4.1175923
  67.3953476  56.6317787  13.1353855  66.6132584  56.0800285  13.1473513
  68.0282440  56.1619606  13.6784735  40.6585770  64.6655960  18.5866394
  40.7720375  64.1409760  19.3791904  39.8145370  65.1009064  18.7063484
  61.3339996  55.5711021   8.3109293  61.2621727  55.7902451   7.3819246
  61.2825241  56.4145126   8.7606421  75.7579041  40.2896385  82.1976776
  76.6242828  40.2914391  81.7907257  75.5239410  39.3634911  82.2588501
  37.8109550  48.5705414  17.8488846  37.8949471  48.1944160  16.9726963
  37.7125854  49.5105743  17.6975784  81.4119110  46.4469757  48.3100929
  80.6250534  45.9187317  48.1757889  82.1125412  45.9424095  47.8968506
  22.3327179  61.2847214  44.0354309  22.7159748  62.1607056  44.0801010
  21.4089622  61.4162712  44.2489738  15.8433580  54.4757843  72.4356155
  16.0548992  55.3541489  72.1194534  15.1092348  54.6075211  73.0355606
  63.2338829  58.7676888  72.0074844  63.2320099  58.2211113  71.2216873
  62.3148575  58.8104744  72.2716751   4.9012766  33.1111450  65.8302231
   5.5153909  32.6702766  66.4173584   4.2367001  33.4801559  66.4119415
  30.9732628  63.7743530  57.6972084  30.8942757  64.2602310  58.5181274
  31.1008606  62.8652496  57.9682846   6.0749245  66.7462311  53.1962700
   5.5338197  67.3554688  53.6985321   5.9054561  65.8919678  53.5934486
  18.2326164  32.3377380  30.2403564  18.4274101  32.3470497  29.3032322
  17.4976978  32.9431648  30.3382530   3.8493226  24.1994801  54.3749771
   4.2415843  23.9802666  55.2201462   4.4592605  24.8242245  53.9826736
  77.2182846  53.9991455  14.2507954  77.5155716  54.1237259  15.1520901
  77.6839752  54.6690674  13.7502241   6.4031253  63.2531738  87.9204330
   6.4041839  62.7092018  88.7080383   5.8190851  62.7966728  87.3148422
   2.1745949  10.8661613  89.1610489   1.7206835  11.6107588  88.7663651
   2.5682673  10.4054928  88.4200745  74.7918625  26.5147133  87.4861450
  74.2735672  26.4811268  86.6821060  74.2284012  26.9646130  88.1156998
  35.7596931  53.3558159  18.0222225  36.0245552  54.2655525  18.1580830
  36.2676125  53.0692902  17.2631741  74.5422974  47.3239784  12.6566849
  74.5605850  46.7815018  13.4451103  74.6034698  46.6988716  11.9343758
  51.1504593   4.4287639  83.0259857  50.4552994   4.5945024  83.6627884
  51.1939125   3.4747133  82.9617081  39.4357796  34.8271294  19.3173695
  39.5660896  35.7126846  19.6565495  40.2378426  34.3603554  19.5519829
  73.6457062  39.7984543  34.4600258  73.6430283  40.5308571  33.8437347
  73.8261871  39.0302315  33.9182777  64.4171829   1.4087431  42.0818138
  64.2835693   1.4582777  41.1352806  64.2296677   2.2929797  42.3967667
   3.8389621  36.9715195  23.0048351   4.5530672  37.4787979  22.6188889
   4.1251988  36.7990646  23.9018078   3.2719138  53.9211121  52.4361801
   3.1217833  54.0784302  51.5040092   4.2072949  54.0831413  52.5588188
  41.8636742  46.5576935  46.6426849  42.4922943  46.5336494  47.3641319
  41.4921799  45.6758347  46.6192093  33.7994003  62.0647888  37.8307686
  32.9199867  61.6969147  37.9175224  33.9173927  62.1836853  36.8883400
   5.2395997   5.3066387  69.2217178   5.2320418   4.8993793  70.0879288
   4.3231502   5.5241656  69.0513229  53.7300224  46.3480377  76.7578354
  53.8714409  45.9886208  75.8820190  53.4766273  45.5928497  77.2886047
  16.2041416  20.9164944   3.0999243  16.7045879  20.3153019   3.6516051
  16.0335388  20.4208641   2.2990019  74.3578339  31.8052101   5.1238942
  75.2166290  32.1571350   5.3580942  74.2540131  32.0234718   4.1977110
   6.9884391  54.2832680  32.8737946   7.6342745  54.7861290  32.3775520
   6.8559346  54.7888756  33.6756897  82.7305527  17.2852039  24.9102097
  82.4742050  16.7386398  25.6530323  82.4657288  16.7822094  24.1400833
  36.1679459  48.5262184  72.5842438  37.0536385  48.3908386  72.2474060
  36.1905441  48.1638718  73.4699173  18.1651115  29.3217201   2.4872653
  18.6571751  29.0929832   3.2757988  17.7124462  30.1339073   2.7145941
  71.3914871  37.1687775  23.0123806  71.1122131  36.7043839  23.8014183
  71.1539993  36.5833969  22.2932415  40.1101456  56.5420074  24.5454807
  40.5480042  56.1318703  25.2913342  40.8162346  56.9628448  24.0550003
  16.7183609  56.7379036  79.4087372  16.3485050  56.1455040  80.0633392
  17.4686279  56.2623787  79.0520782  65.3628082  54.3765106  68.4598465
  65.8195953  53.9642105  67.7266388  64.6046143  53.8136787  68.6166687
  25.9022026   1.7056280  65.5337067  26.5597229   2.4008689  65.5104980
  25.9473534   1.3629696  66.4263306  45.5779877  53.3582687   2.4423125
  46.3784180  53.3165245   1.9190552  45.7467537  52.7783241   3.1848857
  86.0551529  13.3250141  68.9373016  86.0051498  14.1813889  68.5126190
  86.9612961  13.0455275  68.8068619  14.0444088  27.6443119  61.7098541
  13.4395037  27.0884514  62.2011185  14.1805868  28.4062576  62.2729950
  63.0420151  13.7320347  44.4668198  63.9196625  13.3500023  44.4628906
  63.1720505  14.6276703  44.7785225  49.2831192  15.9834986  85.6560974
  50.0353546  16.5540123  85.4983292  48.5348473  16.4743080  85.3163528
  39.3451805  50.6208076  43.5992699  40.1020432  50.4115868  44.1466446
  39.5014648  50.1461105  42.7828941  34.6928635  53.9768829  37.1244278
  34.8636932  54.8784676  37.3968086  34.2515259  53.5794334  37.8750877
  19.0881462  68.6601257  43.5390854  19.1168404  69.3215408  42.8477592
  19.8744297  68.8237305  44.0598755  56.8094978   2.6367946  60.3866692
  56.3708496   3.4822190  60.2913971  56.4485855   2.0989375  59.6819115
  10.4493275  58.2904167  80.7625198  10.8087921  58.7372017  81.5289383
  11.1033010  58.4270134  80.0770340  12.2741518  52.4380760  21.7700901
  12.9935455  52.9559860  21.4088783  11.7184992  53.0777779  22.2153568
  82.4394455  24.4739113  34.6399612  83.3205261  24.2030907  34.8979988
  82.1161880  23.7533970  34.0990410  45.1898918  64.2737350  23.6805992
  44.5544319  63.8778763  23.0841808  45.7451134  63.5447578  23.9572735
  33.4322548   7.3220038   1.3092028  33.1042137   7.6494193   0.4716949
  33.7842903   8.0965309   1.7478509  69.3916550  70.2277985  68.0205307
  70.3374100  70.3199310  67.9052658  69.0310974  71.0609589  67.7170792
   1.1473211  45.5320854  49.8127289   0.2851502  45.6114616  50.2208900
   1.4335761  44.6444969  50.0283127  19.5452290  63.5800743  76.3515167
  19.6192741  63.2106819  75.4715729  19.8712425  62.8899689  76.9291916
  35.2706833  43.6453934  78.8228073  34.9334412  42.7496033  78.8149414
  34.9011650  44.0334702  79.6159592  57.2394066  14.2354698  78.5231934
  57.9926720  14.1446686  79.1067886  56.5080223  13.8642035  79.0166168
  41.3404121  65.5004272  69.3221588  41.5576973  65.1436005  70.1833725
  41.2478371  66.4417114  69.4693146  45.4125557  55.2518654  23.1689243
  45.6719818  54.8939743  24.0179501  44.5486259  54.8742905  23.0037155
  64.4981842  57.4787292  74.4064178  64.5058670  58.1780281  73.7528534
  64.8053818  57.8984909  75.2099457  75.9100952  37.1309624  49.9130783
  75.1377716  36.8187218  50.3845253  76.2901688  36.3419189  49.5268326
  47.8139915  47.9929123  53.0338554  47.7236519  47.2446175  52.4438324
  46.9874687  48.4677811  52.9467163   9.1337166  29.1268291  25.4428158
   9.0992785  29.3851414  26.3638573   8.5010071  28.4121914  25.3706684
   6.8095622  60.0731316  72.2815094   5.9259100  59.9396477  71.9386139
   6.6941500  60.6831169  73.0100861  58.0518188  61.5351067  75.6420364
  58.2300224  61.2994576  74.7315674  57.7951164  62.4565048  75.6051178
  29.1901493  58.8221512  22.4438457  29.3420887  58.3911018  21.6028099
  28.9758816  59.7263794  22.2142925  48.5238876   0.9952059  48.7363167
  48.9372940   0.1322098  48.7125435  48.7640076   1.3988634  47.9022675
   8.8539696  22.2474880  73.9696960   8.4735785  21.3717003  73.9023972
   9.6020508  22.2302132  73.3727798  48.1032333  29.3757553  76.3013535
  48.6364708  29.7195015  75.5846024  48.5264549  29.7053223  77.0941315
   8.0431547  71.1210175  53.1490593   7.1616936  70.9659576  53.4884949
   8.0649233  70.6510239  52.3154716  69.6671448  42.4595795  24.9638596
  68.8371277  41.9876213  25.0313339  70.1506805  41.9971046  24.2793541
  46.0789566  23.7545853  13.6417532  46.2858315  24.3397579  12.9130507
  45.9134102  22.9070683  13.2287865  49.5610123  26.6083107  68.6650620
  48.9842529  26.1204033  68.0772400  49.0405960  27.3636093  68.9387817
  76.5918808  60.5155830  45.8035965  77.3651047  60.3927841  46.3542976
  76.8825073  61.1097755  45.1117134  58.7094917  58.4969292  15.6711550
  58.4776268  58.4053040  16.5953178  58.1142845  59.1696777  15.3404465
  11.0529070  50.1830292  68.9291077  11.9679461  49.9223785  69.0339661
  11.0940218  51.1055107  68.6769714  39.4166412  43.1526527  22.7002773
  39.3484230  42.9193573  23.6261024  39.3686638  42.3157349  22.2382202
  63.3640327   7.6795850  32.9986839  62.4955330   8.0560179  32.8564072
  63.8157349   7.7968388  32.1629524  29.2927723  21.0889530  14.2561903
  28.5357914  21.0767708  14.8419046  30.0419655  20.9275303  14.8296747
  14.7574863  52.5258675   1.3704185  15.5975456  52.0712700   1.3081672
  14.9763937  53.4505157   1.2549509   2.5967891  27.9090710  61.1567268
   1.7167490  27.8575497  60.7837563   2.8936546  26.9999409  61.1965332
  61.3945084  15.4928198  65.5681534  62.3221092  15.2566452  65.5647202
  61.0839119  15.2563772  64.6941681   1.8196194  46.3612595  15.8364706
   1.0607029  45.8634911  16.1406174   1.5260010  46.7728844  15.0237064
  25.7888050  58.4834785  80.2374115  25.6189613  58.2450256  81.1487427
  26.3923283  59.2244186  80.2921906  56.4257927  20.7710838  31.8225212
  55.6312447  20.2919064  31.5873318  57.0839272  20.4643669  31.1988125
  68.6704330   2.7475488  32.9948654  69.3666992   2.7943668  33.6500435
  67.9785309   2.2380340  33.4166412  21.1208706   7.5590758  82.4616013
  21.6099606   8.2128057  81.9619370  21.4735355   7.6229196  83.3491669
  64.8908539   6.4120479  42.5814972  65.3012848   6.6562634  41.7519569
  65.4584045   6.7938704  43.2510796  31.5453453  21.2705326   2.1621196
  31.9513264  20.4586334   2.4658148  30.9767666  21.5386124   2.8839800
  73.6012726  54.2090759   7.6652846  73.6356430  54.9301834   7.0367513
  72.6869354  54.1803246   7.9470563  60.0870285  34.4477921  64.5922394
  60.4955444  34.5541916  65.4513245  59.1844482  34.7405205  64.7183151
  35.2352448  44.9920692  89.0996780  34.7647476  45.6910973  88.6455612
  35.4051895  44.3380547  88.4217300  63.1094704  60.3290215   3.5606182
  62.2895889  59.9126472   3.8264356  63.3813171  60.8337173   4.3271766
  61.9894218  14.0870361   2.4542406  62.4138222  14.6966267   1.8504882
  62.1626244  14.4504642   3.3226600  63.5213737  29.9654083  39.7906837
  63.9808540  30.8023624  39.7227516  64.0568161  29.4462280  40.3906746
  76.8354187  35.0551147  48.2898865  76.2483292  34.3768044  47.9560356
  77.6595306  34.5977020  48.4567375  18.3446445  43.5023727  45.6845093
  17.8105297  42.9967346  46.2971115  17.8738766  43.4456673  44.8530083
  52.9658699  46.3899994  70.4757385  53.0443764  46.9504509  71.2477264
  53.1677742  45.5109901  70.7963791  15.3383121   2.8566599  82.9393997
  15.4613228   3.7463038  83.2705078  15.2160034   2.9668186  81.9964600
  10.0737734  19.6192360  14.9911566  10.6550951  20.3756371  14.9127131
   9.2861176  19.8715115  14.5092993   6.9878387  27.8211308  67.3359909
   7.2434354  27.7403965  68.2548981   7.7002344  28.3165169  66.9318695
  35.5944405  67.8816376  59.6075401  36.1313248  67.7903519  58.8203583
  35.5271797  68.8267670  59.7433128  55.5259247   3.0481992  67.2297363
  55.7411919   3.9796426  67.1817169  54.5929451   3.0286691  67.4428024
  13.4906759  60.4283409  33.4145584  14.0527802  60.9055824  32.8042221
  13.1360550  61.1042747  33.9921265  43.2580795  39.2091675  71.2406845
  43.0428658  39.4736710  70.3462830  43.6578979  38.3447304  71.1451645
  30.1470528  32.1723671  24.5610962  29.5282974  31.9030399  25.2399464
  30.9887409  31.8205776  24.8509846  58.5363960   5.5853791  10.9625940
  58.0925865   6.2465715  10.4314737  58.2270737   4.7498789  10.6126060
  71.6227341  51.3869553  42.2573776  71.8762054  50.8842926  41.4832230
  71.5056458  50.7288322  42.9425049  79.7632217  52.8417778  25.6538582
  80.3145752  52.5364380  26.3742847  79.7533340  52.1124001  25.0340672
  74.6412125  23.3215714  71.4038239  74.6426468  23.6388016  70.5007248
  75.4863586  23.5997791  71.7567520  19.8328362  11.6256075  18.8342514
  20.7020416  11.2832146  18.6257324  19.2389965  11.1322727  18.2683830
  36.1860847  17.6557579   4.0998955  35.6277275  18.4093704   3.9087431
  36.9676743  17.7949905   3.5651414  61.2752457  54.5853615  51.3755379
  61.9272575  54.7119141  50.6862640  61.7077637  54.0171661  52.0129623
  62.7853699  64.9922104  14.8086519  63.5399551  65.5652847  14.9443703
  63.1533852  64.2005234  14.4161844  79.2231750  63.7258759   5.1274419
  79.3320007  62.7850037   5.2658448  78.8931122  63.7996445   4.2319822
  49.2929611  48.5812759   2.6357422  49.2705421  49.3346825   2.0457354
  49.8447723  47.9412918   2.1861215  12.6238508  57.3479614  37.8501816
  12.3613720  57.1541557  38.7500534  13.0945683  58.1791496  37.9117241
  78.2984390  45.4977913  47.6769524  78.9187546  45.0217590  47.1248398
  77.7580338  45.9910164  47.0597687  86.3099899  50.9145584  30.2956810
  86.0504456  50.1150742  29.8377609  86.1151733  51.6187515  29.6773033
   2.1694024  65.1197205  60.5586967   2.1826255  65.1186523  61.5158043
   1.3180547  64.7463989  60.3305092  39.8688469  51.9057808  73.2869644
  40.4934349  52.6303253  73.3209152  39.0360909  52.3180046  73.0571365
  66.0768127  43.5603027  18.8048820  65.1557465  43.3980370  19.0086803
  66.4920654  43.6874313  19.6578979  19.7386742  27.9938335  78.0543594
  20.1255913  28.1619663  77.1951370  19.7838383  27.0430622  78.1554718
  53.7117233  46.2295151  18.8375549  53.3288231  47.0790443  18.6186466
  54.2672653  46.0168037  18.0876484  29.9547920  56.7046394  29.0056000
  29.7508659  55.8140793  28.7200317  30.7849674  56.9098663  28.5755749
  15.6860018  67.2030869  16.9194241  15.8884115  66.3700638  17.3452721
  14.8660984  67.0406113  16.4529552  11.5790682  59.2192497  83.8301697
  12.4615450  59.1060905  84.1832428  11.2301874  59.9789925  84.2963257
   5.5895119   2.0065167  25.6559124   4.7659464   2.2693450  26.0668793
   6.2141709   1.9598625  26.3796921  10.0069818  42.3565750  65.9093094
   9.1299667  42.1650085  66.2415466  10.1036825  41.7870140  65.1461105
  25.8022442  54.2379723  68.0389938  25.5032272  54.0974541  67.1406174
  25.2964516  53.6143684  68.5600739  65.1912842  66.4253464  31.2587738
  65.3990402  67.2587738  30.8363037  64.2649231  66.4977188  31.4886665
  62.4391975  65.5359650  63.7908249  62.3991661  66.3665695  64.2648773
  63.2491989  65.5885239  63.2835121  82.9431915  28.7249146  80.3333359
  83.4682846  27.9252186  80.3017349  83.2563324  29.1864662  81.1112518
  69.1285706  64.6482315  38.4507103  68.5374603  65.3376694  38.7532005
  68.5548325  63.9043884  38.2669907  62.2478065  20.2763691  67.0105743
  61.9099770  19.8797607  66.2075806  61.6848297  19.9311142  67.7034607
   7.9695907  42.3814240  73.3068314   8.5856991  41.6713371  73.4868851
   8.1153946  42.5972366  72.3857422   1.1216655  44.7551003  39.1392021
   1.0150270  44.7121964  40.0894737   0.2516059  44.9813690  38.8105240
   1.7582350  10.7931824  41.6151924   2.1938283  10.1954565  42.2228241
   1.9932250  10.4654856  40.7470779  30.9892540  54.7183952  79.9926682
  30.6156693  53.8912811  80.2968826  30.9914722  54.6435852  79.0383987
   2.9847829  50.0653419  59.7007294   2.2778845  49.4639397  59.4665375
   3.1609547  50.5528336  58.8960266  47.2639999  17.4582405  66.8108749
  47.1617584  17.3939323  67.7604218  46.5631027  16.9108143  66.4568939
  49.3772659  49.4030952  51.4329643  48.8231087  48.9760590  52.0862503
  49.4815063  50.2982407  51.7555885  15.0855179  60.3635254  25.3409805
  15.6484756  59.7184334  25.7689610  14.8569384  60.9806137  26.0360966
   6.9275751  59.9061623  68.2528458   7.7479992  59.4485054  68.4363861
   7.0223489  60.7523613  68.6901093  65.4585571  26.5010605  75.3990707
  64.6955872  26.1835957  75.8821030  65.3404694  26.1588135  74.5129776
  64.8829269   9.4804125  66.6105194  65.6348038   8.8925133  66.6832428
  64.5734634   9.3634911  65.7123032   9.3100567  27.7754803  88.3146362
   9.0357494  28.5681000  87.8533936  10.2074537  27.6241646  88.0179596
  37.4929199  68.4315491  81.4484558  37.2910233  67.4977341  81.5073700
  36.6451263  68.8511200  81.3020554  10.1033525  65.3300629  11.6048002
   9.3503265  65.9209824  11.6058264   9.7524242  64.4943542  11.9124918
  57.4503365  39.4011154  40.2606316  58.2576599  39.5491219  39.7681351
  57.0205994  40.2562370  40.2786789   9.1899929  58.4385986  33.3241348
   9.3731880  59.3352318  33.6047096   9.5143156  58.3981705  32.4244614
  80.2603836  52.7489281  11.4303637  80.0778732  52.2918358  12.2513313
  79.4227524  52.7529449  10.9671249  50.4693298   0.9965225  54.3847046
  49.5940819   0.6093925  54.3673286  51.0529404   0.2609235  54.5705070
  78.9801712  32.0411835  40.3811951  79.8242416  32.0963554  39.9331665
  78.3347397  32.0221214  39.6745911  41.1250954  71.2099152  38.6273613
  40.3980255  71.0459976  39.2279701  40.9146194  70.6929398  37.8497581
  85.1941910  14.0729370  30.8076687  85.3811417  14.8162508  31.3810501
  85.8119888  14.1682959  30.0827770  59.1110611  68.2549591  26.1061821
  59.1863174  69.1984100  25.9630833  59.3920097  67.8640594  25.2788391
  48.6113091  57.8613129   2.0974722  48.5284233  57.3550682   2.9056060
  49.5514755  58.0171242   2.0078149  70.5140610  43.9822426  55.8943977
  69.8032990  44.3263435  55.3534393  71.2817307  44.4907684  55.6330261
  20.3021679   7.5120540  73.2422028  21.0755692   7.4830055  73.8054428
  20.4906292   6.8849335  72.5440369  62.6458549  29.1681271  78.6323318
  63.5841713  29.1158962  78.4504929  62.2640419  29.5111694  77.8243942
  17.2716351  25.7040806  18.5856495  17.2814980  25.8647327  19.5292206
  17.2275734  24.7512722  18.5053635  70.6523132  31.1478691  68.7014084
  71.4929428  31.1467781  69.1592026  70.7322159  31.8498211  68.0555649
  75.6100693   0.1167130  51.5698204  74.8544312   0.1258555  52.1573219
  76.2779388   0.6244295  52.0307007  21.0014839  63.7690811  56.2740288
  20.2926044  64.3685532  56.0408897  20.7736225  62.9477768  55.8384056
  81.4434204  34.0321960  87.9395142  81.6842880  34.5058479  87.1433563
  81.3304749  33.1255951  87.6539459  55.8943481  21.6588840  89.0748520
  55.4785194  21.9432144  88.2609253  55.2491875  21.0828037  89.4848862
  36.7964287  64.8058395  22.9545670  36.2099724  65.4984589  23.2588348
  37.5925293  65.2658463  22.6883850  71.2602310  48.7310295  83.2183304
  71.5594406  49.6396255  83.1842422  70.4462128  48.7656250  83.7207413
  63.6064453  11.5057354  22.5338345  63.4128647  11.0470419  21.7163010
  63.9670601  10.8300552  23.1079807  54.1528778  40.3851852   9.6798401
  54.8932381  40.7369003   9.1854753  54.0574074  39.4874001   9.3618774
  52.1653366  13.8561745  10.7670603  51.3818207  14.3364573  10.4993639
  52.8455772  14.1511097  10.1616507  51.4796791   8.6790905  38.3157425
  50.9307518   8.0114670  38.7270699  50.8840675   9.1562433  37.7379837
  55.6511345   9.7746181  66.2659912  54.8455544  10.0183706  66.7219086
  56.3439865   9.9180603  66.9106674  64.0189362   8.3361959   7.9963865
  64.7097702   7.9394131   8.5269957  63.2060089   7.9865870   8.3612833
  61.7510338  64.8083954  29.8186207  61.9501457  65.0263519  30.7291603
  61.7378349  65.6525955  29.3676434  40.8588829  57.7876892  88.7272949
  41.0093155  57.3874435  87.8709030  40.0094070  57.4454842  89.0057144
   1.1878335  47.2230873  65.9477158   1.0484189  47.2828712  66.8928146
   0.9623358  48.0925293  65.6168747  77.0760803   9.0642519  81.1119690
  77.1629562   8.4454956  80.3868332  77.5223999   8.6391735  81.8443222
  40.9241982   7.3976269  25.2372456  40.6517754   7.6200471  24.3469944
  41.8735733   7.5197229  25.2347603  19.3510914  61.0163994   0.7080251
  18.8049469  61.7483406   0.4212831  19.5185661  60.5154190  -0.0902254
  72.2873611  12.7779150  68.6601944  71.6891403  13.1344557  68.0035019
  72.6085739  13.5454512  69.1334152  26.8550663  49.9588242  88.9826202
  27.4516277  50.5982475  89.3718338  26.2411289  50.4849358  88.4702530
  72.4429474   9.4120741   2.6885169  73.3739395   9.5866995   2.8263180
  72.0071793   9.8415613   3.4246404  34.1853790  59.7117119  11.6059103
  34.5075836  58.9867935  11.0702677  33.2457275  59.7431183  11.4261894
  11.8616781  47.6692505  40.1786537  11.8218451  48.6103058  40.3491211
  11.8888187  47.2693253  41.0478821  47.6457443   6.4662642  57.8657646
  48.3667374   6.8701763  57.3827934  47.4545326   5.6623397  57.3826752
  20.0457134   1.1633441   1.4142207  19.3444099   1.7438488   1.1185551
  20.8467484   1.5643233   1.0768889  31.0314064  40.1021538  29.0855942
  30.2788105  39.5224609  29.2029972  31.3891716  39.8601685  28.2313824
  19.2271061  51.2736778  20.0856743  20.0381451  51.2950363  19.5777473
  19.5148220  51.1620712  20.9917622  72.5734100  12.2704077  27.0088978
  72.1049423  11.8616066  27.7366714  72.3206558  13.1927509  27.0492783
  63.3149414  44.7331581  17.3508778  64.1294327  45.1525726  17.0735168
  62.7727814  45.4529152  17.6737480  46.5770721  24.2148647  54.6822433
  46.9408875  23.6882915  53.9704933  46.0913696  24.9115276  54.2406693
  58.5990028  59.9724388  29.8856411  57.8566055  59.5532570  29.4504852
  58.9559517  59.2931747  30.4578476   7.1051922  45.3390656  58.1079788
   6.8019834  45.5945244  58.9792061   6.3316097  45.4240646  57.5506821
  78.9673462  37.8933792  23.6075706  79.8009338  38.1081047  24.0261955
  78.7058868  38.7014313  23.1660709  60.0831299  17.7062950   2.2314563
  60.0242958  18.1156464   1.3682053  61.0225906  17.6480350   2.4053807
  45.7807846  55.9849777   3.5006659  45.8548241  55.1353645   3.0660360
  46.5943298  56.0715370   3.9975369  72.6786575  11.6578350  32.8414268
  71.7784653  11.3900833  33.0263100  72.5895920  12.4050989  32.2499084
   2.3135152   0.4793494  64.4326782   2.5102613   1.1948060  65.0373611
   1.8858122  -0.1826094  64.9759216  74.8364029   7.5103207  54.1619949
  74.6239471   7.8814745  55.0183449  75.2123718   8.2408838  53.6709175
  82.6544724  70.7095490  49.7987709  83.2804871  70.6163025  50.5168571
  82.9087524  71.5232544  49.3634949  27.0043507  40.8326874  72.6784363
  27.6790409  41.4985695  72.8112030  27.3316631  40.0637054  73.1450958
  21.9712868  50.8977890  64.4495468  22.0799942  51.7374420  64.0030136
  22.6046600  50.3178864  64.0267258  55.9932785  15.2179098  31.0903072
  56.6949539  14.6032562  30.8756294  55.3872910  14.7105255  31.6302814
  23.0801945  49.6898613  42.4323616  23.5757389  48.9937782  42.0009308
  22.2930012  49.7905235  41.8971748  73.1939087  27.2977619  54.6107559
  72.2916946  27.0287647  54.4379120  73.2202530  27.4552708  55.5545387
  31.5780430  54.4104576   8.2250872  31.7105293  54.1403008   7.3164105
  30.8192062  53.9052696   8.5169468  80.6209946  40.4074974  12.6860981
  80.9495621  39.6308784  13.1390200  81.2518539  40.5591850  11.9823666
   3.4183898   1.7938564  45.6899529   3.3785799   1.5831892  46.6228333
   2.5062985   1.7721872  45.4003792   7.2800808  65.3052368  32.8939400
   7.9102225  64.9683762  32.2570152   7.8149033  65.5737534  33.6409988
  64.5305862  20.7276192  62.0637665  64.4862213  21.5275078  61.5398941
  65.3532639  20.3146935  61.8012314  19.3304443  56.3242226  74.7160492
  18.5994225  55.8279610  75.0842361  18.9781971  56.7100067  73.9139786
   2.6484351   9.7219133  69.1291046   2.4748080   8.9783812  69.7063751
   2.6362152  10.4833479  69.7090149   5.8057146  50.8732948  81.8430252
   6.2992411  50.1217308  82.1713867   6.3908172  51.2846222  81.2068710
  50.7019920  21.4106560  13.8358850  50.1714783  21.9160576  13.2199669
  50.4769783  20.4983654  13.6533279  24.5820675  40.8214111  83.5233154
  23.7460251  41.1206818  83.1659546  25.2118168  40.9730988  82.8185883
  23.8714142  64.2631531  31.5157795  24.0437393  64.1009064  32.4432564
  23.2937565  63.5474167  31.2507133  75.2266693  31.0107079  85.0318451
  75.8443985  31.7127838  84.8275681  74.7412186  30.8745537  84.2181931
  86.7310944  31.2298317  13.4508448  86.7893753  31.9494534  14.0793190
  86.1750412  31.5689011  12.7493725  29.1451492  25.2018661  76.5783157
  28.9866257  24.8474960  77.4532623  28.2726421  25.4016113  76.2391052
  60.6286316  59.5887566  65.8841171  60.4302025  59.6301842  66.8196106
  60.2805557  60.4066582  65.5289917  35.0140343  34.7679024  75.0731888
  34.9460182  34.1613388  75.8105392  35.5187073  34.2895927  74.4153442
  81.3940277  14.7687454  35.1975212  81.8698578  15.4658623  35.6490173
  81.9929657  14.0222063  35.2111931  20.8584156  22.2822018  56.3655128
  19.9972496  22.6165123  56.6162338  21.1928425  21.8631878  57.1584930
   5.5394578  10.6595488  23.4076500   6.1706362  10.0920172  22.9652081
   6.0780282  11.2976208  23.8756638  72.2151566  23.7826042  22.3194351
  72.2380676  24.4555664  22.9997501  71.3095474  23.4726028  22.3195915
  58.6531410   9.5764742  35.8440361  57.9235573  10.1875772  35.7416115
  58.2703972   8.7158184  35.6737137  21.2006493  42.0937119  58.2714233
  20.2745323  41.8551369  58.3116684  21.6657791  41.2856216  58.4879303
  22.7516384  20.1983566  30.0566101  22.3044262  20.6736412  29.3563690
  23.2374554  19.5080891  29.6052284   7.6052670   8.6194963  18.5798244
   6.7143965   8.5025778  18.2498055   8.0709820   9.0520248  17.8641014
  33.3409500   2.9154489   6.4323587  34.0747833   3.4875550   6.2078285
  33.5096130   2.6535971   7.3374658  74.6723938  45.3427277  10.7187748
  74.1565552  44.6933975  11.1967955  75.5818405  45.1181221  10.9154787
  53.0991173  52.7009544  60.0665970  52.2229042  52.4972878  59.7394829
  53.2856178  52.0075874  60.6996002   7.6891375  36.9414558  85.6074524
   7.2564845  37.7336807  85.9259262   7.8269935  36.4116936  86.3926773
  60.2465057  36.4599571  77.9712296  60.8759308  36.4556503  78.6923676
  59.4329796  36.1403961  78.3614731  25.4932461  47.4809418   2.4014928
  25.5945740  47.2779160   3.3314099  25.9677773  48.3037300   2.2828836
  53.5757675  20.9472828   9.5437479  53.4297256  21.1027489   8.6106167
  54.5259781  20.8677521   9.6274710  21.7542553  64.0636292  73.8831253
  21.8266964  64.8277206  73.3111572  21.2737598  63.4196854  73.3628464
  46.5478134  60.4977684  69.7500305  46.6030769  61.3606949  70.1605682
  46.0188332  60.6394615  68.9649658  49.8810349  66.7988052  11.9861727
  49.4361420  65.9925308  11.7249823  50.0639381  66.6802902  12.9182301
  73.1284332  31.4564304  30.9610176  73.1055069  31.0573807  31.8307667
  72.4435425  32.1246681  30.9859695  12.3809652  49.2871971  66.3052673
  12.6368895  49.0158272  67.1867981  11.5408220  48.8536110  66.1556320
  66.9040985  67.2899704  47.1624565  66.3313217  67.5223083  47.8933258
  67.2602386  66.4338455  47.4000282  54.0935783  44.3652534  85.4074707
  54.5407181  43.5677605  85.6908569  53.1646080  44.1346359  85.4152451
  21.4933529  59.8933411  25.1869316  21.0903778  59.8255959  24.3213387
  20.8133183  60.2806892  25.7380638  72.8218384  50.6847801  31.2167397
  72.2428665  51.2745590  30.7338486  72.7827225  49.8605080  30.7316856
  80.2358704  70.5403137  48.9149933  81.1544952  70.4061279  49.1481285
  79.8394165  69.6726990  48.9943848  32.3291550  36.3120499  54.1867142
  32.0990906  36.1837311  53.2664757  32.4427071  37.2583313  54.2755089
  39.3422318  64.2641602  59.1050873  39.2855721  65.1464462  58.7382164
  38.5911331  64.2014313  59.6951294  29.8409176  62.0297852  41.2032127
  30.1871738  62.8470268  41.5616188  29.8491783  61.4216118  41.9423256
  47.7801781  63.0938492  55.3694801  47.0043449  63.0074654  55.9234276
  47.7539406  62.3256264  54.7990646  24.1876259  11.4371758  61.1459198
  23.7914791  10.7011442  61.6123543  23.7209072  12.2065830  61.4721413
  58.1348000  11.8899260  52.1020508  58.3758011  12.7439137  52.4610138
  58.2901573  11.9730940  51.1612091  56.4293823  22.2130680  49.9192696
  55.7444572  22.4399967  50.5482483  56.6265297  23.0363007  49.4724426
  84.0414429  58.5559425  47.9304543  83.2240829  58.0580215  47.9456253
  83.7741089  59.4602242  48.0948906  55.5610542  71.3397522  49.5027580
  55.6105080  70.3936844  49.6396446  54.8283005  71.4562759  48.8980026
  67.8149109  44.5595245   6.7008862  68.2866821  43.7806892   6.4057879
  68.2244568  44.7855453   7.5360003  66.9332657  24.8141117  80.7786636
  67.3154907  25.4918118  81.3362122  66.6589966  25.2802486  79.9889069
  78.3285980  59.5568008  17.5864868  78.2947693  60.5015640  17.4364643
  79.2592773  59.3660316  17.7034245   9.8715105  40.3707809  59.5706749
   8.9246826  40.3086510  59.6967239  10.1041946  39.5680771  59.1040306
  80.3088837  14.9187269  25.4317970  80.4195099  15.7635298  25.8680325
  80.8881989  14.9642611  24.6711655  39.7639313  36.9037971  42.7697792
  40.4601097  37.0095901  42.1214142  38.9636383  37.1452789  42.3034668
  10.8720884  42.4724846  32.1458130   9.9638214  42.6503906  32.3900070
  10.8587580  42.4280853  31.1897354   5.1346269   4.9939651  54.4082222
   5.3550849   4.4359570  53.6623955   5.4454618   5.8636770  54.1567955
   5.6751709  62.9233742  13.3822832   5.3679776  62.9729538  12.4770727
   5.6548939  63.8288460  13.6920261  25.7916622  68.5616837   0.2530476
  26.0629978  68.8670502  -0.6126070  26.5647278  68.6852722   0.8038005
  47.9424362  64.8915405   1.1475415  48.2369957  64.4438095   0.3544447
  47.1705666  64.3996201   1.4276470  55.6985703  53.9173241  18.9465961
  56.6006050  54.1636810  19.1512280  55.1629105  54.5108604  19.4729137
  45.8919487   0.8396983  49.2110672  45.5735626   1.5109336  48.6074867
  46.8318138   0.7877226  49.0373268  58.3482704  18.7408752  19.0887489
  57.9432297  18.5499001  19.9347401  58.9095650  19.4976845  19.2573299
  15.9646063  47.1007156  19.9572773  16.7488194  46.7030945  19.5789413
  15.2979851  47.0104752  19.2763195  22.9672680  52.6264114  80.5599594
  22.9796047  53.5297813  80.2437286  23.3231583  52.1137161  79.8342056
  12.2339487  40.4229736  61.3115120  11.6355715  40.2154045  60.5938110
  12.0640717  39.7473755  61.9679718  21.5105438  53.8807907  38.4370880
  21.1431122  53.1040344  38.0153351  20.7499218  54.3484497  38.7820244
  36.7740936  60.4788322  25.7510643  36.4826508  60.5625725  24.8431644
  37.7057343  60.2692299  25.6851845  41.7989197  44.3903809  26.7552719
  41.7269707  45.3144798  26.5163193  41.7524185  43.9230042  25.9212303
  46.0934334  28.1627064  50.8184662  46.6340637  27.3764820  50.8946648
  45.9089890  28.4151535  51.7231636  48.3214417  68.2664948  47.4333839
  47.7165985  68.6376648  46.7910194  47.7851830  67.6611176  47.9454231
  30.5039310  52.5963135  58.1724548  31.4134903  52.4213486  57.9309502
  30.3616066  53.5096855  57.9240074  73.7244110  43.9151917   1.8671911
  73.2602844  44.7521286   1.8482273  74.4367905  44.0220299   1.2368414
  32.4374771  42.7427292  32.8427620  32.6643562  42.6634827  33.7693024
  32.5661621  41.8628387  32.4885521  21.9218960  30.2379951  67.2433167
  22.1336422  30.0090065  68.1482849  22.1431484  29.4544754  66.7399521
   9.7666187  45.8110313  78.2868729   8.8644228  45.9297752  77.9899292
  10.2411385  46.5542259  77.9144135  81.1237564  34.0214844  41.4845085
  80.9506912  34.1743546  42.4134407  81.9023056  33.4647141  41.4743843
  77.8101196  54.3940582  17.0415936  77.9923782  55.0299301  17.7334595
  77.1403809  53.8203964  17.4138927  83.0043411  62.2843361  74.1126938
  83.1103973  61.4742393  73.6139755  83.5621872  62.9180527  73.6616440
  45.1310501  51.2492065  59.0565491  44.7399826  52.0449448  58.6958618
  46.0537720  51.3016434  58.8074226  26.8943977  53.7199020   6.2818270
  26.6031437  54.5558052   6.6460681  27.4219685  53.9612198   5.5204673
  69.5321579  29.4110451  55.3467216  69.1874161  29.9085426  56.0882607
  69.8672256  28.6030369  55.7354202  41.3754234  46.9110298  65.3734894
  40.5904427  47.2791100  64.9678345  41.6547585  46.2208900  64.7718964
  35.0884514  57.9627724  33.0286293  35.0793190  57.7600708  33.9640770
  34.7603836  58.8603859  32.9748459  26.8504753  27.3560143  45.2390747
  25.9545059  27.0429802  45.3634987  27.1009102  27.0282726  44.3753052
  81.7079697  10.6640501  84.0751114  82.4895325  11.1575413  84.3238220
  81.9777985   9.7470217  84.1249695   4.6567903  13.4051409  36.7793045
   5.5462642  13.2889252  36.4452934   4.5209641  12.6591825  37.3635368
   1.6234123  57.3525658  54.6886597   1.1254518  58.0149918  55.1676750
   2.0355060  56.8227654  55.3710976   8.8974810  39.1671562  55.7792435
   8.8024979  38.4225273  56.3731613   9.6528454  39.6482391  56.1171989
  51.1831055  38.5792542  16.2854767  50.3644257  38.4244080  16.7566624
  50.9518356  39.2112350  15.6047802  52.7802315  44.6844826  78.5830994
  53.6213303  44.2639236  78.7617416  52.1497765  43.9643059  78.5726776
  54.1771774   8.7593479  86.5579453  53.8689232   9.5707836  86.1544800
  53.4135399   8.1822805  86.5490341  78.7349091  22.9939003  62.0410233
  78.6820831  23.1992683  61.1076088  79.6660919  23.0674248  62.2501183
   5.3662148  14.9943657  84.7003250   6.0033579  14.4437590  85.1554184
   5.1873946  14.5286188  83.8834152  14.4834690  68.7877274  61.1982918
  13.6255922  68.9462814  61.5921707  14.3177347  68.1350937  60.5179710
  41.1243744  23.2371616  -0.2101204  41.1642570  24.1769085  -0.0325880
  41.5934830  22.8351688   0.5210219  33.1186943  11.4830313   9.9240713
  33.6334801  10.6806068  10.0097561  33.3047066  11.9735670  10.7247000
  43.7383919  54.7216034  67.8918533  44.6729012  54.7844582  68.0892715
  43.6990776  54.2241211  67.0750351  80.0450211   4.5980382  85.7998810
  79.8180542   5.2575817  86.4554138  79.8717651   5.0248032  84.9607849
  47.9568367  69.0149536  32.1107864  48.7472725  68.9334641  32.6444550
  47.6732674  68.1126785  31.9634171  20.3431873  48.7236786  43.7977219
  21.2320518  48.3736801  43.8581848  20.3541565  49.5026512  44.3538818
  68.5575027  29.8762188  45.6361084  68.9253616  29.3486767  46.3450623
  67.6369476  29.9878845  45.8734703  22.7547569  39.8716583  15.8100023
  22.0523129  40.4117470  15.4479113  23.4440460  39.8987656  15.1463938
  82.8972321   3.9836776  35.9729385  83.3306198   3.5944641  35.2133865
  82.8252487   4.9134779  35.7572517  17.9272423  42.3314171  77.7849808
  17.2721443  43.0134125  77.6367950  17.6244144  41.5903549  77.2602386
  84.6582108  58.9998207  39.0230484  85.1109543  59.4249840  38.2947044
  84.3000641  58.1961746  38.6460686  14.8489828  30.0516205   4.1366711
  14.6774797  29.6896000   5.0060158  15.4112272  30.8090305   4.2992806
  45.1654549  20.4314537  81.5154419  45.2034988  21.2855129  81.9459839
  45.4973717  20.5934086  80.6323624  40.6688385  44.1636772  43.7904053
  40.8111153  44.0001297  44.7227364  40.9175758  43.3442192  43.3627968
  47.8729515  25.5631542  71.1776810  48.5439339  25.9190788  70.5951614
  48.0824966  24.6314850  71.2433548  42.6492424   1.4786162  37.4840851
  42.2628860   0.7513226  37.9719391  41.9233818   1.8366228  36.9730186
  77.2138443  10.9861965  78.3647842  77.3268280  11.7630701  77.8171234
  77.9855728  10.4501543  78.1822281   4.1925106  11.3460121  64.0258026
   3.3744605  11.3859940  64.5212097   4.4906802  10.4422340  64.1283264
  74.0522308   1.0078855  68.1040726  74.2801361   1.9296623  67.9831696
  73.9798660   0.9014756  69.0525818  28.0314083  49.0019302  15.4227161
  27.3886127  48.3785210  15.0844707  27.8300743  49.0709267  16.3559551
   6.5145998  49.4673805  28.4325752   6.2432866  49.3579407  29.3439713
   7.1881475  48.8000259  28.3014011  48.0429497  22.0868988  17.3865871
  47.1939316  22.3701248  17.0472031  47.8280716  21.4507732  18.0687923
  43.6214066  32.5265198  69.3130417  42.8680611  32.1274376  69.7482910
  43.2700348  32.8670349  68.4903564  54.8125305  68.8721161  86.4959335
  55.5124245  68.2202530  86.4578629  54.1889839  68.5934982  85.8252716
  24.9284248  41.8476524  57.6763535  24.7153263  41.1445885  58.2899704
  25.8848515  41.8503685  57.6379929  60.1709023  66.9080811   2.2083335
  60.7475853  66.5905304   2.9031951  59.5204849  66.2140503   2.1010237
   2.1476510  21.2550812  23.8512630   2.4468451  21.3444462  22.9464264
   1.9820958  22.1530094  24.1385765  82.2236176  38.9231300  81.9028015
  81.9725113  39.7081528  82.3895493  82.5702362  38.3291473  82.5685959
  60.6380043   5.9682121  58.1032143  60.1805115   6.4586029  58.7861862
  61.0817413   5.2615328  58.5721855  52.7080765  45.6896744  57.0139351
  52.7288780  45.6044159  56.0607681  52.3897209  46.5791435  57.1679535
  23.1865273  17.8667164  55.6437683  22.5460377  17.9040947  56.3541260
  23.4760895  18.7724934  55.5344467  24.1500626  15.6907206  82.2097168
  24.0104561  15.6847944  83.1566620  25.0612545  15.4187307  82.1002426
   4.2589645  54.6227570  87.6889038   3.4281147  55.0511398  87.8948364
   4.0152040  53.7270432  87.4554291  63.6883354  33.2593346  65.5236359
  63.1643982  34.0521545  65.6383286  63.0543747  32.5439339  65.5739288
  43.9001160  61.5581436  77.5775757  43.8239441  62.2831192  76.9572144
  44.5304642  61.8655777  78.2290192   8.8031168  70.7631378  65.7886200
   8.2573271  70.2718201  65.1746597   9.2655001  71.3987579  65.2423477
  41.3347244   2.5640423   1.0354733  40.9112625   2.8667772   0.2321898
  42.1750259   2.2098925   0.7444338  71.5505142  13.0694160  35.8951416
  71.2134781  12.8073864  35.0384140  71.2406921  13.9677944  36.0098572
  69.1058044   9.6199179  67.3670425  69.8358917   9.5154686  67.9771957
  69.5053864   9.9783735  66.5745316  75.6868591  40.8980751  87.2620163
  76.4124222  41.5100746  87.3854752  75.1296234  41.3164902  86.6057739
  75.8782883  14.5095119  36.5110016  76.7160034  14.0465107  36.5008049
  75.2852249  13.9424906  36.0180626  71.8975067  40.8728065  16.6251659
  71.4252930  41.2802734  17.3512630  71.3700714  40.1076736  16.3957806
  74.3053665  12.0156660  46.1695862  74.9540482  11.3120737  46.1494446
  74.1528320  12.2272453  45.2486115   7.8382421  10.3966436  10.7830296
   7.6424937  10.1825247   9.8708525   8.7943869  10.4074697  10.8266382
  38.9766197  37.6335182  21.6226616  38.1726608  37.1190605  21.5504475
  39.6431694  37.0001678  21.8887577  35.9460297  58.9409828  15.4705954
  36.9007072  58.9557686  15.4027195  35.7700310  58.4320793  16.2619705
  14.1775723  53.1155777  24.2050953  13.5640306  52.5069008  23.7936230
  14.9894285  53.0090179  23.7093468  64.2919998  51.8662720  55.4646683
  65.1993103  52.0869293  55.6752129  64.1216049  51.0612717  55.9537201
  64.9473343  51.9475517   9.5326633  65.8235016  51.5726433   9.6221447
  64.5776138  51.9055023  10.4145746  51.2314644   2.2960837  57.5201416
  51.6373367   2.9412444  58.0991631  51.5484085   2.5253880  56.6465302
  42.1436234  56.8832321  82.7879486  42.7540054  56.7345276  83.5101395
  42.5587273  57.5653610  82.2601089  80.3154984   7.5935922  50.9507065
  80.3090515   8.5478439  51.0254936  79.8377151   7.2896323  51.7224350
  43.7309799  59.2052536  40.3234787  42.8195534  59.2717094  40.6082916
  43.7102432  58.5815277  39.5976944   0.1776442  49.8470039  41.1976433
   0.6938446  49.4671516  40.4866714  -0.3723824  50.5034142  40.7700577
  19.9034634   2.6811888  19.0585918  19.4866829   2.5912344  18.2016010
  20.4628639   3.4531868  18.9730244  44.6973152  71.5112305  67.6469803
  45.1283302  70.8066406  68.1307297  45.4090919  71.9561768  67.1869507
  57.0921364  57.5475616  73.7315903  56.2480888  57.1493111  73.9442215
  57.4530334  56.9902344  73.0421219  39.9482689  48.3694572  12.3830366
  40.7691612  48.0597725  12.0003328  39.5626411  48.9248543  11.7054996
  54.8539543  17.6975517  75.0476532  54.4650574  18.5549278  75.2205734
  55.6235580  17.6646404  75.6158676  29.8931599  54.4335632  61.6595650
  30.5216198  53.7413445  61.4543762  29.5756626  54.2166710  62.5361404
  77.1447983   1.7164483  78.8570557  76.3409424   2.2292929  78.7731705
  77.4764175   1.9317924  79.7287750  38.0689812  20.1624851  20.7798119
  38.5806770  20.9590111  20.6385841  38.1449738  19.6798935  19.9566689
  65.5589447  18.6924038  72.4154358  65.1388397  17.8628101  72.1884537
  65.1360550  19.3378658  71.8490677  43.9648933   1.6293154  81.8506012
  44.4245377   2.4680595  81.8123016  43.8115845   1.3981594  80.9344711
  31.2275410   0.9926662  68.4237900  31.8191891   0.4725667  67.8800278
  31.7888680   1.6608778  68.8170319  74.5579071  42.4650383  59.1999130
  74.7457352  41.5295448  59.2761192  73.6023331  42.5165100  59.1786613
  86.4935379  51.1071587  53.7526093  85.7658844  50.7539902  53.2407303
  87.0023499  50.3376923  54.0080833  50.0463562  32.4087982  27.5919113
  50.4077911  32.5592766  26.7184410  50.3241310  33.1706009  28.1005688
  73.3031006  56.1573105  78.2454910  73.8111954  56.7648277  77.7079163
  72.3940964  56.3137627  77.9896164  14.1208858  69.8120117  57.7520294
  14.0381947  69.0851898  58.3693848  13.2494802  70.2074585  57.7295151
  33.9477959  67.6341858  14.1626139  33.9291000  68.4783783  14.6134186
  34.3813591  67.0433807  14.7784033   3.8074741   5.2802291  48.1520615
   2.8890843   5.2325435  47.8865089   4.0342140   4.3819046  48.3925476
  74.5664139  53.6849785  12.9322224  75.5179825  53.6570015  12.8324127
  74.4275665  54.0699577  13.7975216  34.8996124  41.2811012  19.9688873
  33.9456444  41.3460655  20.0131378  35.1904678  42.1679192  19.7563248
  27.9303532  66.0400620  47.5149727  28.1162853  66.4299240  48.3691788
  27.8627281  66.7871094  46.9203491  29.1142921  26.3805351  46.4326630
  28.4215240  26.9772358  46.1493759  29.5567436  26.8467541  47.1419678
  64.6649246  18.3715572  46.9336662  65.6090469  18.2466812  47.0299759
  64.3052444  17.4845181  46.9290199  64.5577240  10.0752954  39.7572136
  63.8364334   9.5068007  40.0269928  64.8298416   9.7298441  38.9070091
  76.3443146   4.7872071  82.1498413  76.1519470   5.2286143  81.3225632
  76.8321075   5.4345760  82.6589584  76.9938278  27.1551819  40.2895966
  77.7224503  26.7063236  39.8607941  77.3707886  27.5077515  41.0957146
  42.4800339  63.5455971  25.4492722  43.3693466  63.8904762  25.5293751
  42.5449371  62.8703270  24.7739716  61.8218117  30.2421341  68.1959457
  61.7312241  30.7232952  67.3734436  62.6547966  30.5430717  68.5589828
  24.0742989  57.7618713  67.6590118  24.1933689  57.1673355  66.9183502
  23.5874023  57.2476692  68.3030319  63.6379890  40.9844170  33.5615883
  64.2257385  40.3192024  33.2034302  62.9758110  40.4860992  34.0405807
   7.3154387  30.6367188  42.4121246   8.2638626  30.5507984  42.3154755
   6.9559669  30.2149200  41.6316757  61.4890709  52.6554604  78.5312729
  61.2147179  51.8071709  78.8796463  60.7252045  52.9757614  78.0515366
  74.8999252  14.1923885  24.5749321  74.7647858  13.2590761  24.7389336
  74.0179977  14.5643721  24.5671806  15.3311920   2.5394344  85.9491348
  15.2409678   2.9632487  86.8026428  14.4681330   2.1634233  85.7760010
   4.3116245  56.7433853  40.2163849   3.7486086  55.9708786  40.1665649
   4.5906458  56.7777939  41.1313667   0.2420388   4.4745522  17.0667133
  -0.6369168   4.1530881  17.2675362   0.7393830   3.6879640  16.8427505
  28.6071777  62.3187180  13.9679308  28.2910213  61.5274315  13.5318775
  27.8116055  62.7796059  14.2341623  50.3974342  21.7659988  64.9103012
  49.6167450  21.5573063  65.4233398  51.0368156  21.1011047  65.1659164
  52.4476547  11.1073856  10.9115343  52.9369202  11.0320005  11.7307844
  52.4028282  12.0489388  10.7451038  32.7448311   2.9691648  17.8735027
  32.9963379   3.7830141  18.3101101  33.5524826   2.6566036  17.4657860
  34.3941879  45.3287277  25.1267033  35.1847572  45.2828941  24.5889988
  34.4834480  44.6043854  25.7460556  36.0475731  46.2943573  61.2686386
  35.5716171  45.4819679  61.0962410  36.0384521  46.3795929  62.2219925
  78.5435410  46.9560242  57.2646942  79.3458405  47.4497452  57.0950279
  78.2185059  47.3050537  58.0946121  55.4678879  43.7817917   8.7970810
  55.7062569  42.8548088   8.7865496  56.1535912  44.2112465   8.2855959
   1.5813079  21.5063534  38.5825081   1.0083443  21.2413445  39.3020325
   2.4247355  21.6813049  38.9999466  78.6628952  46.4314499   8.1377335
  78.9671707  45.8248367   7.4627028  77.7763443  46.1352463   8.3439274
   9.8857956  53.9755478   6.5391140   9.4971428  53.9336891   7.4128580
  10.7973766  54.2230186   6.6940641  35.1668205  28.2234440  18.3891621
  35.0624390  28.7037888  19.2105045  34.4199715  27.6252232  18.3649769
  13.9425583  47.8833580  64.3811951  13.5906172  48.6319695  63.8995819
  13.5153532  47.9266396  65.2366791  49.9036751  67.6260452  21.4045582
  49.2529602  68.2279358  21.0432701  50.7213860  68.1235275  21.3951416
  12.4184170  33.0481949  84.0038528  12.5814419  32.9442253  83.0663910
  12.6038380  32.1861229  84.3762589  60.9142494  49.0354118  87.1853867
  61.0383682  49.7750511  86.5906143  60.6706123  48.3069954  86.6141739
   3.1701183  69.8652954  73.4313202   3.3785541  68.9747009  73.7135239
   2.2216797  69.8598404  73.3022232  85.7357178  50.3236389  68.3232803
  84.9386368  50.6733513  68.7215271  85.8592529  49.4720993  68.7426224
  47.7148285  68.7947617   5.9567142  48.6701927  68.7369766   5.9698372
  47.4185295  67.8954926   6.0972543  77.5825348  56.7617569  81.9354553
  77.7045517  57.0195503  81.0217285  76.6431198  56.8621635  82.0892334
  42.6101036  44.8105049  10.0681963  43.3757591  44.6577263   9.5144224
  42.3900375  43.9464340  10.4163065  22.4749031  49.2463188  17.1154995
  22.9790936  50.0042725  17.4113503  23.1347752  48.6252670  16.8071251
  19.1516895  70.2672272   4.3652859  19.7517319  70.8799515   3.9401340
  19.2123394  70.4798737   5.2965937   7.9959965  47.1398163  13.8949080
   8.5185413  47.7154083  14.4533644   7.0916576  47.4131279  14.0488720
  59.8877754  58.2512703  25.3241768  60.0269928  58.4173279  26.2565250
  60.4176216  58.9139900  24.8811264  74.8193588   8.5519381  68.9123459
  74.8265228   8.2045469  69.8042526  75.7283249   8.8009291  68.7449722
  11.3713579  30.1899033   3.7857256  11.5743332  29.9926472   2.8713284
  12.2249680  30.3287239   4.1959839  83.2015305  33.3253899  49.5275955
  83.5878525  32.5057793  49.2190094  82.3358459  33.0754433  49.8506317
  36.2273941  71.0510941  22.5974865  35.8192863  71.8956604  22.4067268
  36.6298637  70.7872391  21.7700634  75.1619263  29.0715199  39.3270187
  75.7295990  29.8363743  39.2322998  75.7587128  28.3560085  39.5463905
  71.2526321  64.8590164  61.2147598  71.1482773  65.7906876  61.4079628
  71.9488373  64.5687180  61.8040504  37.0063095  35.9170418  79.6058426
  37.3990860  35.0887871  79.8814392  37.1648979  35.9552040  78.6626434
   8.5332022  56.3452492  35.1623497   8.6151838  56.8388824  34.3463631
   9.4334269  56.2403030  35.4702682  62.7752686  18.0646076  53.8075943
  63.1533737  17.6902428  54.6032829  63.2761307  18.8666210  53.6587982
  17.0594807  52.3285751  61.5135689  17.9754219  52.1394844  61.3097801
  16.9186592  51.9322281  62.3733978  29.6561069   1.1063514   9.4677973
  29.4410229   1.9909029   9.7636671  30.2058334   0.7477848  10.1645489
  63.0680122   8.5705357  53.4116135  63.9659767   8.7686586  53.1458282
  63.1167946   7.6892934  53.7821045  35.7405243  64.4995422  77.1103134
  35.7816887  63.6495171  76.6721420  36.4197617  65.0220032  76.6838150
  24.8102627  13.8258820  68.2176590  25.4906216  13.1768045  68.0386581
  24.0522423  13.3091841  68.4908981   3.1612477   9.7552414  28.6264286
   3.7747014   9.8738737  27.9012852   2.3156466   9.6072206  28.2030144
   8.3607121  13.8755159  29.2542782   8.7627668  14.3980398  29.9482174
   8.8657465  14.0898447  28.4699097  44.9873848   1.4500860  39.2423477
  44.7794113   0.6511413  39.7267685  44.5981293   1.3145546  38.3784370
  54.1747284  68.4192505  48.0318604  53.3765526  68.8629456  48.3187065
  54.4337769  67.8837433  48.7817688  81.6767731   5.0510988  29.7220097
  82.3563766   4.4190011  29.9561462  81.2109833   5.2166200  30.5416889
   1.2058150   5.6452684  47.1887321   0.5022321   5.0204992  47.0130424
   0.7876727   6.5033073  47.1169090   2.9088671  33.7649117  49.4265594
   3.2859137  34.2386551  50.1679306   2.0498555  33.4787140  49.7370796
  62.5536537  24.3607845  69.1097336  62.0969849  23.9958439  68.3517685
  61.9272690  24.9739017  69.4943924  46.1707420  52.9093819  69.3930664
  46.8589592  53.5570717  69.5450211  46.6391449  52.1241989  69.1096649
  19.4191055  54.6232033  13.0322895  20.1470337  54.8098412  12.4393978
  19.1153126  55.4850197  13.3172789  50.2223091  58.4627876   5.6927314
  49.4280472  58.6822815   5.2056966  50.4830399  57.6069145   5.3525329
  45.2887344  23.5590477  10.1743536  46.2261620  23.7019711  10.3048716
  45.0310287  24.2262096   9.5381804  69.6891861   2.7287807   7.2672906
  70.5954208   2.9173176   7.0235324  69.7597809   2.0864809   7.9734769
  42.5191689  69.4485016  33.1400337  41.7068329  69.6201248  32.6637039
  42.7403717  70.2866211  33.5460701  55.2588158  27.1917439  38.2191238
  55.0419884  26.4587669  37.6429634  54.5760651  27.8405781  38.0485458
  73.6473694  44.4972382  67.7473984  73.4403305  44.4462738  66.8142471
  74.5831909  44.3020554  67.7961121   4.0789590   5.5088406  39.9654694
   4.9800372   5.6763201  39.6893501   4.1649008   5.0872560  40.8205185
   8.7625685  57.5695877  59.8237724   8.4794903  58.4155312  60.1708679
   8.0864096  56.9551620  60.1092949  85.1536713  47.5986633  27.1191254
  84.3557739  47.0709915  27.1531181  85.3861465  47.7407265  28.0367336
  71.0505295  41.7110634  52.3073158  71.0966568  41.9857330  51.3915329
  70.4910049  40.9345016  52.2965622  83.5967255  40.2581520  42.6811485
  83.5473862  40.8772430  43.4095230  82.6844406  40.0414658  42.4887695
   0.6753578  48.6008873  20.4004917   1.0550317  48.6789055  21.2757034
   0.2103520  49.4267731  20.2666473  86.1195679  56.9043121  48.7717438
  85.3174896  57.3658905  48.5270882  85.9755630  56.0035934  48.4815674
  33.5207710  23.8205414  71.7591934  32.8693352  24.2854443  72.2842865
  34.2893066  23.7630901  72.3268967  34.2556381  27.5214615  73.2117157
  34.6360245  26.6470833  73.1280441  33.7295799  27.4783955  74.0102386
  39.8309631   4.3734875  14.8358221  39.7343254   5.0293093  15.5263224
  40.2368393   4.8477454  14.1101665  41.8177986   2.2054062  77.9785309
  41.1676903   2.5764036  78.5751419  42.4417725   2.9163525  77.8320847
   6.3211408  11.1301107  36.5002403   5.8649988  10.3248882  36.7447472
   6.5098982  11.0247555  35.5677719  70.0747528   3.2063518  42.3585968
  70.1765213   3.2837071  43.3072243  69.9812241   2.2664263  42.2036018
   1.1606793  17.7872944  68.1948166   1.8035568  17.1186428  68.4311295
   1.5689945  18.2683506  67.4750290  68.2293777  50.9860954   2.5759306
  67.5348282  50.8701706   3.2243104  68.9067459  51.4813576   3.0364904
  55.1496506  16.2135067  10.4599981  55.1582870  16.6969509  11.2860966
  55.7072830  15.4525557  10.6219673  59.3587341  71.8966370  34.6944733
  59.1923065  71.2496796  35.3800201  58.9412193  71.5316772  33.9142723
  16.2210770  65.9588776  57.3015442  16.1190529  65.6427307  56.4038391
  16.0962276  65.1809311  57.8450890  52.0939140  15.9091816  44.0924034
  51.3954163  16.2346230  44.6602211  51.7606468  15.0776043  43.7552910
  57.2900810  37.2357407   3.0468087  57.1146469  36.4799271   2.4862692
  56.5264702  37.2901649   3.6214118  44.9674759  41.9987259  69.5573349
  45.4694862  42.0538979  70.3704605  44.0535049  41.9785118  69.8410263
  70.0102997   1.1738685  74.0401230  70.3795471   1.4882541  73.2148666
  70.1348648   1.9006025  74.6505127  65.8082504  40.9583626  68.6014328
  66.1472626  40.2980537  67.9970322  65.7651596  41.7602501  68.0805130
  35.6439095  30.6702747  17.1965923  35.5766335  29.7378979  17.4024525
  35.5007629  31.1113720  18.0339546  22.1122913  62.8206253  50.3659973
  22.3593731  63.2128677  51.2034492  21.1559868  62.8606949  50.3556175
   6.5263753  45.5932465  50.3695869   6.7538056  46.3659782  50.8866882
   5.8610592  45.9034538  49.7552948  50.0203514  45.9971161  34.0937920
  50.3395233  45.1924057  34.5022087  49.4204521  45.6974182  33.4107590
  17.2598610   5.1073785  11.5294523  16.8074036   5.8778696  11.8727570
  16.5591888   4.5469918  11.1958981  57.8207436  67.9096603  80.5395966
  57.0852318  68.0216751  79.9373474  58.2848701  67.1399994  80.2102890
  20.2785740  28.5370026  83.5170059  20.6811237  27.7960835  83.9700241
  20.4628487  28.3802891  82.5908813  39.4822845  30.3331089  74.3737717
  38.5780907  30.2184200  74.6661911  39.6537857  31.2680206  74.4867401
  59.6653671  43.8780060  52.8984375  59.9506493  44.6679192  53.3576584
  59.0858498  44.1987877  52.2074318  23.3276939  35.1027145  82.9769287
  22.9716454  34.3061829  83.3706284  22.7019749  35.3303375  82.2892532
  59.0866203  33.5450859  10.2815313  58.4186020  33.6405716  10.9604025
  59.4094429  32.6501999  10.3873510  56.8839760  18.3166256  16.7220612
  57.4222336  18.2713337  17.5122890  57.1303787  19.1455097  16.3116131
   6.3560786  30.0652733  81.4532547   6.9139867  30.5080490  80.8137894
   6.8091650  30.1825027  82.2882385  63.1649857  64.7073517  52.5977669
  62.6591911  64.1135635  53.1525803  63.7892265  64.1395493  52.1459351
  25.5052681  10.9931936  85.3381729  25.5127201  10.0726624  85.6004639
  24.9102268  11.0239716  84.5890350  70.4820633  23.2314262  50.0062370
  70.7548370  24.0232201  50.4697990  70.1704712  23.5460529  49.1576195
  80.9825745  41.9317970  81.4062424  81.7335358  42.1706657  81.9495926
  81.1400833  42.3741646  80.5721359  75.2661209  34.4834442  44.7603493
  75.2061920  34.2673759  45.6909142  76.0814667  34.0736618  44.4713402
  44.7834282  49.3219032  72.9787369  44.0025215  49.8211327  72.7396088
  45.4381180  49.5750160  72.3279343  18.6069546  52.0392227  13.9591732
  17.7274437  52.3910828  14.0965958  19.1115608  52.7800903  13.6234398
  81.7911530  45.3359833  65.6638641  82.0223770  46.0094109  65.0241241
  82.1682587  44.5303116  65.3104248  19.9862156  49.2734947  73.0137405
  19.8427658  49.9680061  72.3708496  20.9254074  49.0945740  72.9674911
  32.7397423  49.5560226  83.8461990  33.1443520  50.0983047  84.5232925
  33.3496819  48.8281631  83.7260590  50.9673805  48.0538292  87.2386322
  50.1409760  48.2521362  87.6790466  50.7533188  47.3401489  86.6377411
  73.6825943  70.0135345  46.3604698  74.4234619  69.6881485  45.8491211
  72.9104538  69.7205200  45.8765602  48.7231979  23.1776161  68.1536484
  49.5768585  23.2344494  67.7243881  48.4763985  22.2561378  68.0749207
  77.3358765  26.1930809  29.1770935  77.1918259  26.8661938  29.8422260
  77.5841522  26.6813068  28.3920956  41.5930405  52.8632812  59.3049660
  42.2662010  52.5959396  59.9307556  40.7782745  52.8444138  59.8069916
  58.3889999  24.7449856   9.3731518  59.2263412  25.0413227   9.7299109
  58.1160431  24.0382767   9.9582062  86.4701614  24.8406181  53.6898994
  87.3848114  24.5885563  53.5629616  86.2892990  25.4529953  52.9767990
  35.8568115  44.7314758   7.1121659  36.1258774  43.9648628   6.6060629
  36.6641464  45.2296219   7.2398119  21.0741787  26.2392139  20.7663307
  21.0733624  25.5981407  21.4771442  21.2444534  25.7230129  19.9784393
   6.0844808  67.7060852   2.9223056   6.4761720  66.8838348   2.6278205
   6.7619319  68.3638458   2.7653234  30.2531242  39.3845215  70.3220367
  30.5788097  40.2791405  70.4210968  31.0424366  38.8435478  70.2981949
  74.4259872   5.6571164  39.2774773  74.9228821   5.7489090  38.4645195
  74.6281509   4.7728701  39.5832062   8.7161560  45.8318214  43.8562737
   8.7401047  46.7707939  43.6719017   8.3541059  45.7704659  44.7402344
  19.6925583  42.1883736  55.2533379  20.5913811  42.4932404  55.1292229
  19.7111416  41.2708321  54.9813004  77.8437119  20.9785614  63.5183525
  78.1164322  21.8052483  63.1203003  78.5155945  20.3511448  63.2516022
  28.1896133  42.5913353  29.9794655  27.5344276  43.0615921  29.4638863
  28.1850605  41.7039795  29.6205654  56.7902412  56.8411980  31.6304607
  56.3994102  57.5921249  32.0772247  57.2759666  56.3813286  32.3151665
  84.1992950  41.5643082  28.9746265  84.4412460  42.4704285  29.1660328
  83.4403687  41.3959656  29.5331249  83.3672791  64.7092819  41.5224571
  82.9203415  65.3166656  40.9329071  82.9638367  64.8640060  42.3765793
   7.6555185  37.4331703  11.8749628   7.0069556  36.7936935  12.1693573
   7.4079776  37.6264725  10.9707565  48.8477974  39.1530762  88.3807068
  49.2239571  38.2789955  88.4842377  48.6697884  39.4446716  89.2748642
  14.5667343  58.5414658  79.4158173  15.1420746  57.7949677  79.5830154
  14.4114714  58.9224930  80.2800751  57.7009506  45.5888290  37.6314735
  57.7438545  45.1792068  36.7674141  56.8989944  46.1109505  37.6094627
  16.7580395  46.6499176  54.1801796  16.7126236  45.8417587  54.6911087
  15.9431429  46.6620064  53.6781540   2.5252228  20.2318707  84.4392853
   2.3617578  19.7563496  85.2537689   2.0202420  19.7569828  83.7792053
  17.5692463  32.5136948  24.1236248  17.7159557  33.3110847  24.6324272
  17.4597740  31.8267536  24.7811642  34.5308228  35.1611900  14.1542463
  35.2412949  35.1989174  14.7945900  34.4237366  34.2280121  13.9700155
  77.0701370  59.1292152  65.4009018  77.2257156  58.9078941  64.4827271
  77.8777542  58.8766365  65.8483276  81.2112045  61.3006706   8.9203033
  80.4051132  61.0853844   9.3894510  81.8328094  60.6242828   9.1892767
  71.9751511  36.8258514   5.9545097  72.7396393  37.3864899   5.8223076
  71.2261963  37.4081154   5.8269534  34.9182091  49.1107674  55.4894981
  34.5010071  48.6930847  54.7360268  35.2399902  48.3817101  56.0197487
  52.9530678  69.4715424  34.9850388  53.1840515  68.8738174  35.6960907
  53.4018478  70.2883224  35.2034378  13.5179796  65.4593582  63.1410294
  13.1709480  64.6138229  63.4254036  14.3460312  65.5492783  63.6127014
  16.5494022  11.0464220  66.0780411  16.6717300  11.9438114  65.7682648
  15.7251854  10.7659798  65.6802292  57.0142479  55.4632111  66.2973557
  56.1581497  55.0352821  66.3115311  56.8266678  56.3807793  66.4951248
  79.1157837  62.9069023  81.8560638  79.3794174  63.2906799  81.0197372
  79.8868332  62.9993820  82.4156799  48.4292946   6.8671737  13.5817823
  49.1192932   6.2162437  13.4536352  48.8637085   7.5910540  14.0329084
  78.6706619  51.1558685  72.3612137  79.2920532  50.4397163  72.4924622
  77.8286896  50.7208176  72.2268982  71.2384186  32.0367470  78.2249451
  71.4364014  32.6662750  78.9182892  70.8855896  31.2757225  78.6860123
  63.0405083  55.4424095  73.2353821  63.5471916  56.1144409  73.6913147
  62.1334457  55.7411919  73.3001633   8.9986057   0.2064746  29.8454800
   8.2064152   0.1913251  29.3084164   8.8616667   0.9326597  30.4538651
  81.7424088  47.8372688  20.1919746  80.8589401  47.7957344  20.5580139
  81.9453506  48.7722130  20.1615562  70.0244598  33.1431465  24.5106850
  70.1169739  33.9764214  24.9725513  70.0850525  32.4801064  25.1983910
  81.9910583  42.0150604  58.1275177  82.1596527  41.1044159  57.8855820
  82.3984985  42.1136322  58.9880447  30.2619724  68.5511246  32.4951591
  30.2112274  67.6042023  32.6255188  29.3624039  68.8147888  32.3015404
  77.0770950  34.4041061   3.4926319  77.5188751  34.1451492   2.6839263
  76.6155777  35.2113571   3.2655141  13.5535135  27.8132973  23.7697506
  13.0468731  27.7567234  24.5799026  14.4644718  27.7257938  24.0503368
  79.4619675   6.0829949  18.6333427  80.0766220   6.5029325  19.2350693
  80.0015945   5.4802146  18.1217861  58.8355293  30.2824554  57.4288483
  59.6349754  29.8684483  57.1037102  58.9903183  31.2207432  57.3198166
  65.1623230   2.9987876  30.6299706  65.8790588   2.4034944  30.4105530
  64.9571915   3.4406362  29.8060036  28.3024769  36.3971214   5.6229558
  28.2884789  36.7385101   4.7288132  27.9909019  35.4958496   5.5401263
  12.5179415  70.5404587  30.7501698  12.1537247  70.9770584  31.5202103
  13.4242706  70.3478165  30.9903488  32.4665527  57.9822083  62.6901665
  32.9270096  57.5628891  61.9632683  32.2498741  58.8557854  62.3643761
  31.9070377  71.0631104  86.3363800  32.2972755  70.7635651  85.5152664
  32.6552162  71.2403412  86.9065094  84.7378693  33.3895149  39.4581451
  84.5978317  32.9982071  38.5958824  85.6890106  33.3990021  39.5652466
  15.3733482  60.4030991  77.7378769  15.4484110  59.7377586  78.4219208
  14.8260508  61.0854912  78.1265182  25.0125809  53.3500366  34.9987335
  24.7379990  53.9740257  34.3268127  24.7766113  52.4939766  34.6413689
  41.2723007  54.7110405  81.1243973  41.5964737  55.5623512  81.4183655
  41.7794228  54.0746002  81.6283875  71.6276016  14.9314194  83.1996231
  70.7925339  14.7147980  83.6143036  72.0764160  15.4842196  83.8393173
  63.5571251  28.2803955  36.3321304  62.7539177  28.2805214  35.8114662
  63.8255196  27.3619633  36.3581924   0.3254275  68.7166061  72.7510452
   0.1885754  68.0541611  73.4282913  -0.4483198  69.2775497  72.8048553
  55.6504898  61.3653412  37.1675377  56.3043251  60.7072067  37.4033165
  54.8416367  61.0563011  37.5755653  29.3719330  62.6409073  68.0143814
  28.8347321  63.0542641  68.6902390  30.1736641  63.1633949  67.9928589
   3.5697324  57.9152756  79.0745316   4.2238884  57.2285042  79.2035751
   2.9700952  57.5551567  78.4210892   5.0999937   1.8085799  32.6581917
   5.0687685   2.5115414  33.3071175   4.1820569   1.6312786  32.4527969
   5.4044528  36.1688576  27.4314938   6.0649877  35.9480934  26.7748432
   4.8472395  35.3921509  27.4812431  33.1536293  -0.2101117  44.8166351
  33.4715271   0.5534722  44.3348541  32.6584015   0.1576376  45.5485764
  44.1269569  70.4165268   3.6275623  44.9787560  70.1373520   3.2918038
  44.0268898  71.3140411   3.3102410  47.3314743  50.9530563  68.2033844
  48.2287216  50.6688576  68.0290070  46.7891769  50.2099876  67.9388275
   8.7509441  31.4083576  57.7218971   8.5241385  31.4570999  56.7932320
   8.3996468  30.5659714  58.0103531  31.7275295  44.6644440  64.0786438
  31.3156815  44.8334198  64.9260330  32.3721848  45.3653336  63.9816513
  47.4973297  58.9095345  87.6952591  46.8021240  58.3309669  88.0085983
  47.5962029  59.5623283  88.3883057  21.1805401  58.1604729  50.3362350
  21.8773823  58.7209396  49.9948845  20.3976936  58.7108002  50.3133202
  56.8685188  40.9484558  47.1465416  56.6988716  41.7088089  46.5903778
  57.7215729  40.6252136  46.8566360  43.1272163  47.3118324  51.2573242
  43.1138039  46.7327003  50.4953156  42.2081070  47.3944321  51.5115852
  60.6037598  13.8324337  78.2410202  61.3942795  13.3011532  78.1458893
  60.3128777  13.9919100  77.3431396  71.5545959  69.0577927   4.3809381
  72.0338211  68.5970154   3.6922703  72.2194519  69.5853729   4.8234963
  15.7527332  67.0076218   7.2365699  15.4058380  67.8192978   7.6067991
  15.3572855  66.9529800   6.3665886  83.7742844  67.8249969  50.6690788
  84.3206100  67.3431702  51.2900467  83.9221649  68.7458878  50.8843193
  39.7770844   0.1418145   0.1060696  40.5387192   0.7007759   0.2600437
  39.4334373  -0.0409806   0.9805549  52.5902176   0.7168454  28.2044792
  52.7325592   1.5851969  28.5812244  52.0846519   0.2477254  28.8682251
   4.5964217  65.1292343  21.5166798   4.2231531  65.0476685  20.6390400
   3.8989735  65.5273666  22.0375328  20.3283730  38.8470917  82.5958557
  19.5805511  38.8596573  83.1932144  20.8559284  38.1037941  82.8881378
  17.9847107  50.0483971  86.4794235  17.2585640  50.3555641  85.9366608
  18.4056473  50.8492737  86.7919006   2.6589847  11.2187452  76.8755646
   2.4451022  11.9944849  76.3571854   2.9110563  10.5601711  76.2282867
   5.1728649  32.9706764  51.5045929   5.6383295  33.7379494  51.8375664
   5.3149552  32.2970657  52.1696434  63.0811539  46.9248543  59.9177017
  62.2116013  47.3040466  60.0454483  62.9924011  46.0179749  60.2108345
  11.4832468  21.8050632  88.6573944  11.2466955  22.7183933  88.8189545
  11.7700911  21.4775486  89.5098572  52.6751175  54.7589493  14.8271990
  53.2180901  53.9993935  15.0381184  51.8219223  54.3882484  14.6016674
  41.3215828  50.0179863  45.3659248  42.0561066  49.4052658  45.3301964
  41.6425362  50.7458725  45.8982811  66.1542053  27.2548809  43.6750145
  66.9532700  27.4847603  43.2007942  66.0148621  27.9853153  44.2777405
  67.9111099  60.6059723   5.0869141  67.5939255  60.9779091   5.9098878
  68.0668564  61.3652344   4.5252228  78.7829132  53.9081802  40.3632736
  78.9718933  54.1579666  41.2677765  77.9617462  53.4192047  40.4164162
   2.1117949  65.7987823  14.5032625   2.0212004  66.7140884  14.2382288
   3.0567555  65.6605301  14.5678158  64.3475189  27.5117970  29.1253662
  64.8070526  26.9066124  29.7074432  63.8148804  26.9473152  28.5651131
  33.1371841  35.2441635  11.2913885  32.6160851  34.7719994  11.9408102
  33.5395164  35.9607391  11.7821865  50.6379395  53.4859047  83.5289383
  49.9733009  53.2318192  84.1691895  51.2650108  52.7627296  83.5348206
  34.2732811  54.2561188  33.4858055  33.5810547  54.5532646  34.0763664
  33.8115005  53.7787857  32.7964973  82.8898392  46.6348076  54.9437790
  82.8378067  46.4295807  54.0102882  82.2126846  46.0912819  55.3466148
  41.7491684  60.6570129  60.4615822  40.9393539  60.4929047  59.9783630
  41.4780350  60.6907463  61.3789597  51.0146637  47.1395798  46.6767464
  50.7828484  46.2984390  47.0704117  51.4028740  47.6407890  47.3939018
   5.2337203  39.1240959  79.4640274   5.8339400  39.2748413  80.1942596
   5.5643854  38.3311501  79.0419693  41.6607437  60.0228462  64.6731339
  40.8025475  59.8870888  64.2715149  42.0182457  59.1411362  64.7780838
  72.9328308  32.3902397  67.0908966  72.8365479  33.2626762  66.7090378
  73.3547211  32.5440178  67.9362335  59.1808243  19.9212055  32.0546494
  59.4255524  19.4133339  31.2810822  59.3677788  19.3399200  32.7917976
  62.1904564  35.4223175  66.4005356  62.6383820  35.2869720  67.2355652
  61.6992188  36.2349358  66.5212097  53.2073517  64.0502701  52.8503036
  52.5584030  63.4886017  53.2741280  53.3409996  64.7696838  53.4674034
  42.3652077  65.4591064  28.1631527  42.3646431  64.5887833  28.5616245
  42.0665245  65.3118439  27.2657471  85.9558258  63.9326630  30.7138348
  86.0995941  63.1116142  31.1844101  85.4740448  63.6767464  29.9273109
  30.6556721  46.2913094  23.3997192  30.5281181  45.8708839  24.2501316
  31.5086098  46.7200165  23.4700069  66.5939102  38.9976425  86.9880981
  66.5467453  38.7666740  86.0603790  67.3896103  39.5243187  87.0636368
  71.4293671  23.4071827  78.4957962  70.7347946  23.4326363  79.1539383
  72.0457611  22.7521782  78.8233032  65.5345688  45.5522766  24.0961609
  66.2827072  45.8421249  23.5741425  65.6790543  44.6144066  24.2216702
   6.2613258  54.0587769  13.9115000   5.9958506  54.8638573  14.3560228
   6.8580608  53.6315041  14.5259724   7.7186661  45.3391647  62.4273338
   8.4158278  45.5706635  61.8136520   6.9094110  45.4966049  61.9409676
  27.9927464  31.9936523   2.8799977  28.6357212  31.9644928   2.1715024
  27.1889248  32.3017044   2.4614217  83.3239594  36.2028656  66.2738266
  84.0577850  35.7814407  65.8264618  83.6720200  37.0465355  66.5624695
  80.7218170  28.7433128  11.2665043  81.1150665  28.3282948  10.4988155
  81.1778183  28.3507576  12.0109472  72.1093063  46.2529259  37.8627205
  72.1979980  45.4872551  37.2951698  71.3395157  46.0651207  38.3997345
   5.4464073  58.3688545  17.4493408   6.3423457  58.3863831  17.7858219
   4.9392371  57.9431992  18.1405926  48.5981483  44.7962227  37.2099342
  47.8247719  44.8810692  37.7675362  48.8279648  45.6966591  36.9805145
  11.4573364  50.1089325  41.5877457  11.8461370  50.8196220  41.0778542
  11.6462631  50.3361893  42.4981804  80.3967743  29.8469429  37.7031059
  80.8400345  29.1691132  37.1929054  80.9486389  30.6224308  37.6016350
  11.7089672  60.3959198  72.4232330  11.5919590  61.0234299  73.1365128
  10.8184452  60.1644974  72.1593246  44.1690025   3.2065809  72.6687851
  43.4075241   2.7239296  72.9903946  43.8094864   3.8249760  72.0327301
  37.2038155  60.0045891  19.5232372  36.5422363  59.3271599  19.3831406
  36.9424744  60.7185173  18.9416542  42.7077026  58.9579582  47.9520111
  41.9442329  59.4132080  47.5969124  43.4367371  59.5597496  47.8017120
   1.5004243  17.2102947  52.8087692   2.2985444  17.3733826  52.3061371
   0.7965411  17.5543022  52.2588234  58.3726768  44.0682297  65.2205582
  58.4870872  43.1431236  65.4380875  59.1978378  44.3206902  64.8062973
  40.3896637   2.7159109  83.8392181  40.2873726   1.8177873  83.5243530
  39.5591316   2.9140918  84.2718582  28.8322926  17.7870770  75.0716629
  28.6906185  16.8618889  75.2721329  28.5197659  17.8879185  74.1725616
  64.3100891  31.2060928  68.4902420  64.6669922  30.8426476  69.3006439
  64.2921906  32.1514626  68.6391983  55.2104607  45.6286049  46.3054199
  55.0344276  46.4134941  46.8242607  54.9308128  45.8593903  45.4195480
  74.1489716  56.6845055  12.3428097  74.0766449  55.7919807  12.0045776
  75.0888824  56.8656044  12.3417673   0.7772510  13.3661194  42.4052811
   1.1163859  12.5112104  42.1400452   1.5561476  13.9149590  42.4965363
  82.0726700  26.0146542  82.5936127  81.8815994  25.5501671  83.4084549
  83.0262299  26.0973930  82.5830231   9.7984514  25.9351025  77.4222565
   9.0693998  25.4584694  77.8191605  10.0063047  25.4388885  76.6305466
  73.7665329  37.9100876  89.0485687  74.6847610  38.1776695  89.0098953
  73.4021759  38.1818733  88.2061844  85.7382431  48.9824448  14.7688484
  86.2610626  48.3577843  14.2661638  86.2116165  49.8104935  14.6882792
  35.3150253  57.9801979  43.8982849  35.6609039  58.7351151  44.3744164
  34.3756027  57.9913139  44.0815735  56.4562035  52.9964523  86.0202637
  56.7612839  52.3723221  85.3617630  57.0864372  52.9164314  86.7362518
  58.7639275   4.6672826  47.8764076  57.9273109   4.2292113  47.7202072
  58.5633469   5.3426318  48.5244064  17.6754112  54.3585548  48.1642265
  18.0669975  53.8020401  48.8374176  18.3745327  54.9640312  47.9175339
  16.7015648  25.5914955  58.8764954  16.5491467  26.3906670  58.3721886
  15.8290138  25.3148403  59.1564026  23.4717560  26.3841896  84.2639923
  24.3142529  26.8301487  84.1771088  23.1042900  26.7233429  85.0801926
  33.7327385   2.7118421  79.4808121  33.9308929   1.8343953  79.8080063
  34.2159653   2.7750485  78.6569672  81.0346222  65.5194855  74.1376495
  81.3495178  65.9757538  74.9179611  80.8032455  66.2199249  73.5276566
  31.7248917  66.7940979  76.4837723  31.0041370  67.4124374  76.6037903
  31.7820377  66.3280334  77.3178940  31.2762680  67.5745010  87.3449326
  30.6353378  67.2352524  86.7201538  31.9217987  68.0284119  86.8031921
  57.7309761  10.4422159  26.5622044  57.7144508  10.9339523  25.7411346
  57.1555672   9.6936636  26.4046993  58.6689796   6.1314325  39.0104027
  58.9061737   6.0179057  38.0900307  59.4266319   6.5668478  39.4010468
  85.7095413  22.8622169  19.2897053  85.9790192  22.0862446  19.7811127
  86.3993530  22.9841137  18.6373730  52.6045685  11.2445993  25.4982605
  52.5326157  11.0769596  26.4379158  51.6992302  11.3364305  25.2013378
  44.8884468  48.1909714  16.9437084  45.0894012  48.2174644  17.8792019
  44.2509804  47.4823761  16.8556423  49.1327019  22.0684261   1.6387849
  48.9553261  21.2531662   2.1079557  49.3449173  22.6993256   2.3266535
  10.8867636  13.8351698  14.3910522  10.2840023  14.5737076  14.4774876
  10.4415731  13.1100798  14.8295517  85.2965393   8.9006577  18.9993744
  85.9810181   9.4311466  19.4071808  85.0464478   9.3924665  18.2171917
  62.9477882  58.9728813  67.2576904  63.6389236  59.4113884  66.7614288
  62.2286224  58.8769493  66.6333237  73.0462799  69.7877350  16.7388554
  72.1310349  70.0146942  16.9033203  73.3902206  70.5274506  16.2381039
  62.4161797  51.4987373  71.4812622  62.7336235  51.8316765  70.6418533
  61.5042572  51.7865486  71.5236740  29.8393269  18.7173004   3.9940071
  29.0795116  19.1569958   3.6124582  30.0183659  17.9890785   3.3991370
  79.6279144  37.6156120  19.4936790  80.5287857  37.5860252  19.1715260
  79.0956497  37.3596611  18.7404079  72.4863129  29.0962105  20.1388893
  73.3311157  29.0350113  20.5847511  72.1106873  28.2191792  20.2160397
  85.9894028   0.8408716  35.8797112  86.5405731   0.2867665  35.3270721
  86.5569458   1.0925236  36.6082726  52.3263969  30.3179798  25.3265877
  51.4757576  30.2679329  24.8905334  52.3248329  29.5829639  25.9397602
  10.8516426  54.7201729  10.3274736  10.1104851  54.2441368   9.9528990
  10.4522505  55.4442635  10.8095636  36.8187141  31.8950100   3.3877089
  36.7121582  30.9843140   3.6625011  36.6118393  31.8889637   2.4531512
  85.0746994  53.9939308   2.6760583  84.7298050  53.5472031   3.4491813
  85.9461212  53.6181221   2.5511105  67.8834991  26.5570545  20.9711018
  67.6228790  25.8897324  21.6059170  67.6384811  26.1887817  20.1222363
  47.2874832  54.0918655  46.2790489  47.0560074  53.3005981  46.7654076
  46.9639626  53.9313774  45.3925896  66.4608612  36.9415588  44.1564178
  67.3100815  36.5467033  43.9585838  66.0215836  36.2985458  44.7130127
  20.0686741  45.0123291  71.0635986  20.6921673  44.5583687  71.6305313
  19.5612106  45.5639076  71.6589813  79.0732346  42.4604759  56.7992516
  78.8727417  41.9651604  56.0050888  78.2320786  42.8273201  57.0714874
  75.6887741  46.3912964  41.3187599  75.6680222  45.4487495  41.1532059
  75.5715256  46.4708405  42.2654152  60.6141701  44.8327599  63.6065407
  60.1331711  44.7801208  62.7806435  61.1623878  44.0481453  63.6148567
  68.2169266  61.7522163  42.8830147  68.8248901  62.2771606  42.3623848
  68.7601166  61.0598297  43.2595444  31.8543434  30.8340740   7.9853172
  32.0334625  31.5459633   8.5996151  31.2831249  31.2258396   7.3246641
  71.2885666  10.5628939  29.0014305  70.7846985  10.0117064  29.6002140
  72.1973724  10.2941828  29.1359520  49.6693268  17.2089195  45.3966866
  49.8736877  18.0869255  45.0748596  49.1077423  17.3573818  46.1574860
  69.3755417  35.8972244  24.7688427  69.1970825  36.8030243  24.5160294
  68.7244186  35.3827019  24.2918358  72.2214432  26.1330452  20.0231342
  72.0702286  25.5715733  20.7834759  73.1687546  26.1044827  19.8889141
   0.7036908  58.8055382  68.5809555  -0.1794311  59.0030594  68.2690048
   0.5869569  58.5807724  69.5040436  76.7544937  33.7588387  78.3680115
  76.0453186  33.1193161  78.3023529  76.9894714  33.9499817  77.4599991
  45.4447937  70.5947876  40.6474342  44.7500420  70.0040894  40.3565292
  46.2315483  70.2750473  40.2058258  77.1338196  15.9642448  51.4803238
  77.9393387  16.2337799  51.0390587  77.0969849  16.5098686  52.2659225
  10.7595215  12.7885361  18.9488907  10.5976591  13.6904993  18.6723156
  10.1699705  12.6562033  19.6912861   2.0279019  50.7182045  80.2457657
   1.1954610  51.1660423  80.0950470   1.8136632  49.7873230  80.1841812
  80.1942596  36.5734138  77.6769333  79.8728714  36.9802628  76.8723145
  80.6211472  37.2864456  78.1518936  19.9360809  40.5949516  85.1540298
  19.6390190  41.3058205  84.5859985  19.2001991  39.9832497  85.1769562
  57.4416733  58.9423180   6.2207928  57.7199516  58.6971321   7.1032190
  56.5256615  58.6685638   6.1737928  71.0175858  43.7497559  29.7932167
  70.7359238  43.1207314  29.1289711  71.0169373  43.2514725  30.6104965
  64.0506134  55.9619598  24.2229652  64.9109192  56.1786423  23.8635712
  63.4512215  56.5729790  23.7944660  19.3843765  31.1758270  74.9191055
  19.4244766  31.1398182  73.9634247  18.4516411  31.1060200  75.1224899
  62.1384583   8.5547867  14.0776749  62.8025932   8.2869263  14.7128181
  62.4952278   9.3481312  13.6782379  26.0680885  66.3822632  70.9280701
  26.0034657  65.4414368  71.0920486  25.4211426  66.5509949  70.2430725
  85.6548843  60.2219925  23.6093884  86.4107437  60.6209869  24.0403271
  84.8980713  60.5796471  24.0736732  56.8178177   4.1771259  27.1480274
  57.7151070   3.8778505  27.0012684  56.3929024   4.0874972  26.2950058
  68.2099228  69.2013855  60.3814011  69.0703888  69.0419769  60.7692299
  68.3067703  68.9367828  59.4666138  50.1724243   0.4025615  42.9929199
  50.2889214   0.8263255  42.1425781  50.7395554  -0.3676737  42.9563828
  43.6252747  61.6962318  18.3464928  44.3179131  62.1716919  18.8052139
  42.8123245  62.0555038  18.7018318  76.5762558  33.5498772  21.9791203
  75.7747421  33.0324974  21.9008923  76.8318481  33.4582558  22.8970051
  17.5238342  70.8147430  45.0185661  18.3380032  71.1864014  44.6791115
  17.2364807  70.2059021  44.3381424   2.6704173  68.4649811  62.4866028
   2.5929368  68.7563858  63.3950691   3.1437385  69.1718826  62.0478630
  81.5238037  20.5923080  70.7812500  82.0220413  20.9329090  71.5242081
  82.1891937  20.3536873  70.1358490   2.1164346  41.5047379  43.2880440
   2.9511855  41.0688629  43.1164780   2.2800443  42.4250946  43.0821266
   1.9760963  23.0792751  80.6202850   2.7897925  22.6681690  80.9120483
   2.2411306  23.6491547  79.8983307  28.6917439  40.2994270  22.8876553
  28.7948437  39.3478127  22.8929329  28.8868198  40.5564804  21.9864883
  85.1953888  23.4722385  79.9217606  85.7076492  24.1404438  79.4664307
  85.1195526  23.7983379  80.8185043  67.2753983  70.2467651  83.1367798
  66.7777100  69.4298477  83.1711502  67.6390533  70.2686157  82.2516174
  29.9161015  36.8907280  89.2522202  30.2605934  37.5942230  88.7020798
  30.6354160  36.2624283  89.3159332  74.8986130  26.9144726  73.8951950
  75.0749130  25.9736500  73.8935165  75.7411423  27.3156548  74.1083374
   4.0339298  17.8555737  74.0260849   3.2693460  18.4187641  73.9058380
   4.7348289  18.2977657  73.5470886  14.3962116  65.1294708  24.6339111
  13.8034658  65.8808289  24.6523609  14.7774734  65.1466751  23.7560863
  65.9219971  45.1724815   3.6903524  65.7394409  45.7919502   2.9838352
  66.5774918  45.6126900   4.2314429  35.7719078  56.9750671  17.1782188
  35.8390045  57.1166267  18.1225128  36.5301476  56.4319534  16.9629745
  56.4189262   1.0635544  37.5918846  56.3505707   0.1879492  37.9725075
  56.2327690   1.6564122  38.3199615  40.7069511  63.2875328   8.8564978
  40.1662178  64.0600128   8.6918421  40.1249504  62.5469894   8.6858902
  63.4188118  50.5976143  58.5348778  64.1656799  50.5068817  59.1266441
  63.6524811  50.0694313  57.7715607  25.5808697  48.7199783  66.1481323
  25.1580830  47.8778992  66.3166046  26.3483486  48.5011635  65.6196136
  56.8569336  67.0530396  35.7184067  56.4415474  67.4776688  36.4689941
  56.4496269  67.4632568  34.9554825  57.8242645   2.9670324   6.8357153
  57.4570312   3.1977189   7.6890354  58.2175789   3.7793007   6.5167241
  75.6423264   8.1171589  85.5643387  74.9225311   7.4936290  85.6609421
  75.6906357   8.5603085  86.4114075  81.7252197  12.7772198  26.1342030
  81.3543777  13.6181135  25.8666096  81.4668579  12.6823826  27.0509834
  33.1163521  -0.1783204  56.5913734  32.9422569   0.6110056  57.1040993
  34.0674629  -0.2807731  56.6249008  62.2592812  46.6147194  76.9703674
  63.1983795  46.6775131  77.1446686  62.1868095  46.6888542  76.0187988
  17.9547939   5.7389979  20.3486271  17.8699226   5.6443858  19.3999043
  17.0921745   5.5044537  20.6908379  85.0404968  23.4317951  30.2212963
  84.2295151  23.4899654  30.7264214  85.7198181  23.2720795  30.8764706
  69.3314438  59.5758057  84.4938736  70.2654190  59.3662300  84.4922714
  69.1924896  60.0441704  85.3170166  65.3191147  26.1129475  66.6232605
  65.9247360  25.9852905  65.8930893  64.5062256  25.6973209  66.3356705
  19.7179184  69.7607498  77.0824127  19.4550800  69.8139877  76.1635513
  19.8815403  70.6686478  77.3377228  19.8326263  69.1600266  56.1174774
  19.6905689  69.0291290  57.0549812  20.5726223  68.5910339  55.9056129
  10.9805937  37.9505043  86.6601715  11.6500912  37.5944595  87.2443237
  10.6387835  38.7142792  87.1249771  58.4264984  30.9710960  60.7285042
  58.1281090  31.5250130  61.4498711  59.0370369  31.5228386  60.2395706
  65.5612030   6.3450279  13.8020363  65.7726059   6.9980574  14.4691916
  66.2347412   6.4606481  13.1318045  81.7850189  59.0312729  68.4492035
  81.7139053  58.2791710  69.0370102  81.9314957  59.7770386  69.0311050
  81.7636871  19.6369820  88.9844208  82.0565262  19.1408005  88.2200394
  82.2324982  19.2426586  89.7199173  55.2657623   3.0795486  39.1392975
  56.1481133   2.9677329  39.4931107  55.0609856   4.0017929  39.2934570
  72.6343307  11.5314713  58.2421417  72.2215881  11.0166779  57.5486984
  73.3190231  12.0294456  57.7955399  30.3048573  50.2842255  88.0372849
  29.3883934  50.3542404  87.7700272  30.2666874  50.0428543  88.9627609
  10.6517096  60.8736153  19.1538696  11.2970886  61.3055000  18.5942326
  11.1600790  60.5424614  19.8942261  63.9524612  70.7323761  52.2694778
  63.2307129  70.5134506  51.6800842  64.5126877  71.3145294  51.7561836
  68.0874939  52.9338379  81.9374313  68.1312637  53.7373390  82.4558029
  67.1771622  52.8864975  81.6454010  13.9527912  65.4816055  69.1575699
  13.3142614  66.0655212  69.5668945  13.6887684  64.6048050  69.4364014
  51.5478821  61.5517426  50.3131943  51.8385429  60.6981812  49.9919815
  51.1813087  61.9854813  49.5426559  77.9363708  28.8755779  11.6109676
  78.8835602  28.7630539  11.6909323  77.8249130  29.7899952  11.3508720
   6.6989741  18.3612347  84.5826187   5.8215137  18.0882816  84.8505554
   6.5769949  19.2396107  84.2223282  86.4134598  68.7460938  83.9633102
  85.7085037  68.4995422  83.3645706  86.4937134  68.0008392  84.5586090
  17.4873791  23.0463219  17.9518929  17.1201572  22.1665039  18.0373440
  18.3841248  22.9032154  17.6492348  23.7724438  40.6342888  39.2831306
  24.4691353  41.0904846  38.8111763  23.1757202  41.3295860  39.5601044
  42.2191734  58.1403198  33.9339218  43.1004601  58.4082451  34.1942711
  42.1498070  57.2308121  34.2241249  29.9532452   4.1836524  71.5831223
  30.6953716   4.7856870  71.6382141  29.7141953   4.0141325  72.4943619
  53.4539909  60.9876137  22.6747513  53.2234917  60.8175926  23.5880928
  53.0305939  61.8218422  22.4721794  33.5858879  57.4802589  87.4540710
  34.2673454  58.1013374  87.7111816  33.7895737  56.6843147  87.9452057
  36.1746597  57.6497040   4.7440948  37.0055656  57.3684883   5.1271677
  35.5157013  57.1059418   5.1757507  24.5580425  24.7491550  20.5849590
  24.6361656  25.3514977  19.8451538  23.6350422  24.7946510  20.8344250
  62.8682632  59.2701530  56.6288109  62.1092911  59.3998909  56.0601578
  63.4689140  58.7365112  56.1085434  57.4123573  56.8765526  36.6818085
  56.7687607  56.2862167  36.2899933  57.7872429  56.3754730  37.4061089
  51.1952095  35.8905487  36.7851448  50.6244812  36.1396294  37.5120964
  51.7211456  36.6719894  36.6149292  84.0988007  27.8435974  44.0436707
  84.8173141  27.2127571  43.9987869  84.3504486  28.5370331  43.4337082
  51.8757248  68.0092163  18.5673256  51.9341049  68.2320786  19.4963875
  52.3858147  67.2037888  18.4817085  23.9242725  13.0695400  73.4311676
  23.8943672  14.0162506  73.5692825  24.7573776  12.7975330  73.8161087
  77.0144196  53.9901390  10.4824133  76.0980072  54.1502533  10.2570629
  77.3231583  53.3811607   9.8115530  76.5049591  68.6974106  85.2259140
  75.7276154  69.0919342  84.8305435  76.3145905  68.6811676  86.1638565
  68.6913376  43.3854980  84.3691483  69.1973343  42.5784264  84.2751770
  68.6623764  43.5414925  85.3131104  58.0537758  54.4341507  45.0873756
  58.9059868  54.8695984  45.0686417  58.0962563  53.7939606  44.3770370
  71.1647568  27.6099052  15.5595999  71.1408310  27.9667740  14.6717339
  71.7416229  28.2031746  16.0407295  72.7928162  23.9654179  35.5682831
  72.2367554  24.5894737  36.0347443  73.6525116  24.0569935  35.9790955
  51.4242058  58.8442116  49.5906029  51.6577911  58.3887138  50.3994255
  51.0791702  58.1574516  49.0200424  43.1407166  46.3347702  57.8758850
  43.1942940  45.3819618  57.9501648  42.4798355  46.5884514  58.5201797
  80.7874756   7.0404067  65.3105011  80.2130890   7.6438661  65.7818298
  80.2254791   6.2974672  65.0904236  73.7996902  24.2743530  81.2505493
  74.0367279  23.6639748  80.5523529  74.2418747  25.0901947  81.0158081
   1.2371290  45.3747711  55.9999809   1.9146117  45.9069481  55.5828056
   0.4571533  45.5163536  55.4634895  59.9952316  54.2942772  11.0773792
  60.7154770  53.9106407  11.5776806  60.4047470  54.9899826  10.5630617
  65.0798264  26.7940063  20.0807419  64.2325363  27.0233707  20.4624767
  64.9258652  25.9579792  19.6407566  63.5049438  20.0976429  35.5686493
  63.4971199  19.7856121  36.4735298  63.8719292  19.3694534  35.0673599
  61.3791199  45.7385139   0.2697664  61.0846367  46.5866852   0.6016122
  60.9085770  45.6280975  -0.5564470  32.4047203  12.7721596   5.0363379
  32.7494125  11.8966656   5.2122040  32.8722878  13.0606604   4.2525148
  44.4819260  53.2699966   5.6380339  45.4086876  53.4947968   5.7205348
  44.0217476  53.9873734   6.0737357  14.1135349  56.9170952  12.2980862
  14.6664553  56.4190598  12.9001398  13.8731098  56.2881203  11.6177816
  33.6170235  59.3707390   7.0193233  33.3628883  58.5635605   7.4666653
  33.3234177  60.0705185   7.6027021   1.6332622  62.9910583   1.2381277
   1.4223468  63.2803116   2.1258664   2.5883410  63.0353470   1.1923586
  41.5100670  18.7296143   1.4360223  40.9204674  19.4358273   1.1717025
  41.4275017  18.6927052   2.3889401  70.0862503  29.1212025  66.0564423
  69.3316422  29.7100067  66.0666199  69.7910385  28.3452549  66.5328751
  56.6473427  60.9043617  49.9526863  56.4397964  61.4773865  49.2145805
  55.8830833  60.9655991  50.5257339  27.7706146  33.6412277  84.8079758
  27.1003056  33.8136177  85.4691849  27.3375702  33.8249626  83.9743347
  74.6571350  58.4004974   2.2245286  74.6990356  59.2315407   1.7514082
  74.2969131  58.6304092   3.0810409  65.7531509  29.8029938  32.2978821
  65.9234848  30.2746086  33.1132355  64.9280396  29.3438129  32.4546738
  67.2728424  31.4181595  19.3174152  68.0027466  31.2920208  18.7111435
  67.1398544  30.5574360  19.7145290  72.4775238  25.0030975   0.4603910
  71.9943161  24.5588112  -0.2362802  72.4358826  25.9304619   0.2269538
  83.4162216  19.2254486  57.7729874  84.0011215  19.9116497  57.4516563
  84.0024567  18.5208797  58.0489388  67.4077301   1.1756511  54.2225113
  66.6048508   0.9737993  53.7420273  67.6494217   2.0534372  53.9270325
  53.9074249  10.2078991  70.9708710  53.0703697   9.8624239  70.6606827
  54.5609055   9.7951965  70.4061890  56.9493675  11.3142519  21.0087833
  56.4969864  12.0696812  20.6334000  56.2502785  10.7780647  21.3829632
  55.7572098  37.6146622  41.7335358  56.3078880  38.2041473  41.2182770
  56.2164803  36.7751999  41.7089272  68.7959900  65.8256531  74.4767151
  68.6427002  65.4840088  73.5957947  68.0254517  65.5550613  74.9759979
  62.7481346  30.6803989  52.1893196  63.2228928  30.6228199  53.0184898
  62.5612564  31.6133213  52.0846100  43.0309792  42.9968185  60.8815804
  42.4015999  42.3917923  60.4890862  43.1037025  42.7096329  61.7917824
  77.5900192  47.7961388  12.5984821  76.9490891  48.3650093  12.1720638
  78.0597382  48.3735008  13.2003527  76.9427261  40.3262329  30.8130569
  76.6006546  40.6163940  31.6586494  77.5428619  41.0224037  30.5458202
  78.5682831  28.2786026  87.0021362  77.9377594  28.8430424  87.4494400
  79.0855942  28.8772488  86.4633942   2.1928625  35.7226181  39.1512413
   1.9951956  35.8739243  38.2269783   2.5569818  36.5532341  39.4573898
  51.3246460  70.2912674  71.4887772  51.7568359  69.4830399  71.2127075
  51.5171700  70.9165344  70.7900620   4.8562346  34.4308968  55.7050438
   4.4525647  34.0423584  56.4811363   5.6730146  33.9449577  55.5911903
   3.4083230  30.0921745   4.8084927   3.2589602  30.9897385   4.5113411
   4.2894602  30.1070766   5.1821332  79.9771881  37.0189323  84.3844223
  80.7082596  37.6216240  84.5205307  79.2462006  37.5824928  84.1308670
   2.6080477  70.9680939   2.9936063   3.2882371  70.4059982   2.6226251
   2.1698534  70.4174576   3.6424642  28.1391678  63.9641037  52.4582939
  27.2716827  63.6264000  52.2354546  28.1647625  63.9459610  53.4149780
  67.9590225  31.5562019  80.7429352  68.2160645  32.2490921  81.3512573
  67.6755295  32.0214615  79.9559097  65.6700821  38.0845375   4.1447258
  65.7088165  38.7556572   3.4633093  65.1097260  37.4014130   3.7765176
  83.1451111  43.4387779  12.2717495  82.4618378  43.3176613  11.6124344
  83.7087860  42.6710510  12.1763535  58.8354149  24.7258797  72.8727722
  58.6918335  25.6176720  72.5560303  59.2751274  24.8388958  73.7154465
  10.7668629  58.0698395  22.9352360  11.4428358  58.7427902  23.0154228
  10.8390121  57.7644424  22.0309353  60.8284264  17.5179577  87.7050323
  60.7097397  16.6197205  87.3963089  60.0849686  17.6709900  88.2882004
  54.6166916  69.8327255  74.9963760  55.0391731  70.1615982  75.7898407
  55.1312332  70.2038879  74.2796326  60.8454590  58.2142868  41.4274025
  60.7909317  57.9378128  40.5126228  61.3456650  57.5208817  41.8577728
  16.2540226  49.8155861  84.2447052  15.5694695  49.7022133  83.5853424
  16.2635384  48.9875946  84.7248917  76.4068909  61.5817566  71.0972366
  75.7752457  61.8733330  70.4397888  77.1174774  61.1899681  70.5894928
  47.5877228  25.5201588  19.5957108  46.7175407  25.1452446  19.7315540
  47.6011314  26.3010521  20.1491146  67.3930435  46.2288017  86.7004318
  67.5980377  46.7468987  87.4787521  66.5607681  46.5841522  86.3885422
  11.3603382  41.0549240  68.1426010  11.6389380  41.4039307  68.9892426
  10.4789047  40.7170334  68.3011475  66.5743256  49.1875229  50.9962997
  66.9727478  49.6977348  50.2911911  66.0105133  49.8110657  51.4540558
  83.9047012  20.5046902  60.6797714  83.4185181  21.0007000  60.0211105
  84.5070267  19.9600067  60.1730614  15.5094204  28.4158573  68.4113083
  14.7596712  27.9222851  68.0789032  15.3649063  29.3094501  68.1001205
  57.6339760  21.7880955  11.7230701  57.5877686  21.0889568  12.3752222
  57.9521217  21.3557358  10.9305553   8.2151461  66.5596008   6.2888980
   8.5270052  67.0226059   5.5113354   8.7546148  66.8997879   7.0026751
  41.5184860   3.9072001  10.9977942  42.3247337   3.8394079  11.5092592
  41.6986122   3.4103060  10.1997452  23.7815304   0.1383506  36.6577415
  24.3780861   0.2799559  37.3927956  24.1369400   0.6799600  35.9530602
  45.0917358  60.9201660  15.9312840  44.8460312  61.3722954  15.1241655
  44.4866982  61.2606430  16.5902481  47.0272331  37.4578857  67.5419083
  47.6807671  38.1464043  67.4191360  47.5112610  36.7374458  67.9455338
  30.7559605  41.2732353  75.8708267  31.2791462  41.9146042  76.3516083
  30.6598778  40.5392494  76.4776764   7.1194420  61.3271523  29.7504959
   7.0353546  61.1319618  30.6838036   7.8727450  61.9151688  29.6956997
   1.1128380  53.3964615  36.2014999   0.2627702  53.6217384  36.5794754
   1.6987070  54.0932388  36.4972801  82.6730728  49.3293381  36.8499641
  83.1412888  49.3561363  37.6844025  81.8725586  49.8296661  37.0083313
  25.1026764  59.6638336  51.5624809  24.9927940  60.2907295  52.2774315
  25.7796211  60.0503273  51.0069618  83.7219238  59.1734772  15.4615526
  84.3524933  59.8665352  15.6571999  84.1187210  58.3801231  15.8212252
  64.4757004  27.5007801  87.8355865  65.1210556  27.7608337  88.4929504
  64.8750839  27.7412987  86.9995956  45.9792709  26.9235096  85.6850128
  45.7878990  26.1773109  85.1168671  45.9025497  27.6865559  85.1122055
  74.6014481  46.5928307  85.9756775  74.6354218  45.8110161  86.5269012
  74.7024918  46.2613640  85.0834045  28.9895382  36.5743790   2.6562145
  28.1478958  37.0256271   2.5910735  29.2944317  36.5043983   1.7515738
  69.3488159  18.8909092  40.7747345  69.0934372  18.2491741  41.4374466
  70.0978394  19.3466702  41.1587677  82.1850357  10.9665012   3.0290678
  82.8206024  11.4913263   2.5424058  82.2157822  10.1055584   2.6118596
  25.1698837   1.3109132  83.8720474  25.4330120   1.9847901  83.2452393
  25.4418869   0.4875137  83.4667587  26.1657906  58.3619156   8.1416044
  25.5925198  58.1242027   8.8703613  25.5670738  58.5930061   7.4314170
   8.8657036  57.6367416  26.3708153   8.5552292  56.8381653  26.7975578
   8.2821112  57.7498055  25.6205711  31.2724743  33.4779892  22.2582531
  31.2549038  33.0234985  21.4160156  30.9112396  32.8455009  22.8792992
  51.5809021  19.9710350  84.9389343  51.6816330  20.6085052  85.6458359
  52.4259148  19.9764690  84.4893112  69.8880463  12.7818642  39.1998749
  69.3265839  12.8494196  38.4275818  69.7198105  13.5869932  39.6894646
  20.4280376  40.4110680  68.3612137  21.1027431  40.8920937  67.8820267
  20.6944427  39.4941254  68.2942963  29.1247311  16.5100384  71.1249542
  28.2884426  16.5745373  70.6637726  29.3848591  15.5945950  71.0223389
  49.6556206  50.0114861  61.2808151  49.0414619  49.6923790  61.9420357
  49.8706017  49.2375183  60.7602501  14.3247461  27.2038727  79.8357468
  13.9521255  26.7328529  79.0904083  13.7123909  27.0400867  80.5529785
  39.0847511  60.5912437  75.5501862  39.0931740  59.6475105  75.3904190
  39.6093178  60.7046776  76.3427734   9.9953909  31.9661560  67.2695160
  10.3499641  31.9735451  66.3804398  10.4993362  31.2902431  67.7227402
  41.9741936  24.1481247  73.2142105  42.8468781  24.3436623  73.5554047
  41.5519753  25.0032425  73.1321259  53.4004936  50.4407654  81.1872940
  53.1556091  51.1796570  81.7443390  54.1284828  50.7694283  80.6598053
  48.4415817   3.4736969  36.6020622  48.0027695   4.2472606  36.9560051
  48.3477287   2.8109946  37.2863503  75.0460815  49.0035095  25.1712246
  75.2817841  49.7626381  25.7045174  74.1362076  48.8198242  25.4049435
  58.4628792  54.4931068  58.6508102  59.2303772  55.0650063  58.6610870
  58.6807747  53.7888374  59.2613487  51.3367996   0.0398580  80.3220673
  51.9847641   0.5899820  80.7622223  50.5025978   0.2857928  80.7218781
   1.4877104  33.8154106  74.3581238   0.5598764  33.9788551  74.1888885
   1.7281712  33.1310654  73.7335663  11.4678783  34.4880028   9.4056110
  11.6675968  34.1212044  10.2668915  11.9213181  33.9128304   8.7893286
  78.9655991  34.2445259  56.9682007  79.4343033  34.9794769  56.5727310
  79.4503021  34.0558662  57.7717590  61.9653320  23.3041821  38.2120438
  61.6717644  23.7204990  37.4016533  61.3676147  22.5662918  38.3323975
  27.6202564  52.2143631  71.8083496  26.9977703  51.5778313  71.4568253
  28.3841591  52.1436119  71.2359161  76.4802475  43.0339661  57.3239288
  75.7478867  42.9853439  57.9383507  76.0703354  43.2026405  56.4755440
  22.9031944  49.9965515  38.7656212  22.7258587  50.5067024  37.9753494
  23.8566132  50.0088730  38.8497353  44.5272675  65.2546234  54.9971390
  44.9711037  65.6753540  55.7335014  45.2228050  64.7893600  54.5323982
  69.1098099  55.3347778  70.7445145  68.8811493  56.1212463  71.2399063
  68.2861862  54.8534584  70.6656952  59.7479324  15.4612589  50.2184448
  60.2446938  15.0033531  50.8965149  59.6470375  14.8160982  49.5185738
  32.3447304  58.9585152  21.1734409  32.4145279  58.1554337  20.6572800
  32.7065086  58.7258339  22.0285492  85.4435959   3.4066987  53.2461090
  86.3885727   3.3478892  53.1053963  85.2981110   2.9652400  54.0828743
  38.7856598  18.8635025  13.3604031  38.2213631  18.3507843  12.7816763
  39.6355591  18.8721943  12.9201441  63.4813881  55.9617310   4.1163931
  62.9268036  56.0263367   4.8938847  63.1927452  56.6819038   3.5557926
  28.4971504   1.7370468   4.8794975  27.7450886   1.1566397   4.9968114
  28.7097702   2.0352931   5.7638469  29.6362228  50.0341225  60.0476189
  29.4497414  50.2434464  59.1323929  29.7022057  50.8858185  60.4794655
  62.1375923  54.6896172  83.0277252  62.5540123  54.8813972  82.1874542
  61.2030525  54.6412926  82.8264008  66.7237778  49.6705437  42.2425117
  65.9657288  50.2068863  42.4747543  66.3645706  48.7935028  42.1083450
  68.0832520  36.7517738  13.1836033  67.3114166  37.2878647  13.3655739
  67.8216858  36.1969872  12.4487362   9.5359306  69.0725784  20.3165054
   8.6784468  68.9033203  19.9262428   9.5576897  70.0208817  20.4448624
  64.7487793  15.6491690  63.2688828  64.4236908  15.5486774  64.1635590
  65.1544266  16.5160904  63.2574005   0.8811778  70.9251556  30.0167885
   0.6095214  71.2168121  30.8870602   0.1414793  71.1426926  29.4495525
   3.6064847  18.1087818   3.5400460   4.1009789  17.9962559   4.3518620
   2.6949000  17.9622860   3.7926006   4.9340072  13.3126135  51.9158134
   3.9881294  13.3513699  52.0573959   5.0342398  12.8207312  51.1008072
  45.0307236  64.2738571  68.4543915  44.2528877  64.0375977  67.9490356
  45.7371559  64.2989731  67.8089828  15.1542816  12.6317635  22.0581741
  15.2178154  12.9846354  22.9456844  16.0611439  12.4649334  21.8012676
  65.2070541  33.1862183  85.6842117  65.8847198  32.5782394  85.3886414
  64.4308319  32.9435081  85.1794281  37.1268387  22.4565964   1.1453760
  36.1769371  22.5702610   1.1770195  37.4758224  23.2354221   1.5788167
  54.8608208   8.0093193  51.1050301  55.0589790   8.1438379  52.0317802
  55.6269569   7.5504980  50.7604294   9.0665627   6.6261520  77.1055069
   9.1456566   7.5521016  77.3348389   9.6903315   6.5024695  76.3900681
  42.4199905  57.2719383  23.5308647  42.4245758  57.7026138  22.6760368
  42.4781761  56.3381004  23.3288898   4.2269917  20.8952198  74.6071854
   4.0407825  20.5674038  75.4870148   4.1373162  21.8452969  74.6816254
  85.3469849  10.6003265   3.5205038  86.1214981  11.1521311   3.4115233
  84.8574753  10.7109480   2.7054121  60.4860649   8.3802185  86.2111206
  60.7057037   8.6161900  85.3098373  60.1202126   7.4981399  86.1453934
  85.5435333  29.3176537  39.6112366  85.5839615  29.4927807  38.6710625
  86.3406372  28.8212814  39.7969017  60.4065933  48.3675270  13.4829817
  60.0774345  47.6664696  14.0454855  59.9650154  48.2295151  12.6450109
  51.9650726  21.0692997  54.9678497  52.0508995  20.2841511  54.4271049
  52.4419594  21.7451668  54.4861717  39.2259941  66.0145645  71.7703018
  38.8998337  66.2172394  70.8935089  40.1693268  66.1676331  71.7162476
   5.4366212  17.5441666  33.6788139   4.7974944  18.1797905  33.3567390
   6.2424092  18.0491199  33.7881699  39.7854233  14.9390020  85.2788391
  40.5645180  14.3833876  85.2557297  39.1924477  14.5468006  84.6379089
  41.7342987  53.3095055  50.9477196  41.0280075  52.9611588  50.4036255
  42.3389549  52.5751610  51.0543251  49.1157112  61.5581131  66.4813232
  49.2156181  62.3941078  66.9366837  48.6024551  61.7699127  65.7016144
  79.0288925  16.3465080  34.8470955  79.5243912  16.8468781  34.1987572
  79.6809692  16.0848999  35.4971619  22.5268517  61.4559708  61.5264435
  23.1989403  60.7862320  61.6528625  21.7135201  60.9622917  61.4215355
   3.3169520   7.3808618  58.3883667   3.3501740   7.6571193  57.4724998
   2.5827799   6.7679038  58.4271660  36.7751503  28.1801434  88.4438400
  36.9512367  27.2691460  88.6790237  37.2941628  28.3280354  87.6532822
   7.0004959  26.8576126  76.6143646   7.2918086  27.2209911  77.4506226
   7.7843308  26.8626060  76.0649948  67.5211258  51.9159012  26.8757782
  67.4858093  52.4742546  26.0991020  66.6309586  51.5760651  26.9671268
  43.8315277   9.3312969  16.4204578  44.6912155   8.9665651  16.6305504
  44.0078735   9.9867620  15.7455502  24.0134373  68.2573395  75.9027786
  23.9536514  67.7416153  76.7069473  23.5757160  69.0819702  76.1139984
  69.6837006  64.8816528  58.1006927  70.2243652  64.9448929  57.3133469
  70.0691223  64.1607285  58.5986366  46.9723587  43.2966995  42.1784630
  46.0564041  43.0200996  42.1510544  46.9341393  44.2530861  42.1686440
  79.1938553  49.1319275  69.2882309  78.5554199  48.4315948  69.1534424
  79.5135345  49.3369637  68.4095917  49.2890663  13.2870598  86.6202011
  48.4762039  13.2264996  87.1220169  49.3620605  14.2141476  86.3934555
  43.5187073  70.2818909  64.5573578  43.9755135  70.8098907  65.2121658
  43.8059158  69.3852463  64.7298737  32.4475555  53.8679047  20.6452713
  33.1295433  53.2005424  20.7210999  32.6880455  54.3686295  19.8657379
  28.4870644  23.1109924   7.6785941  28.9484596  23.7782402   8.1866560
  28.7399216  23.2831688   6.7715931  58.8618507  17.1804390  27.2453766
  58.2231178  16.5122013  26.9969559  59.5685997  17.0853462  26.6068687
  46.9007263  64.4656296  51.8824043  46.2413330  65.1279755  51.6756859
  47.5088768  64.9094315  52.4735298  62.8400726   1.2520922  72.2724380
  62.6613083   0.3123284  72.2389908  63.6408272   1.3252448  72.7917328
  51.5898438  59.1961136  33.0434647  52.0591965  60.0194283  33.1779747
  51.4683723  59.1417656  32.0955620  48.5059586  44.5866356  77.2544403
  49.4068642  44.8990555  77.1708450  48.2725830  44.7693291  78.1645966
  66.1625214   4.3898468  65.4873123  65.3015823   3.9732528  65.5254745
  66.3535461   4.6285014  66.3943863  57.3233376   4.6548667  31.8242970
  57.1341629   3.7175272  31.7813969  57.0819702   4.9073777  32.7154808
  26.2511024  57.8312874  41.0394096  25.6966839  58.4710884  41.4860725
  27.0909996  58.2771835  40.9299545  18.5524845  66.1082077  82.4554138
  17.6344490  66.3791733  82.4507141  18.7012844  65.7816544  83.3427963
  76.1530457  31.5470409  30.8659573  76.3760986  31.5907974  31.7957764
  75.2653351  31.1893787  30.8491726  64.5473175  25.8543453  36.0168953
  64.8317947  25.7526779  35.1086197  64.3823624  24.9607277  36.3176727
  21.9537106  46.8348274  77.1958847  21.2714500  46.7348671  76.5319824
  22.2191143  45.9388695  77.4033661  27.3312912  26.2010689  14.4266396
  27.3866558  25.3170185  14.7894335  26.4856529  26.2236290  13.9787312
  49.5196190   2.9075475  75.1298904  49.2535286   2.0817065  75.5341339
  49.9552841   2.6474783  74.3182297  70.7223663  64.3045502   8.2067327
  69.9289780  64.2836838   8.7418375  71.2688446  63.6031570   8.5611925
  71.2703781  54.4769096   8.7371445  70.6695786  54.5449295   9.4791956
  70.9414291  55.1144142   8.1034174  13.4461479  39.7338142  19.9494534
  13.1664581  40.5579987  19.5510483  14.1834707  39.9765854  20.5094986
  74.9649582   5.2623029  27.9051590  75.8749771   5.4120507  27.6488895
  74.6581802   4.5778694  27.3104572  31.5716610  19.1140537  20.5728436
  31.4848499  18.6032658  21.3776989  31.2333126  19.9799042  20.8010006
  80.6129761  22.1184883  36.4932556  79.8993988  22.4596996  35.9541740
  80.8269882  22.8360977  37.0894661  43.0158081  22.8839817  19.2362614
  42.2265816  22.8571815  18.6953011  43.2858162  21.9687386  19.3114834
  68.9111633  43.1408768  47.7639885  68.9358978  42.2222672  48.0319061
  69.0710297  43.6301308  48.5710258  41.7159691  47.4915352  18.8969784
  42.2508240  47.3073235  18.1248188  40.9696121  46.8973541  18.8186569
  71.4968185   4.6637979  27.5187073  71.2206039   4.8479676  26.6209221
  71.9045944   5.4773464  27.8155003  25.8509560  29.5395508   4.1585951
  25.6915493  30.1446743   4.8829198  25.0319843  29.5380440   3.6630995
   9.4503288  30.3549595  70.4563446  10.1358814  30.9094048  70.8289566
   8.7626734  30.3442974  71.1221085  60.2221184  29.9250469  45.9021530
  60.4863091  29.0951786  46.2993355  59.3816833  29.7343712  45.4855690
  44.5944939   3.4843020  22.3096294  45.3583794   3.6136084  21.7474957
  44.3373756   2.5746961  22.1588364  63.2778168  61.7529564   8.7126045
  62.8953247  62.4101715   9.2939835  63.7792168  62.2604599   8.0744295
  64.6788712  59.4873543  43.7453804  65.1020966  59.5821724  44.5986786
  64.1308975  60.2677193  43.6617813  67.5480347   5.5324249   5.9112959
  68.3171310   6.0823803   5.7620525  67.3164978   5.2036314   5.0426669
  14.5997591  45.7343674  79.0473251  15.0814056  46.0701561  79.8032990
  13.9327965  45.1603241  79.4239731  22.3471909  57.1048164  87.8948135
  22.8348560  57.0391388  87.0737762  21.6807079  57.7705269  87.7249222
  39.6913185  53.6342392  49.0511398  39.1712151  53.0915146  48.4585419
  39.4401054  54.5324516  48.8358803  16.6872139  35.7072144  14.8540630
  15.9677868  35.2219505  15.2580147  16.4091034  35.8372612  13.9474344
  20.5547523  22.0972748  82.2379227  20.3602314  22.1804352  83.1714554
  20.0921440  22.8296661  81.8307037  79.2038727  55.1832275  42.7665863
  79.4549332  54.4938202  43.3813362  79.1660767  55.9773560  43.2996559
  22.0427876  58.9282761  13.1845236  22.2969093  59.8457832  13.2836857
  21.4226799  58.9289627  12.4553461  76.0502701   2.4441984   3.9315653
  76.3625870   2.9677320   3.1935930  75.4964600   3.0429330   4.4326057
  83.8049927   2.4063141  62.9453316  82.9122849   2.6303883  63.2081833
  84.2379608   2.1521153  63.7602844  21.6952667  65.8597794  34.1450691
  21.6448288  64.9062042  34.0789223  20.9668732  66.1758118  33.6104660
  27.8559608  68.2686539  83.5380630  27.0919075  68.7180405  83.8993225
  27.5355282  67.8601303  82.7339096   3.4636767  59.4626350  62.7551804
   3.1550379  60.3670807  62.7008591   4.0393553  59.4515228  63.5198364
  13.1392412  48.9985504  86.8164597  13.0453606  49.6795273  86.1503601
  13.1863976  49.4776459  87.6437912  17.2208920   0.5507154  83.2924347
  16.8542366   0.1641030  82.4972458  16.7165031   1.3537099  83.4229126
  51.1739578  55.7177925  11.2907887  51.7716637  56.4627075  11.3546638
  50.3611298  56.0279961  11.6899338  55.4293480  63.1871872  59.2006798
  56.3580818  62.9659920  59.2696838  55.1815987  62.9084129  58.3191261
  85.8749924  39.7015686  55.2721901  85.4379578  39.0807266  54.6892738
  85.5937576  40.5617027  54.9602509  16.6580658  60.9416466  57.4983597
  15.8950844  60.4181671  57.7434311  16.4320717  61.8331642  57.7636108
   2.6950550   3.5327423  42.9059372   3.5722096   3.3451443  42.5718117
   2.1466639   2.8372366  42.5429306  61.7637558  13.8143749  81.0894012
  62.1915932  14.1076479  81.8938751  62.4392090  13.3195210  80.6255951
  25.2930698  66.7206650  33.8343544  25.7705364  65.9500427  33.5271111
  24.7713413  66.9955215  33.0803757  79.3969498   7.1587334  14.2991562
  78.7342606   7.4776354  13.6864767  79.6890106   6.3275819  13.9248314
  43.0509033  62.5435486  50.7242432  42.7496758  63.1088028  50.0129204
  42.7809029  62.9981651  51.5221481  67.8231430  37.5065536  29.7252197
  68.5606766  37.0174217  29.3604870  67.4261856  37.9400444  28.9697475
  40.4524345  63.8257637  74.7631607  39.5665474  63.4779472  74.6608887
  40.3362923  64.6337204  75.2631073  81.6757889   2.8764169  55.3406830
  81.5148163   2.3943284  56.1517982  81.5288773   2.2336059  54.6468239
  82.4624481  60.5830460   2.6757364  81.9655914  60.8291550   3.4559901
  81.9173203  60.8716087   1.9437559  82.8098068  46.8133202  63.5352097
  83.7603760  46.9217491  63.5052834  82.5552292  46.6788406  62.6223373
  67.9771881  53.5763245  49.3827171  67.4304810  53.0186348  49.9361839
  67.3555222  54.1406364  48.9230309  73.6778336   0.8537278  71.0615997
  74.0515594   1.7317669  71.1364670  74.0547180   0.3695587  71.7962875
  21.0952511   2.6646433  51.0200005  21.1166897   3.5071576  51.4738083
  20.3617001   2.7399254  50.4096985   0.1767931  62.3788834  35.5501785
   0.7023413  62.1106796  36.3039017  -0.6438832  61.8956833  35.6462975
   3.3533082  50.0500946  66.0253296   4.0054379  50.3323135  65.3839951
   2.5129194  50.1832733  65.5868759  42.7435036  12.4366589  17.3734150
  42.2703514  11.7028790  16.9810810  43.5637093  12.4828873  16.8821354
   0.8615274  18.5840816  23.2760849  -0.0231568  18.2649784  23.4542389
   0.8554852  19.4906902  23.5831013  75.3601303  20.9163418  40.6835747
  76.0834351  20.8860683  41.3097916  74.9084320  21.7373486  40.8788872
  25.1576195  51.4543762  87.4353714  24.3474674  51.7848625  87.8235321
  24.8686180  50.9262428  86.6912079  75.8849182  16.7845097  43.8841248
  74.9542694  16.7436981  44.1042671  76.2146072  15.9060850  44.0736084
  16.1520634  48.2692909  67.1909790  16.5368080  48.7256775  67.9392548
  16.6407261  47.4481888  67.1341476   3.8206332  25.7513828   0.4533564
   3.6079116  26.3379097   1.1792829   4.7236366  25.9713764   0.2244029
  70.5334091  65.8996887  35.9031410  71.2136917  65.2435226  36.0544357
  69.9133453  65.7717667  36.6210518  12.9475574  16.8647270   0.6984509
  13.3154211  15.9814091   0.7240791  13.1674843  17.1905403  -0.1743093
  46.0564613  27.0906963  27.9207344  46.6819687  27.0301170  27.1987228
  45.4878616  26.3287411  27.8095951  71.4893036  40.4143753  70.0566788
  72.2466125  40.0177231  70.4872360  70.7997208  39.7544861  70.1291809
  73.1791534  36.9882736  37.7386322  72.3307724  36.6017609  37.5216293
  73.7264786  36.8093529  36.9740028  32.8148308  32.5679207  31.2223415
  33.0560150  33.2932739  31.7984676  33.1990128  32.7963982  30.3759174
  22.1306667  56.4946899  42.8123436  22.8289623  56.5074692  42.1577797
  22.3572178  57.2003937  43.4180565  74.3633194  66.6848831  83.8709183
  74.7675323  66.2197342  84.6033707  74.2582779  66.0179825  83.1923676
  75.0032578  36.3714905  41.1567574  75.0714111  36.7530556  40.2815475
  74.0844498  36.4886093  41.3982239   8.4069786  65.3788681  63.5982132
   8.8271408  66.1666183  63.9433746   8.7135477  65.3208160  62.6932945
  56.5719452  41.0700684   8.9465075  57.2747421  41.5003242   8.4594851
  56.9346199  40.2176590   9.1875439  13.0753508  62.9771233  69.6396713
  12.2344255  62.6883812  69.2851257  12.9002800  63.1437073  70.5658646
  49.7348404  19.0740681  13.4978895  50.2862358  18.8628845  14.2512798
  48.8718109  19.2474861  13.8738356   3.7776451  52.9912720  84.6775589
   3.5910828  52.2121162  84.1537781   2.9781616  53.1369171  85.1833725
  41.4243011  61.9578819  34.7482414  40.9961166  61.2239494  34.3075180
  42.1873093  61.5685768  35.1754341  70.1619873  58.9726486  13.7809353
  69.8909988  58.8387794  12.8727093  70.9293518  58.4104385  13.8872681
  54.7095070  46.9527969   3.4367104  54.5153961  47.8318138   3.1113057
  55.1687622  46.5257034   2.7135887  10.4213390  53.3877182  14.0280132
  10.0271702  53.9822426  14.6662951   9.6959591  52.8365936  13.7342186
  31.1050186  50.6399994  21.9391804  31.6640587  50.0690880  21.4121456
  31.6392403  50.8602142  22.7022953  13.3271790  41.9412689  63.5129356
  13.3406343  41.3043365  64.2273331  12.7765274  41.5373116  62.8422394
  61.0906525  29.0771198  81.9001007  60.6198578  28.4618435  82.4622574
  61.0453415  28.6868954  81.0272293  15.7572975  14.6492786   4.4800234
  15.2609396  14.5281210   3.6705906  16.6731701  14.6481466   4.2018003
  78.7741623   8.5148783  62.4489250  78.0582428   9.1015959  62.2050781
  78.3633118   7.8549123  63.0073891  73.7988892  21.1443596  63.8610916
  73.3012238  20.8086014  64.6066284  74.4825592  21.6868191  64.2542419
  54.5754852  43.5412827   4.2428155  53.6776199  43.8511810   4.1243663
  54.4837456  42.6068649   4.4290376  18.8626919  27.6547832  21.8739357
  18.6332226  28.0495605  21.0326710  19.5836811  27.0590382  21.6702290
  85.0305634  18.5734215  75.7143250  84.9505386  18.6617336  74.7645721
  84.4011383  19.2023220  76.0672302  53.3323822  63.4169388  60.8917160
  54.0761375  63.3147125  60.2979050  52.9032898  62.5613136  60.8876495
  32.3313980  28.0498886  10.8451471  32.9070930  27.6378613  10.2009087
  32.4023933  27.4931335  11.6205282  63.0361862   9.8651152  60.5109138
  62.1702995   9.5006609  60.6943398  63.0825157  10.6551180  61.0494156
  46.4954910  38.2992706  27.7336483  46.1424789  38.9235802  28.3675690
  47.3869286  38.1278267  28.0372562  71.8828354   4.1136823  69.2762756
  72.1604538   5.0270438  69.2060547  71.3045731   3.9806912  68.5251694
  61.1605072  46.2333527   7.7275305  61.0207100  46.2320251   8.6744652
  60.9601059  47.1294174   7.4570909  43.0588188  46.8165398  29.6851521
  42.5564842  46.5316315  30.4485111  43.9410133  46.4785614  29.8392143
  15.4916191   7.5025253  78.0830994  15.6008520   7.3999906  77.1376953
  15.0585594   8.3502197  78.1836243  83.5869522  41.7415276  55.2300949
  82.6872177  41.4722595  55.0451469  83.7656937  41.3952103  56.1043625
  36.3941536  20.9917259  78.0257645  36.6842117  20.5836544  77.2099304
  37.1452370  20.9118919  78.6137543  51.2087364   8.0152340  80.8990631
  51.4671860   7.5122256  80.1267853  51.5293503   8.9005032  80.7266235
  80.7374420  40.6782684  47.0405617  80.2431107  41.3601952  47.4953651
  81.1172638  41.1228409  46.2827225  18.1145630  64.2667236  17.4092426
  18.6681499  63.8555756  16.7453671  17.4721260  63.5941467  17.6354065
  68.9718475  33.6371727  46.9710236  68.4162674  33.3258362  46.2564392
  68.9934235  34.5877762  46.8609123  35.6878090  59.7567101  23.5644474
  36.1598282  59.7349701  22.7320080  35.5745583  58.8358078  23.7996941
  57.3058205  22.3279095  35.8857727  57.4655266  22.7927971  35.0644302
  56.6786804  21.6425686  35.6550484  83.2655869   2.6923888  77.4257126
  82.4383774   2.5277717  77.8783264  83.0080414   3.0819259  76.5901566
  11.2949934  67.5930786  39.7104492  10.5307932  67.1654892  39.3239250
  11.8366070  66.8717499  40.0307159   9.2623520  64.0856247  31.0569458
  10.0455112  64.1339951  31.6051750   9.4870825  63.4543304  30.3734283
  72.5334854  70.0577927  80.1078415  72.3052902  70.7783051  80.6952286
  73.2938004  69.6458282  80.5182419  73.1535797  51.2326317  85.4589615
  73.0288239  51.7314796  86.2663116  73.8562012  50.6159706  85.6645889
  19.8063831  63.1454391  14.2681293  20.3039856  63.0349541  15.0783253
  19.3144169  62.3295212  14.1760473  66.8275299  56.0250053  54.0788841
  67.1303329  56.0588074  54.9862976  67.6283722  56.0760384  53.5570869
   2.9100082  45.8372459  64.0315704   2.7219849  46.0686417  63.1219902
   2.4032598  46.4640694  64.5478363  19.3552856  51.5220718  70.9148865
  19.4826145  51.3989296  69.9742203  19.9260368  52.2568817  71.1396713
  70.9008789  45.4653854  51.7432480  71.7242432  44.9781151  51.7727203
  70.2334900  44.8227005  51.9836197  80.9436340  59.8642731  12.3943071
  80.7495728  59.4765816  13.2476940  81.7604065  60.3446922  12.5296440
   8.5423794  52.1070633  23.7245960   9.3039427  51.5343628  23.6336670
   7.8340392  51.6349373  23.2868919  49.0001106  61.6151199  47.4033203
  49.5395012  62.1554298  47.9806900  48.6528664  60.9287262  47.9729805
  32.9970284  50.4077797  88.7986298  32.6765976  50.9935112  89.4845428
  32.5273209  50.6818504  88.0109177  82.6043472   0.2492855  25.1697617
  82.2155151  -0.4363904  24.6267204  81.9091110   0.4942898  25.7803822
  13.1288443  69.9788589  22.1053391  12.8945932  69.0906601  21.8361568
  13.4085016  70.4082489  21.2968540  44.5098228  65.7106628  51.6820297
  44.0988541  64.9186935  52.0286255  43.9914742  65.9303360  50.9078903
  40.5750885  46.6807785  42.9827118  41.3490791  47.2089844  43.1780815
  40.8141670  45.7952194  43.2563171  33.2143898  33.9464874  67.5212021
  32.7935066  33.0920639  67.6163330  32.5220909  34.5190506  67.1908569
  57.0531502  14.7698298  11.5588932  57.4949455  14.0160828  11.1678534
  57.6427536  15.5054808  11.3933096  25.2131023  47.7377663  41.5113182
  25.3650112  47.9314537  40.5863075  25.9899750  48.0750237  41.9573631
  37.6980209  25.8678036  13.8247614  38.2528191  25.1356907  13.5556116
  38.1389008  26.6429424  13.4768896  74.0450592  13.4319448  12.2702789
  74.0537415  13.3282852  13.2218103  74.8135147  13.9703465  12.0809841
  72.2779694   9.3233995  49.4480095  72.2456360   9.8831797  48.6722298
  71.3819046   9.3284960  49.7845573  19.1651096  34.5007172  70.4789734
  18.5572739  34.8606033  71.1249237  18.6014729  34.1426620  69.7931595
  74.2804184  32.7094841   2.3064518  75.0009308  32.4596443   1.7279390
  74.1727219  33.6496620   2.1625774  62.3211136  53.8409271  85.6647034
  63.1586876  54.1521645  86.0079651  62.3567581  54.0402069  84.7291565
  65.5199127  44.0657463  31.2637596  65.6915817  43.5334625  30.4869480
  66.3709793  44.4409561  31.4898739  72.9369888  43.7558365  44.9113083
  72.7400742  43.4915466  44.0126381  72.0922623  44.0245743  45.2724838
  66.3212128  13.2140169  79.9727631  66.7293625  12.3540249  80.0730743
  66.6584549  13.7263632  80.7076111   8.6410170  53.8722649   9.0571423
   8.0443029  54.6206932   9.0617590   8.0755892  53.1142197   9.2050953
  80.8268280  15.9570589  68.2635498  81.0827332  15.6476116  69.1324539
  79.9606781  15.5760670  68.1191101  57.9702187  64.2005997  20.6628189
  58.1855469  65.0762558  20.9838905  58.1884727  63.6182976  21.3905029
  21.2801762  17.5060196  48.0246429  21.6356850  18.1311264  47.3929100
  21.9994450  16.8961735  48.1888733  11.8862543  21.3871880   9.2574682
  11.3309650  22.1667633   9.2697134  11.6998453  20.9735641   8.4146175
  27.6190681  15.0863600   9.5208120  27.8971348  15.2799864  10.4160328
  28.2387905  14.4238052   9.2155285  11.4796562  55.0294151  48.6457138
  12.2338238  55.4970093  49.0046234  11.7596159  54.7587509  47.7713013
  18.6717148  64.8574982  55.0584793  18.8923893  64.5832596  54.1683502
  17.7420883  65.0816956  55.0164986   3.6181064  15.7048273   9.5057926
   4.3861685  15.7298222  10.0764828   3.9626079  15.4433470   8.6518726
   8.5865479   8.7980442  30.0058632   8.4227915   9.2028017  30.8576756
   8.2504215   7.9063272  30.0958195  64.3564606  56.0647354  44.4960289
  64.6334534  56.6758690  45.1786880  64.1844101  55.2466927  44.9623299
  70.3193970  37.7056160  73.6046982  70.2505188  36.7519073  73.6486053
  70.8832321  37.9392357  74.3420868  86.0957031  39.4515266  73.9941483
  86.4086533  39.8722725  74.7949371  86.0550079  38.5205498  74.2129059
  10.9771299   3.9620783  26.9100857  10.1949053   4.3596654  26.5276184
  11.4597530   4.6976953  27.2871456  53.0484047  47.5791702  73.1401062
  52.5550613  47.8161507  73.9253998  53.5660706  46.8181648  73.4030228
  22.7914295  26.1869984  26.0297871  22.2877541  26.2301979  26.8426075
  23.6672859  26.4856186  26.2745972   9.4219561   7.1612749  81.1230087
   8.6645021   7.6677675  80.8298187   9.0525665   6.4847083  81.6904907
  25.0027485  55.3422775  32.9383583  25.9142609  55.1500359  32.7183151
  25.0541553  56.0720367  33.5556412   3.1096969  44.0270386  52.4377785
   3.0394909  44.8959732  52.0424881   2.3029981  43.5808296  52.1801643
  50.9705200  55.7738724  59.2089119  50.4149666  55.9393578  58.4471970
  51.3889580  54.9334831  59.0221291  57.3575172   0.4455532   8.9477606
  56.4213295   0.4487266   9.1471806  57.5875092  -0.4819662   8.8925877
  53.1449890  25.7797260  10.9589472  52.5074120  25.2402420  10.4913101
  53.9954300  25.4674110  10.6500063  81.9545670  10.1828756  33.0132446
  82.8503342  10.5170450  32.9667664  81.4875336  10.6526165  32.3222618
  20.0074844  44.2290421  80.6511765  19.1669292  44.4805908  80.2685242
  20.4251957  45.0596695  80.8787918  85.8873520  66.3930130  24.3497162
  85.3637085  66.5317230  23.5605431  86.0694427  65.4533005  24.3542309
  26.7838039  27.7294559  88.0452347  26.3096962  26.9337215  88.2866058
  26.9527493  28.1696014  88.8782730  80.6461182  19.4309711  15.2858744
  79.7333755  19.6021938  15.5178547  80.9263687  20.2182846  14.8191557
   7.2887316  42.6376457  40.5372086   7.4137874  43.5842628  40.4700813
   8.0140276  42.3385239  41.0855751  28.4417305  56.0182114  40.0191307
  29.3225288  55.7889061  39.7227440  27.9699039  55.1855240  40.0347023
  76.4958420  20.1215782  65.5013504  76.9917908  20.4928741  64.7716827
  77.0063248  20.3492718  66.2783890  85.9009171   9.2164478  76.7190399
  85.4670944   9.5110388  75.9182663  85.2387619   9.3205547  77.4023743
  61.0898857  63.7615318  79.7715149  60.6642952  62.9184265  79.9273224
  62.0155029  63.5999718  79.9541702  53.2244492   5.8408842  57.3152847
  53.2229195   6.5956912  57.9039268  52.7758904   5.1528702  57.8068771
  42.8642197  68.8111801   6.5362372  43.7594223  69.0977097   6.7172055
  42.6798210  69.1423187   5.6572719  57.3384933  52.6899414  47.3432617
  56.4136086  52.5565948  47.1358070  57.7096863  53.0719490  46.5479507
  28.5541439   2.5466371  46.1589661  29.1260033   2.6986001  45.4065590
  28.8002968   3.2250478  46.7877731  85.9775772  56.9243317  19.0763206
  86.1299896  56.6461029  19.9794216  86.8369675  57.2084770  18.7649632
  81.2245331   8.3765306   1.1874387  80.3411865   8.7264709   1.3034879
  81.4132309   8.5059500   0.2579901  74.8088837  61.3554573  76.2433243
  75.2086563  62.1131363  75.8163147  74.6543503  60.7336388  75.5322037
  53.0713120  33.2424316   1.2694269  52.6881752  32.6967545   0.5826424
  52.3499527  33.4035835   1.8776253  45.6848793  41.1962395  13.6034889
  45.1133499  40.4962883  13.9191771  45.7280350  41.0615654  12.6567936
   4.3765078  49.5407333   0.0407465   4.6587944  49.8465080   0.9027484
   5.1807203  49.2386703  -0.3814289  50.9644051  44.8330154  76.2024155
  51.1380692  44.9511185  75.2685394  50.8960495  43.8849564  76.3153000
  39.3632660  39.4613380  25.6563454  38.8443642  39.2271347  26.4258385
  40.2606010  39.2255173  25.8917446  28.8706360  15.8131866  78.1339874
  28.0109158  15.9571638  78.5294418  29.3414192  15.2777634  78.7726746
  85.4567337  53.7765198  38.3302803  85.3256226  53.0048447  38.8812485
  85.7408447  54.4592705  38.9380341   4.8532438  58.2654381  69.2400208
   5.3636270  57.4664650  69.3718796   5.4562197  58.8650360  68.8005447
   7.6640897  47.0927277   0.7550607   8.0628042  46.2564888   0.5143080
   8.0248156  47.7194405   0.1278906  46.6009560  13.5792589   8.6310453
  47.2505074  13.6079826   9.3335304  47.0942879  13.7951813   7.8396974
   4.8371301  48.8432236  61.2508469   4.1729145  49.1667709  60.6422691
   5.1958318  49.6328583  61.6558723  66.0579834  33.3538704  66.6205750
  65.8949432  34.0241432  67.2841873  65.1963348  33.1751060  66.2439651
  81.8328476  19.5063057  39.5362892  81.5167160  18.7963867  38.9774437
  82.4605942  19.0866318  40.1245422  74.4719925   8.6486082  10.8482733
  73.6037903   8.3251982  11.0888004  74.5910492   9.4345207  11.3815660
  71.5027847   8.6839161  64.0174713  71.1098328   9.3753147  64.5501862
  70.9257507   8.6100473  63.2573357  46.4334908  22.5532875  79.8115311
  46.2161827  23.4075508  79.4383774  46.8195229  22.7553959  80.6638031
  11.8355217  24.7600651  67.9881210  10.9012175  24.5869579  67.8726120
  12.0097504  24.5343819  68.9018707   6.7334681  39.2539749  86.7791367
   6.9433160  40.1140060  86.4150772   6.9695249  39.3214455  87.7043228
  62.6436157  33.2378426  51.2516670  62.0812225  34.0098228  51.3148117
  63.4127655  33.5406761  50.7690315  83.9805908  52.5800476   4.9220810
  83.8456802  51.6580849   5.1412086  83.0984955  52.9247894   4.7832131
  85.2562256  38.4102325  12.3277550  85.4490509  37.6446342  12.8689661
  86.0119324  38.4884109  11.7454939  29.8410683  43.6549606   3.4695170
  29.2388802  44.0161018   4.1200385  29.3892517  43.7720718   2.6338272
  33.3150368  57.0825691  60.0383148  33.4593086  57.9962387  59.7920952
  32.6339378  56.7776489  59.4388466  72.0497894  44.6510811  87.0818634
  71.4898071  45.0975761  86.4468155  71.4385376  44.2465553  87.6974640
  35.7136345  69.5569992  24.9692497  35.9772568  70.0457458  24.1895943
  34.9581375  70.0368576  25.3086567  45.3141670  67.7916107  61.9504318
  45.2190361  68.0768509  62.8591805  45.1199188  66.8545761  61.9719353
  60.8161697  39.4258423  70.9074554  60.7372818  38.5044479  70.6604004
  61.4922600  39.7728310  70.3254547  34.4264259  61.1540604  14.5161104
  33.5809441  61.0964394  14.0710545  34.7224808  60.2465057  14.5863132
  71.3697128  70.5273361   8.3053265  70.8536072  69.9702148   7.7226753
  70.7460327  71.1766281   8.6304007  23.1956711   4.7827229  43.5335388
  22.4436893   4.3876753  43.0923042  22.8104420   5.3715692  44.1824532
  19.9052639  48.4949188  61.7294579  20.4678020  48.2422142  60.9973907
  19.9091053  47.7328415  62.3086433  10.5183058  50.9969254  64.2537766
   9.8621092  50.3410110  64.4891739  10.9186039  51.2450523  65.0870972
  55.7126503  57.4111061  45.5295296  56.3295822  57.9621353  45.0478706
  55.8130989  56.5423889  45.1403389  61.3079491  13.1982536  29.1669140
  61.1436386  13.3205299  30.1019440  61.0504723  12.2925177  28.9949226
  65.1486435   0.8247491  27.7681656  64.7114258   0.6863037  28.6083488
  64.5721359   1.4239656  27.2940292  62.6968689  67.4140472  32.2959251
  62.4717598  66.6016846  32.7493820  61.9739151  68.0084991  32.4963989
  34.1872711   3.9132092  75.4008102  34.5251160   3.2281673  75.9777069
  34.9694824   4.3519273  75.0662918  14.7116861  55.3285828  36.6686554
  13.9735928  55.9131165  36.8412056  15.4859629  55.8564606  36.8637772
  74.5444717  38.2602577  63.8791313  74.8787994  39.0569649  63.4671669
  75.3274002  37.7465553  64.0775604  24.6231422  37.6325760  70.9381027
  24.5784016  37.9226456  71.8491974  23.7604256  37.8389091  70.5784149
  65.3964767  57.8587799  46.4192162  65.1620026  58.7660179  46.6146049
  66.2614136  57.9170265  46.0133667  31.3255444   6.5448079  53.5683022
  32.1768036   6.9374151  53.7618256  30.8407784   6.6062346  54.3913803
  45.3965836  22.7641487  69.9211349  46.1061630  22.1716690  70.1695251
  45.4416008  23.4736977  70.5620270   5.7943149  15.0561905   7.7205358
   6.2587442  14.5291100   8.3707066   5.9774375  14.6236849   6.8864880
  20.2950993  46.2341423  11.2713928  20.3261108  46.9300003  11.9279404
  21.1369896  45.7867241  11.3566418  38.3392181  62.8826561   5.9900556
  37.6328125  62.5739098   5.4226909  38.0636826  62.6341629   6.8724174
  50.9446640  67.8643723  46.4987602  50.9091606  67.1423340  45.8713608
  50.0278015  68.0880356  46.6586533   6.0212488  40.2580948  40.8084526
   5.3052855  40.1764107  40.1784096   6.3454561  41.1506500  40.6881981
  17.3601189  43.8992615  86.1592407  17.3912563  42.9686890  85.9372101
  18.0508919  44.2954636  85.6281204  76.0335541  51.5772552  26.3848095
  75.8734665  52.2025414  27.0916443  75.5531921  51.9328308  25.6371136
  57.2980614  41.2763557  22.0982742  56.7494736  40.6027679  22.5002232
  56.7045479  42.0130310  21.9523869  17.4044399  71.3248749  11.5437365
  18.3409481  71.3083344  11.7409973  17.0374107  70.6102142  12.0641022
  54.4509125  54.3968811  84.8003159  54.1868553  55.2017822  85.2460098
  55.2326927  54.1078949  85.2709961  73.1212692  64.9134445  63.2961693
  73.9309616  64.4605560  63.0605316  73.3983231  65.5983200  63.9047890
  57.8270378  58.7848434  12.9370432  56.9066772  58.7954140  12.6742506
  57.9233093  57.9759865  13.4397449  69.6150436  23.1504917  76.2856445
  70.2880020  23.2955837  76.9507065  69.5234146  23.9973011  75.8488922
  58.0549812  35.9779205  79.4003983  57.5152054  35.2191086  79.6219330
  57.7994995  36.6471481  80.0353012  84.8463821  56.2286301  11.0395460
  84.4929581  56.7599945  11.7529716  84.5668259  55.3363495  11.2442818
  76.2430191  17.4987049  57.4286919  76.6397018  18.3697701  57.4397545
  75.3030472  17.6625957  57.5050049  23.2689342  40.5968437  10.3023872
  24.1356792  40.2210693  10.1481876  22.7336693  40.2688370   9.5797977
  17.9808464  47.1868362   3.7582500  18.9014759  47.4488792   3.7555969
  17.5151711  47.9443932   3.4040105  79.4173737  48.3329277  84.4296570
  78.9785004  48.7896500  83.7120056  79.9920959  47.7020531  83.9961548
  31.5077534  38.4997253   8.5044775  31.6762123  38.2536545   7.5949159
  32.3027077  38.2447586   8.9727430  59.5640869  64.1358337  67.0049515
  58.9460487  64.3004456  67.7171021  60.2426567  64.8013992  67.1180801
  23.9570236  28.4423561  69.7019882  24.5070190  27.7062931  69.9702225
  24.2436504  29.1694050  70.2546921  72.2619781   9.7948799  -0.0581032
  72.2022247   9.4076748   0.8152429  72.9554901  10.4502916   0.0174195
   4.9023175  23.4269066  75.4238205   5.7501459  23.0461082  75.6527557
   4.8507061  24.2277355  75.9455872  65.5291595   7.2981000  45.3233147
  64.7904205   6.7109275  45.1629295  66.2570648   6.7143822  45.5369987
  38.1180458  59.3182030  21.9633789  37.7514687  59.4262123  21.0857773
  38.4777412  58.4311562  21.9651966  21.0889912  63.3587379  11.7132940
  21.7955856  63.7802505  11.2241297  21.2206478  63.6435776  12.6175976
  40.8894386  17.9434166  62.1828384  40.1390800  18.2312088  62.7028122
  41.6523972  18.2440491  62.6765404  69.8631058  45.1120529  11.8823195
  70.3181610  44.4605560  11.3487396  70.5440369  45.4763908  12.4478502
  69.0922699  15.4675360  40.6689491  68.1814346  15.2007017  40.7930489
  69.0871658  15.9633493  39.8501854  38.4281044   9.0442066  20.9518337
  38.8747177   9.2484474  20.1302166  38.4721909   9.8562431  21.4566936
  63.3196182  50.5031357  36.6852417  63.3760338  49.8889351  35.9532547
  63.8977242  50.1338882  37.3528328  72.8008423   3.0572371  56.3545837
  72.1836472   2.5837874  55.7967758  72.9123611   2.4938684  57.1203613
  70.2084656  71.3334351  14.3579645  70.9571991  71.0362473  13.8409424
  70.1062927  72.2557755  14.1232538  59.1169395   2.3694150  83.4045334
  59.9989433   2.6651058  83.1790009  58.7585258   2.0358310  82.5820389
  28.9089546  41.8915939  56.2048950  28.0356197  42.1443443  55.9055023
  29.0020409  40.9796791  55.9292641  15.3190203  10.6015968  12.5768671
  15.7177534  11.2793112  12.0310221  14.3855209  10.8132801  12.5777931
  13.6423254  25.9395828   1.7700213  14.1491919  25.8716335   0.9608850
  13.4882431  26.8781052   1.8780258   9.2306128  54.1250305  65.4688492
   9.0698986  54.8105011  66.1173401   8.9014654  54.4903374  64.6476059
  86.9367447  28.2871437  59.8992729  86.0831223  27.8580627  59.8405190
  86.7317581  29.2193127  59.9718895  22.4315510  28.5153580  15.4834509
  23.2273083  28.8837223  15.0996389  21.7594852  28.6482735  14.8149519
  75.9017715  60.7059555  27.3562946  76.0884018  61.5856247  27.6842995
  75.0783997  60.7987289  26.8770313  52.5381851  12.0304394  21.8496971
  52.7066994  12.0280151  20.9074516  52.5046768  11.1043453  22.0894012
  40.6993942  41.7815895  15.2934694  40.5817375  41.5520363  16.2152576
  40.0352173  41.2692413  14.8323879  31.5929451  44.3450165  40.0548439
  32.2327385  44.2675209  40.7625771  30.8486481  43.8182945  40.3460770
  19.0437393  17.8375683   8.1982527  18.7743130  18.0077496   9.1008492
  19.7525101  17.1989784   8.2762232   3.6109850  26.5301476  68.6112366
   2.9420061  25.8985863  68.3469849   3.2924049  26.8829880  69.4420471
  23.4317226   7.0215755  76.9794998  22.5779629   7.4361162  77.1039276
  23.5064926   6.9068646  76.0321426  56.2195663  16.4853439  35.2348328
  55.4718094  15.8939743  35.1489792  56.1880569  17.0273132  34.4464722
  49.4780960  32.9521713   2.2710767  49.9413834  33.2584381   3.0506909
  49.8284721  32.0755081   2.1131916  84.1627579  67.2545624  53.9793282
  83.2828598  67.1789322  54.3485107  84.1604156  66.6582108  53.2306023
  69.9202271  59.6512108  50.7722511  70.4206009  58.9288788  50.3926620
  69.3152695  59.9140587  50.0785828  69.3530579  27.1948490  39.6795883
  70.2226105  27.1595840  39.2810059  68.7535629  26.9755974  38.9663124
  36.7254372  -0.1330282  67.4942093  37.5845261   0.2885339  67.4720840
  36.1225739   0.5651152  67.7499084   7.4787388  17.4401512  88.6532974
   7.5921974  18.2388878  88.1381454   7.7923565  17.6723003  89.5273590
   4.8583479  38.4148750  14.0077677   4.4713674  38.8800735  14.7494326
   4.5762410  37.5071983  14.1207829  54.6934700  19.4815674  45.0803413
  54.0463142  20.1858349  45.1181602  54.3619194  18.8875408  44.4069595
  25.7783108  14.6478081  86.3742676  25.1296234  14.7156305  85.6736679
  25.5534058  15.3555164  86.9782562  72.7676010  37.7521858   9.9486570
  73.5916748  37.7998390  10.4332943  72.4255066  36.8796043  10.1430912
  51.3317070  66.0800095  82.9037933  51.4887352  66.7534485  82.2419357
  52.2046051  65.8463135  83.2194977  85.1913147  56.1363678  88.4525757
  85.7677612  56.8996124  88.4151154  84.6052933  56.2418022  87.7031097
  72.1828308  68.1112366  38.6365509  71.9328613  67.4937820  37.9491615
  72.1323013  67.6022644  39.4456367  78.8853302  25.8485527  20.6552563
  79.7144241  26.3036194  20.5077972  78.2248840  26.5410767  20.6337872
  83.3710556  11.3094063  28.8412304  83.0258942  12.1818590  29.0307560
  82.5949097  10.7522678  28.7827473  22.0909767  62.1868401  83.9460907
  22.6161098  62.6954041  83.3281631  22.4706249  61.3086319  83.9169617
  59.8526115  69.9225769  62.0137329  59.9846497  68.9746628  61.9976425
  60.1111984  70.1854630  62.8970528  13.3482876  21.6099167  19.0881233
  13.2589760  20.6591473  19.0226002  12.6700869  21.9547825  18.5073128
  25.5565224  50.5387383  38.4988060  26.0738049  50.3343658  39.2778320
  25.8509655  51.4113655  38.2379303  35.0779991  22.5920105   8.8617878
  35.2387657  23.0182304   8.0199318  34.2956123  23.0246468   9.2037420
  51.1533318  40.2399979   1.2997682  51.3369255  39.8299904   0.4545337
  51.8094978  40.9325447   1.3775905  30.2480545  58.7257614  37.9772301
  31.1148090  58.5635414  37.6048698  29.6418037  58.5534096  37.2568207
  77.2428741  11.8722239  21.3406143  76.4695587  12.3742924  21.0834389
  77.8551254  12.5287657  21.6727791   7.8855362  36.7624207  60.3951302
   7.2145157  36.0841179  60.3185158   8.3590851  36.5413666  61.1970787
  69.1056976  19.4931355  86.4919281  69.2388916  19.1528015  85.6072464
  69.6214142  18.9129009  87.0519333  57.3819847  49.1132469  29.2947788
  56.5367126  48.6727905  29.3828011  57.5853691  49.0568619  28.3611374
  28.8616409  59.0054588  40.6049385  29.7890892  59.1365128  40.8021545
  28.8464756  58.2525024  40.0141258  60.4184990  61.5360680  76.8385239
  59.6819458  61.2299919  76.3093338  60.5075912  62.4618683  76.6122742
   2.9956245  51.5508652  68.5213623   3.6109147  51.6086655  67.7903976
   2.1317453  51.5830460  68.1103821  83.8425903  47.7948914  16.2093258
  83.4712601  48.4871826  16.7562046  84.4608536  48.2481461  15.6361399
  22.8134022  30.5929527  79.9042206  22.1858578  31.3007412  79.7577515
  23.5156326  30.9971256  80.4138794  59.8971939  28.6752529  28.4711056
  60.0949783  28.1650429  27.6857395  60.7343369  28.7421284  28.9304008
  17.7268200  66.6867981  44.9430695  18.2953930  66.7747345  45.7080688
  17.8972588  67.4742126  44.4261932  83.5058975  62.8659630  47.3709221
  83.1895065  63.7334404  47.1187019  84.4521179  62.9064407  47.2321548
   4.5608878  39.2237587   1.2957641   4.4270158  39.8154488   2.0361781
   3.6861765  38.8920822   1.0930247  57.1825829  21.1665688  16.1279755
  57.9224052  21.7700825  16.1962509  56.6138687  21.5588055  15.4654465
  54.2223969  22.1564560  80.0985336  54.0836029  21.3006382  79.6928940
  53.3411636  22.4734421  80.2964706  82.5858765  18.5769825  47.7743454
  82.7363892  19.2932701  47.1574898  82.1485519  17.9019222  47.2554321
  67.9867401  56.2759705  61.4651451  67.2496567  55.8614883  61.9136391
  67.6926651  56.3718719  60.5592995   7.4385285  41.3353310  82.6249847
   8.3696003  41.1207695  82.6824341   7.0330849  40.5474815  82.2628555
  81.8638916  66.7589569   4.3222027  80.9350891  66.7348022   4.0920348
  81.9221802  67.4180450   5.0138903  71.9659195  12.6680927  47.2701035
  71.8283768  13.3144331  46.5775986  72.8733673  12.3852901  47.1569824
  49.6222267  56.5908890  61.6018600  50.3283043  56.5673561  62.2477150
  49.9609070  56.0920258  60.8584480  41.3371315  50.3121490   7.3061194
  42.1331825  50.6193581   6.8723450  41.5738144  50.2601051   8.2321358
  68.0330200   7.5445671  64.3833313  67.2097473   7.1499586  64.6709747
  68.6683655   7.2869425  65.0513153  81.4965820  20.4365902  75.0006714
  81.6344604  21.3785763  75.1000900  81.2011871  20.3318996  74.0962296
  79.4781418  42.6220016  64.6137543  79.2824554  42.7446899  63.6848412
  79.1884995  41.7296715  64.8037186  36.4420967   5.2261200  20.5838451
  36.2797165   6.1688890  20.5514164  36.2818680   4.9867439  21.4966755
  59.6287575  61.6909561   4.7457151  60.0080605  60.9207001   5.1688776
  58.7608299  61.4048004   4.4610243  53.8245888  50.8045464  28.0883980
  54.6737862  51.1433220  27.8049812  53.4386177  51.5191231  28.5949898
  83.0223618   4.8428016  85.7811050  82.0797424   4.7305226  85.9039536
  83.4008560   4.6441574  86.6375580  25.6600056  57.4984512  44.4455986
  26.0622940  56.8477135  43.8703270  25.3344860  58.1747131  43.8515129
  76.3731461  38.4661827  52.8150597  76.8119965  37.6984291  53.1813927
  75.9166870  38.1348648  52.0416870  15.5104227  12.5041084   7.7149363
  14.8186636  12.8861103   7.1747746  15.4661522  12.9890509   8.5390129
   2.3402724  59.2372971  66.1776505   1.9384261  59.3099480  67.0433731
   1.6489352  59.4998283  65.5699005  24.7255287  31.1132774  81.6915665
  24.9470921  31.1069546  82.6227493  25.4870758  31.5081081  81.2668457
  75.4066849  64.8822784  20.9520035  75.6369171  64.9122009  21.8806190
  75.9795227  64.2090530  20.5847836  62.2248039  31.2898540  61.0995255
  62.3555527  30.3418427  61.1197433  61.5305405  31.4221687  60.4539871
  17.9586067   5.5849032  17.5186939  17.4898643   4.8185501  17.1882153
  18.1339378   6.1127572  16.7396793  49.5764923  58.4937096  20.3447113
  50.2837372  59.1385727  20.3309002  48.8157921  58.9793091  20.6637115
  18.6889782  49.1798058  36.3311386  18.0224419  48.5052109  36.2012062
  19.1794014  49.1933975  35.5092316   8.3329039  62.7533607   3.2962508
   8.3117638  62.4643860   4.2085447   9.1270723  63.2837524   3.2313554
  12.0311556  42.1321182  18.1489658  11.9931774  41.2345581  17.8185463
  11.7236023  42.6693306  17.4188671  53.3968124  50.6781807  20.5585423
  52.7540359  50.3244095  19.9437923  53.3845673  51.6222458  20.4009991
   5.9301901  49.6657944  39.1937943   6.1344566  49.1495628  38.4140396
   6.3698554  50.5035172  39.0483780  19.8331070  34.4470177  21.1386852
  20.6214142  34.8280830  20.7519131  19.9862423  33.5024948  21.1129608
  76.1139145  51.6194382  56.5059242  77.0230103  51.8003426  56.2670822
  75.6307602  52.3915710  56.2116241   8.7208662  36.6046104  36.6282425
   8.7370348  37.4059753  37.1514854   7.9078403  36.6626091  36.1263885
  11.8477869  40.8553696  26.1709347  11.5645113  41.7161713  25.8626995
  11.0593338  40.3143044  26.1282997  54.3077736  40.8228378  88.5961609
  54.9730339  40.4006615  89.1397018  53.6554375  40.1395073  88.4420395
  22.9908752  66.9540405  84.0790329  23.1785507  66.0619431  83.7872009
  23.7788582  67.2221756  84.5517044  46.6966782  51.8835220  55.4564857
  45.8397293  51.4763603  55.5833626  46.4984512  52.7673950  55.1471291
  73.6501617  25.0122967   3.6038194  73.1257553  24.4509773   3.0327199
  73.6546097  25.8629932   3.1650376   3.0244479   1.1327227  79.8377304
   2.5158532   0.9308851  80.6231155   2.3907483   1.5229157  79.2357330
   9.3462791  49.0461617   5.5736294   8.5333490  49.5497246   5.6160984
  10.0281782  49.7034187   5.4348578  41.6745529  49.9627991  62.5525055
  41.5977974  50.3670883  61.6882782  41.1528511  49.1627159  62.4898415
  85.4046402  71.2622757  28.6941853  84.7658310  71.8279190  29.1280136
  85.0416718  70.3807907  28.7805805   4.0131135   1.2098759  20.6059456
   4.6782665   1.6380461  20.0669899   4.4761109   0.9628212  21.4064636
  47.3113327  18.8591919   1.4534209  46.7223129  19.0466537   0.7225683
  47.5438843  17.9372349   1.3432093  83.9652176   5.4843054  78.0584030
  83.4596558   4.7189441  77.7847977  83.3335876   6.0361981  78.5195923
  35.0969887  10.3358803  88.1864700  34.5130730  10.5143309  87.4492950
  35.9062729  10.7981749  87.9683380  20.3219738  18.6214542  17.2116680
  20.9636211  17.9572392  16.9599991  20.4521904  18.7357178  18.1530590
  32.6555672  44.4267387  57.6430435  32.0683174  43.7499886  57.3063240
  33.4317284  43.9475937  57.9332542  36.7596855  18.7642746  69.4051971
  35.9105530  18.4104290  69.6697693  36.5983009  19.6979504  69.2694168
  61.5834351  68.5854797  55.3564262  61.4935265  68.8080826  56.2830276
  60.7592392  68.1530838  55.1329079  71.2388077   5.6129279   8.8054838
  72.1658859   5.4613743   8.6216459  70.8289642   5.6659102   7.9420877
  76.8705292  16.4084282  15.3869362  76.4369736  17.1329899  14.9360828
  77.2167282  15.8607521  14.6823587  60.6284523  22.5841331  13.4609280
  60.4669762  22.2807159  12.5675650  61.3534088  22.0413551  13.7708645
  70.8098679  41.3599968  44.8345108  70.2702713  41.3486176  44.0439758
  70.2624741  40.9497414  45.5040550  82.2731857  14.0283976  86.8346024
  81.8753204  14.8765497  86.6381989  81.7642517  13.6899328  87.5712509
  75.6411057  57.1551094  48.7310371  75.3855591  56.2327347  48.7187538
  75.3495407  57.4957047  47.8853340  85.4089890  51.9422989  18.2177448
  86.1565475  52.1430092  17.6546288  84.6782913  52.4199219  17.8250790
  72.3752213  15.6512823  50.0563316  72.3242340  14.7332916  50.3226509
  71.7900620  15.7145243  49.3014641  10.9487286  36.1282921  17.8538227
  11.8958683  36.2648048  17.8766689  10.6152916  36.6388092  18.5916729
  86.3837204  34.2398529  72.3547668  87.0813522  34.7825165  71.9872665
  85.7727661  34.1114349  71.6291809  63.6850128  21.2913151   0.5309617
  63.2387619  20.4694557   0.3269078  64.0985718  21.5501823  -0.2925614
  48.7126503  55.2589455  81.6780548  48.6456299  56.1004601  81.2268448
  47.8583069  54.8478622  81.5463867  38.3935928  12.5822840  16.9366035
  37.6532516  12.9116144  16.4270229  38.5618095  11.7105761  16.5787449
  20.3523121  11.1918926  84.1563568  20.0987720  11.3619814  85.0635605
  20.2443333  10.2466908  84.0506821  13.1625814  38.2861862  12.5242987
  13.7668638  38.5567856  13.2155647  12.9202986  39.1015282  12.0852680
  62.6759911  42.4133186  14.3485394  62.6948280  42.3533974  15.3036757
  63.5700722  42.6541977  14.1059904  85.6092300   6.8692265  80.9981842
  86.2062683   7.6168299  80.9687958  85.0502472   7.0387726  81.7564850
  48.2075691  21.6853294  63.0185852  48.0506706  21.2338161  62.1892776
  47.6879272  21.1985931  63.6583443  33.6631088  59.4748535  26.4304867
  34.5947418  59.6945496  26.4358845  33.4619865  59.3068161  25.5098648
  63.0006866  61.7096329   0.2779893  62.4021263  61.0550270  -0.0818011
  62.4285126  62.3541031   0.6945280  52.6670990   0.8464368  77.8735886
  52.1540909   0.3087217  78.4768448  52.1556549   1.6494408  77.7743835
  40.4253235  50.7018852  29.4591026  41.1262703  50.0527267  29.5182304
  40.1622696  50.8536873  30.3668423   1.6215810  63.2270508  69.2231750
   1.1008514  62.8937149  68.4924545   1.6043649  64.1780090  69.1153870
  62.8478966  21.8673153  53.9745255  62.3252563  21.7677097  53.1788101
  63.6995201  21.4922657  53.7502289   6.3031363  35.3367767  12.2642765
   5.4335885  35.5140724  11.9055510   6.1485977  34.7029495  12.9647121
  70.4807205  28.1232262  87.7424164  70.7281647  28.6475010  86.9807434
  69.5241394  28.1553402  87.7547531  68.4522247  46.9443359  31.4332104
  68.9400101  47.7666397  31.3872185  67.6086960  47.1872635  31.8148766
  69.6364136  39.4576874  36.8874741  69.6754150  38.6145897  36.4359245
  68.9203949  39.9262352  36.4585114  47.0726814  55.3507271  77.8824005
  46.6201439  54.5190353  77.7419357  46.4708061  56.0116692  77.5401535
  79.1276093  70.6427078  36.7583542  78.2418289  71.0052719  36.7454033
  79.7000351  71.4096069  36.7790985   6.2336926  69.8907547  76.6627502
   6.0220470  69.9146271  77.5959549   6.0135050  70.7663193  76.3447495
  21.4728985  43.5569344  39.5999107  21.9050255  42.9770966  40.2270355
  21.0104275  44.1951408  40.1430893  14.0866709  45.3971863  63.5160294
  13.1539993  45.2754631  63.3384399  14.1347084  46.2314339  63.9828873
  66.3090591  61.1863899   9.9736099  67.0152740  61.1787872  10.6197004
  65.8022842  60.3968430  10.1634130  48.7985954  50.9891930  71.7498016
  47.9823647  50.4894981  71.7323837  49.4208832  50.4484749  71.2633743
  69.2222061  24.4309654   0.8673514  70.0773926  24.7822838   1.1152654
  68.7828217  24.2600975   1.7004039  17.9049168   7.8566980  75.2216568
  17.3455906   8.1633415  74.5079651  18.3755207   7.1091828  74.8528976
  49.5818596   4.9810395  46.8030701  49.9820251   4.9019456  47.6690025
  50.1848106   4.5226188  46.2178078   1.1919249  62.6940193  53.2978783
   0.3743610  62.3331757  53.6408272   1.3448719  63.4805336  53.8215523
  47.2136192   2.7817047   5.0640407  47.7170219   2.1652853   4.5322104
  46.4524384   2.2801108   5.3559952  71.9554672  36.2224731  46.3178902
  72.3693848  36.1995049  45.4551163  72.6073456  36.6338272  46.8854065
  81.9283142  22.4919605  68.6081543  81.6886368  21.7991371  69.2236099
  82.6870346  22.9162998  69.0088043  33.0673943  19.1206074   4.1333985
  32.3078918  18.8765850   4.6623993  33.1308861  18.4307003   3.4729223
  27.6448078  58.0301170  62.6043587  27.7871284  58.9473038  62.8383293
  28.3674374  57.5614853  63.0219994  11.8233738  45.0117989  79.8976517
  11.3461723  44.3648911  80.4172821  11.1676083  45.3688164  79.2986984
  32.6845131  43.2142181   7.2856092  32.8635788  44.1028137   6.9780970
  31.7766685  43.0507164   7.0300412  67.5107880  32.3224411  44.8803635
  67.8707657  31.4582233  44.6809235  67.2082520  32.6565781  44.0359383
  48.3372917  47.9917755  77.6589355  49.1261711  47.5948296  78.0281754
  47.6536484  47.8106956  78.3039780  57.2196350  14.9562531  72.9385529
  56.9251633  14.5291672  73.7429886  57.3678932  15.8674221  73.1915817
  66.9834595  44.9853554  82.9958420  67.4756699  44.3401184  83.5034103
  67.4059448  45.8205757  83.1962128  44.6361122  43.0992165  16.5091629
  44.4703064  42.1870689  16.7473297  44.5478706  43.1177788  15.5562191
  68.5665359   5.4708796  77.4176407  68.0414963   6.2611589  77.5442200
  67.9642868   4.7507319  77.6045074  53.2285728  16.0806980   8.6796589
  52.7848892  16.9270859   8.6248178  53.8171692  16.1669655   9.4295530
  49.9605026  33.3702621  20.1414127  50.8502769  33.7174759  20.0783405
  50.0562706  32.4334183  19.9699821  73.8056793  26.2516804  14.2843084
  73.4005814  26.9867210  14.7445774  74.6176300  26.6110954  13.9268484
  58.4614105   0.3735774   5.8338161  57.8860550  -0.3194038   6.1578102
  58.2582664   1.1302077   6.3837929  28.8765221  58.3091812   7.4340787
  27.9537201  58.5311813   7.5581164  28.9545727  58.1237793   6.4982553
  28.1923981  45.4732056   4.5682836  27.7061920  44.7701225   4.9989948
  28.2976723  46.1413803   5.2455497  21.0717525   4.0972142  16.9561481
  21.2436485   4.8437448  17.5300617  20.5435905   4.4588518  16.2444649
  74.8049393  60.4217262  73.5254974  75.3105392  60.9097672  72.8755646
  73.8991318  60.4877663  73.2231903  54.5663338  51.3699074  49.8451920
  55.2060852  50.6815948  49.6630554  54.0943375  51.0597878  50.6180267
  62.5988693  26.2799263  56.9640198  63.1834869  26.4843140  56.2341728
  62.0924530  25.5261364  56.6613998  70.0047836   3.0304809  35.9193535
  69.4405365   2.5876763  36.5532188  70.8715668   3.0249972  36.3254166
   9.0954285  40.5073051  53.5331154   9.9068909  40.1493874  53.1730347
   8.8735209  39.9188080  54.2546844  11.1113367  51.5117912  55.4154816
  10.2740564  51.0962791  55.2092209  11.5399685  50.9018097  56.0158386
  73.4641876  35.5723038  34.4729080  72.8279114  35.8558464  33.8164062
  73.2081070  34.6740952  34.6823769  36.7382812  56.2150421  58.7797165
  36.0137520  56.7935982  58.5418816  37.1525421  55.9946022  57.9454346
   7.2269959  50.4852715   6.8832631   7.1279702  50.1464462   7.7729959
   6.3304114  50.6301422   6.5809708  77.3568192  31.2006989  45.7985382
  78.2932739  31.2818699  45.9793549  77.2019119  31.7963886  45.0654678
  18.5038090  49.6862793  39.0089798  17.5762978  49.7823486  39.2251396
  18.5155563  49.5423584  38.0627365  25.3242664  60.2224693  55.3963089
  25.3397789  59.4204636  55.9185905  26.1212749  60.1796570  54.8679352
  63.3500061  35.2113800   9.0633373  63.9166031  34.4668274   8.8612480
  63.2030487  35.1512527  10.0072756  30.1747742   4.5452952  52.0702629
  30.8928242   4.8743482  52.6109695  29.8873386   5.3058515  51.5651245
  80.7259521  28.2671738   7.2158747  80.0079498  28.2701950   7.8488755
  80.3532715  27.8618393   6.4329023  61.3359604  41.0381737  66.2585144
  61.9119034  40.5978279  66.8835068  61.3626404  41.9596176  66.5163269
  30.3632965  57.3293190  80.6568832  30.1466789  57.4445572  81.5821075
  30.6926594  56.4325066  80.5979080   0.6531984  20.6315002  10.0219955
   0.5715948  19.7126598  10.2775440   1.2176249  21.0172195  10.6919775
  43.2610970  66.6010590  67.1415253  44.0609283  66.8824997  67.5857010
  42.7409706  66.1822739  67.8273239  30.6550083  60.2727356  79.8677826
  30.6643391  60.4370613  78.9248428  30.7437019  59.3228912  79.9462662
  40.3534279  55.0438957  75.2753296  41.2257919  55.0116310  74.8826904
  40.4972229  54.8271790  76.1965179  49.9220505  30.4065189  47.0965881
  49.1565475  30.9592037  47.2539902  49.5973053  29.5121689  47.2010231
  16.3800735  40.1517143   2.3397713  16.1277809  41.0458260   2.5703042
  15.6300125  39.6167107   2.5994139  80.1015625   8.1188898  48.3084717
  79.1881485   7.8538938  48.4165802  80.5125656   7.9095387  49.1472130
  35.5930557  18.2305813  72.0343246  35.0354156  18.1280022  72.8055191
  35.0222168  18.0178986  71.2959900  36.7582092  46.7910385  28.5322533
  36.3967819  47.2092628  27.7507839  36.0024185  46.6592712  29.1046581
  70.1838226  30.6299477   7.8349795  70.7316742  30.4865189   7.0632801
  70.4573593  31.4848957   8.1673555   7.1090102  13.8319941   9.6477566
   7.6635299  13.1426620   9.2822971   7.6996160  14.3494740  10.1951427
   8.2678928  35.0226097  77.9621048   9.2137661  35.1691666  77.9708862
   8.1553268  34.2148170  77.4610672  11.7360201  70.6663132  59.4143867
  11.6948004  70.9075317  60.3397789  10.9140530  70.2039719  59.2505455
  80.8294296   2.0230072  78.1137161  80.1902390   2.7354968  78.1082611
  80.6397629   1.5249946  77.3185806  65.2270660  39.5429878   1.8124416
  65.6624146  40.3341560   1.4950218  64.4613800  39.8653030   2.2879138
  59.2848969  52.2066765   6.6270905  59.2974892  52.7633743   7.4056549
  58.3581238  52.0133667   6.4858351   5.3140631  61.3433151  37.4301338
   4.8966117  61.0567474  38.2424431   4.6737432  61.9283600  37.0252304
  11.6671610  46.7085381  69.8393707  11.9296331  46.2403107  70.6318970
  11.4464569  46.0174751  69.2149048  22.2539959  45.8349304  20.0060368
  23.1543179  45.9866714  20.2934875  22.3251572  45.6887703  19.0627422
  28.6813679  69.6549454  66.3293915  28.3228970  69.4954453  65.4562988
  28.8266640  70.6005707  66.3595734  56.3325310  63.3873749  18.6083145
  56.7859154  63.7267838  19.3799858  55.6372490  62.8334999  18.9633350
  39.4493752   5.3940835   1.5529739  39.8605156   4.8569932   0.8756782
  40.1080704   6.0546331   1.7675078  21.9216805  61.7416420  58.2147942
  21.0877972  62.1147270  57.9289932  22.3206768  61.4044952  57.4126892
   1.0132658  29.8916130  74.6706314   1.2939496  30.7267017  74.2963638
   1.8154093  29.5047226  75.0214996  80.2525101  13.5038023  37.4715042
  80.7990723  13.7651415  36.7304230  80.2534027  14.2661400  38.0503578
  57.5094681  21.1094685   3.3100994  57.1086388  20.4372845   3.8612189
  57.3196106  20.8295727   2.4146421  55.9765511  56.4319305  87.5460434
  56.1484680  57.1607552  88.1422729  55.0889549  56.5898705  87.2243958
  82.8324966  62.4991455  22.3343010  82.2222824  61.8895531  21.9192486
  83.5253525  62.6233292  21.6856403  85.8223953  58.4667702  41.8739471
  86.2970581  57.6452980  41.7469940  85.3400726  58.5934258  41.0569038
  15.0398045  63.8916054  35.9518585  14.9315987  64.0399246  36.8912888
  15.0570726  64.7696838  35.5711784  41.8724442   4.6498284   7.8900375
  41.0296822   4.8691130   7.4926734  42.0969925   5.4182301   8.4147940
  69.8475800  15.5276937  74.4929581  69.2679520  15.9926968  73.8896027
  69.2552261  15.0551157  75.0777817  42.7900391   8.9637899   8.2392035
  42.4268646   9.7668142   7.8657231  43.1628342   8.4985886   7.4903092
  33.1123581  29.7719460  69.5127258  33.2228050  28.8278847  69.3996582
  32.7649307  30.0746288  68.6737366   9.2128820  26.5621490   8.8701210
   8.4351292  26.2290268   8.4225006   8.9185715  27.3685951   9.2935095
   2.9660764  27.7935028  71.1934128   3.5533166  27.6070557  71.9259567
   2.0902250  27.7809010  71.5793610  85.8731689  29.1186771  70.2424316
  86.1928406  30.0083294  70.3926239  85.3224106  29.1904907  69.4628525
  58.7533875  48.4797707  60.9187431  59.6310158  48.6078415  60.5587502
  58.1827011  48.4428177  60.1511574  83.6248703  12.5250788  65.0794678
  83.0960541  12.6959867  64.3001251  84.2789612  13.2239237  65.0830612
  63.1893234   1.0739144  54.3215981  63.3846359   1.2684810  55.2382355
  63.3682785   0.1378660  54.2320404  15.3731737  51.1357918  14.4182348
  15.0382013  50.2550926  14.2497339  15.2072659  51.2810020  15.3496962
  15.0247536  41.6579475  47.4657784  14.5877333  42.4316139  47.8217087
  15.9577055  41.8300056  47.5931740  13.5460958  36.8979568  19.0503407
  13.2682962  37.8137856  19.0681858  14.4787073  36.9263535  19.2640285
   4.2416830  58.5398788  15.0074024   4.6168804  59.2289276  14.4590693
   4.7298579  58.5950775  15.8289070   5.2130823  43.0605392  20.1921139
   5.7445641  42.5486221  19.5824413   4.3526263  42.6417999  20.1696491
  72.3611832  30.7225838  25.3857098  72.1041641  31.0793438  26.2359447
  71.5327759  30.5405941  24.9420166  28.7065048   6.3406963  87.9056625
  29.1241627   6.3158026  88.7665787  28.6188564   7.2733355  87.7088547
  76.2575150   0.5511564  35.8057175  75.7999573   0.5320820  36.6462593
  75.6212997   0.9234350  35.1950836  31.7872963  21.3475780   7.1215959
  31.5543594  20.4382668   6.9341779  31.6265297  21.4474945   8.0598936
  26.3807125   6.7200670  70.9231491  26.7248135   7.1668324  70.1496964
  26.0480881   5.8865829  70.5901337  62.7046700  23.9807091  74.4788971
  63.5564804  23.8832264  74.9045105  62.5479584  23.1344070  74.0600281
  67.1032562  52.0493622  61.6405907  67.7118759  51.5895920  61.0622978
  67.0508270  51.4972878  62.4207802  80.4444351  14.7120247  70.8121109
  79.7578812  14.2478151  71.2910538  81.2448578  14.2255230  71.0092773
  82.7530060  66.6041794  70.9918823  81.8308258  66.5430679  71.2410355
  82.7760391  67.2907944  70.3253555  84.5124969  14.2494659  22.3224182
  85.3269501  14.6893539  22.5661507  84.4184799  13.5463057  22.9650345
  20.7600288   9.5726986   7.9631748  19.9133110   9.6471214   7.5229897
  20.6427250   8.8577833   8.5887690   5.3617539  40.0420151  75.2603455
   5.1273012  40.1125145  74.3349838   5.2811441  40.9346085  75.5965195
  70.0746155  24.2518749  56.8768044  70.8044357  23.6871204  57.1310768
  70.0277557  24.1684551  55.9243965  20.7181587  47.8347893  67.7700043
  21.3374691  48.4989128  67.4673080  19.9666748  47.9231529  67.1837463
  13.3362083  71.7611542  51.9608307  13.8963490  71.0223770  51.7227516
  13.5379314  71.9276962  52.8815956  42.8583794  50.5386696   1.6595908
  43.6381149  50.1390762   2.0450401  42.6157341  51.2314835   2.2738891
  72.0622559  42.7717857  14.7477932  71.8830719  42.0839233  15.3888617
  72.8286285  43.2286034  15.0945377   2.8085041  40.8588715   5.0009480
   1.9511671  41.2076416   4.7568927   2.6261282  40.2598152   5.7248969
  74.5358582   3.4109905  86.0981293  74.7637711   2.8792794  85.3355179
  74.2303619   2.7785230  86.7484283  32.3218040  49.8114243  41.9520264
  32.8521347  50.5842094  42.1464005  32.5241966  49.6054039  41.0394325
  42.5203705  44.1617661  40.7550735  42.1459007  44.9864388  40.4453659
  42.2696800  43.5202866  40.0903282  43.5306854  28.8234692  66.5673370
  43.0984764  27.9859867  66.3998489  43.3624878  28.9988708  67.4931717
   2.3749845   3.9903400  87.7339020   1.8567276   3.5606108  87.0534744
   2.7026255   4.7876430  87.3177338  68.2919312  59.4363251  53.6371307
  68.1120148  58.6023788  53.2030869  68.7897110  59.9393158  52.9925766
  63.2124023  16.0429497  46.3967590  62.3273926  15.8030643  46.1220856
  63.3779068  15.5030775  47.1696625  25.8420715  66.6439514  22.4033070
  26.0983715  66.9190979  23.2835541  24.8871384  66.5882034  22.4383297
   7.1493812  49.8676872  87.8958817   8.0379934  49.5876846  88.1154175
   7.1771564  50.8225327  87.9569931  59.5563965  16.4059639  77.7352066
  59.1940002  16.1262379  76.8945847  60.0535545  15.6491194  78.0454559
  68.0142059  29.1488628   2.6455421  67.0812531  28.9827709   2.5104511
  68.0683136  29.5034218   3.5330050  62.9222755  60.0906830  24.5583134
  63.5076828  60.4461899  23.8896255  62.5352898  59.3159790  24.1505070
  82.0884933  31.3681240  54.1637192  81.3001709  31.1203098  53.6806297
  81.7956543  31.4566956  55.0707130  18.4389439  45.0432205  48.4875679
  17.7361851  45.2012138  49.1179657  18.1336937  44.2978249  47.9704208
   0.1639487  70.5730743  18.3963165   0.0366972  69.8911438  19.0558662
   0.6595659  71.2551270  18.8495331  28.8771572  57.2097435  33.4005318
  28.4566307  56.3822136  33.1669006  29.5929108  57.3006439  32.7715149
  26.7297688  52.5387535  76.8323135  26.8041229  53.4871674  76.7264252
  26.5897675  52.2088966  75.9447174  71.4557800  63.8491478  32.7725983
  70.7079697  64.2839432  33.1824226  71.4603653  64.1772919  31.8734131
  57.8651123   1.9729359  69.4191513  56.9287720   2.1395984  69.5274124
  58.1833763   2.7172356  68.9083099  41.4260216  18.9613400  16.1679859
  40.4808769  19.0703220  16.0628319  41.5247040  18.5348015  17.0191956
  66.7546844  52.0374680  56.4477119  66.7686539  52.9339523  56.7829018
  67.6462555  51.7168999  56.5839615   5.8182812  17.6260262  81.9572830
   6.2725811  16.8643036  81.5972519   6.3221936  17.8589840  82.7370529
  58.0808601   5.4998250  82.5644760  57.4991417   5.1320019  83.2297134
  57.9804344   6.4473391  82.6559296  48.9464569  26.7296066  55.7228394
  48.3785782  27.4543781  55.9844742  48.7292557  26.0234165  56.3314018
  44.3085632  35.6735420   3.5913756  44.8519707  35.4767227   2.8283520
  44.9001770  35.5781174   4.3377824  18.8517609  22.6091213  76.2747421
  18.3496971  21.8002682  76.3743439  19.2437057  22.5420628  75.4040451
  32.5762138  56.8540878  34.1203918  33.3985672  57.0851669  33.6884537
  31.9222832  56.8837128  33.4220161   3.5455461  20.6699600   5.1775417
   3.5499117  20.0749340   5.9273129   4.4094768  20.5608177   4.7801204
  50.4152489  65.5175476  66.3010254  50.3027534  65.4329224  65.3542328
  50.2907753  64.6300430  66.6372833  40.2280159  65.4997864  25.8151474
  40.6499367  65.0244064  25.0994434  40.1885490  66.4062347  25.5101395
  25.6027355  67.5017014  25.0405407  24.8859272  67.6293793  25.6619263
  26.3020115  67.1047211  25.5598164  74.6628876  65.0916138   3.0172179
  74.2781143  64.2163162   3.0622191  74.3856659  65.4316635   2.1664841
  57.0721436  41.9527664  74.5440674  57.9270782  41.5226326  74.5266647
  57.0379753  42.4509010  73.7274170  12.1705790  37.9004059   8.7469158
  11.5672598  38.5489502   9.1097164  12.9343300  38.4094048   8.4751854
  56.6519279  60.9473114  33.6124802  57.5581779  61.0850906  33.8880806
  56.1492958  61.5911560  34.1115341  81.9847717  29.2593269  31.8293419
  82.2965698  28.5223522  32.3545876  82.6841354  29.4136906  31.1942902
  49.1206245   2.8398578   1.9202116  49.4730339   2.3855245   2.6854706
  48.1877060   2.9399078   2.1096432  57.1390953  18.2444420  85.3205795
  56.5170364  18.5371418  85.9866180  57.4779358  17.4149837  85.6573563
  74.5027466  67.1612701  77.0171814  74.8798294  66.9655991  76.1594238
  73.6875839  67.6229782  76.8207779   4.2542315  38.9968300  20.4458771
   4.0260510  39.9239845  20.3784447   4.0717411  38.6413803  19.5760574
  65.1037598  36.9512100  41.7751198  64.7559967  36.0758705  41.9456215
  65.4522095  37.2390404  42.6189041  40.6630592  47.7213898  67.9275360
  41.0514374  47.2756271  67.1747513  41.0760269  48.5848999  67.9338150
  34.0184402  54.7166252  40.3204193  33.4015312  55.4250526  40.5042267
  34.4815979  54.5818214  41.1471863  57.2407570  65.3069687  63.1854057
  57.3717537  64.4532242  62.7728615  58.1251869  65.6517563  63.3084412
  58.3521729  33.5092659  37.1194420  58.2394791  33.5955124  38.0660667
  58.4978523  32.5735741  36.9798470  75.0165863   8.2253170  71.5341263
  74.5797806   8.8589048  72.1033401  75.5182266   7.6717019  72.1325378
  61.7737923  21.9083920  57.1543045  60.9207802  21.9185848  56.7201385
  62.3947449  22.1528625  56.4680977   1.4558500  17.2091103  88.7666931
   1.9590629  16.3949432  88.7548065   2.0611973  17.8596535  89.1224747
   4.2158084  37.6976585   6.6350060   3.7670193  37.0299034   6.1164260
   4.1522384  38.4936333   6.1071687  56.9365120  32.9869347  54.5374756
  57.3183060  33.8031197  54.2145042  56.4552231  33.2425690  55.3243980
  59.5472603  40.0654221  38.9014168  59.2455444  40.5607452  38.1399345
  59.8261566  39.2225189  38.5436974  22.9136868  20.8535557  69.9584579
  23.6844559  20.2869415  69.9915543  23.2364388  21.6756516  69.5893784
   9.7574434  65.4788055  45.5129356   9.4963951  64.7786102  44.9147644
   9.1619129  65.3923416  46.2573128  78.8703995  14.8188105  20.6079521
  78.9220734  15.7251196  20.9115391  78.0931549  14.7971630  20.0496941
  51.8232574  36.2104340   5.0153370  51.7270966  36.4077911   5.9470215
  52.3826370  36.9104462   4.6787200  16.9265137  69.3051147  47.2686729
  17.3921490  69.6658096  46.5141411  16.0415993  69.1357422  46.9454536
  64.2559738   0.5961471  77.1144180  64.0803909   1.5196408  77.2948685
  64.2201691   0.5275052  76.1603546  57.0172424  49.5805969  56.1309395
  56.0777473  49.6017990  55.9489212  57.4289932  49.7647629  55.2866783
  50.9226341   2.7159970  71.9597015  51.2134361   2.5859723  71.0570602
  50.1057663   2.2209249  72.0218353  83.4349518  19.3875065  50.3294525
  83.2092361  18.8378143  49.5790405  83.4821472  20.2739697  49.9714203
  47.6583328  34.7077446  40.2925568  47.9075851  35.1366577  41.1111755
  46.7094460  34.8226700  40.2411995  13.7527475  55.5048981   4.8668876
  13.0691786  55.4542046   4.1987591  13.5909948  56.3365059   5.3124180
  53.9222107  24.2723064   5.7301526  54.3943558  23.8148556   5.0344176
  54.3713303  24.0132732   6.5347791  55.7586098  70.4086533  83.1884460
  56.6653099  70.1046906  83.1468201  55.7256317  70.9571838  83.9721909
  16.7111816  55.4400368  18.2609024  16.6048279  55.2544289  17.3279133
  16.9752750  54.6030960  18.6430264  40.4399567  43.9311523  78.1193542
  40.2788124  43.4781685  78.9470444  39.6857071  43.7084999  77.5736694
   0.9797305  25.6208801  63.2123566   1.1969744  25.0579014  62.4693260
   0.0687943  25.8739796  63.0628014  61.7876282   7.2097015   8.8352890
  61.7752419   7.3312697   9.7846575  60.8640671   7.1818218   8.5853214
  19.4341927  66.7334366  32.7832680  18.9168167  67.4202728  33.2037582
  19.7084427  67.1163712  31.9499779  50.2325897  68.8050079  57.3067627
  50.8721886  68.5317459  57.9643898  49.7772942  67.9982605  57.0657349
  35.2680779  43.6573715  60.8619156  36.1416206  43.2966766  60.7100716
  34.7428207  43.3278847  60.1326866  38.2384682  13.2273712  80.9267578
  37.2826843  13.2421751  80.8768005  38.4273453  13.0350132  81.8452148
  27.3951759  66.1013260  38.1254120  27.1229420  66.9752731  38.4053078
  26.6719151  65.7875595  37.5825729   2.6355443  56.4789886  43.4153137
   3.3476987  56.9901505  43.0308876   2.3991392  56.9574509  44.2099342
  56.3868675   3.6804299  72.9178543  57.2503586   3.2735653  72.9890900
  55.9686928   3.2281306  72.1851959  67.2007065  11.9133101  50.8114433
  67.7901840  11.2726774  51.2093544  66.5328827  11.3850727  50.3741684
  51.1286392  51.2341652  16.4222488  51.9099121  51.5078773  15.9417048
  50.7332039  52.0525055  16.7225456  78.3367081  40.4927940  55.0694885
  77.8858185  40.1970215  55.8603439  77.6339264  40.6604156  54.4416122
  49.9537201  35.8266945  23.3646469  49.1176872  36.2526512  23.1753254
  50.5228691  36.5371094  23.6606445  29.8433418  28.1331577   6.2527871
  30.1711864  28.6578712   6.9831457  29.9793663  28.6841412   5.4819794
  75.4231796  63.4774132  61.9192390  76.1020508  63.0993767  61.3602638
  74.8672028  62.7351303  62.1561699  68.2676620  42.9515953  17.0218449
  68.0736008  42.1476746  16.5398846  67.4837646  43.1108131  17.5475750
  41.7772789  65.8223801  77.8603592  42.2306938  65.9346619  78.6958466
  41.0281868  66.4159698  77.9127121  20.1504536  54.4515877  19.8474102
  21.0207901  54.6728439  19.5160637  19.6679497  54.1567688  19.0750732
  71.4752197  20.3883610   8.2184324  71.8212051  20.5872231   7.3483891
  71.5872192  19.4421768   8.3102140  68.2031326  41.0413361  86.7471771
  68.1863251  41.9595757  87.0169678  68.5832062  41.0566940  85.8688049
  58.9109764  28.8073864  88.7541351  59.8346024  28.5942268  88.6210709
  58.5026932  27.9719791  88.9813614   0.1154350  50.5224800  35.4777412
   0.3388799  50.3384666  34.5653572   0.6770220  51.2594833  35.7179070
  36.9168091  65.9166794  34.2573242  36.9491692  65.2896500  34.9798317
  37.8117142  65.9378662  33.9183159  12.4822226  37.7529488  25.3358421
  11.8779774  37.8969307  26.0641212  12.6733866  38.6309776  25.0060654
  70.1837769   8.4391422  40.1750336  71.0479050   8.6934710  39.8512573
  69.8356476   9.2342567  40.5785561  10.3847904  52.3184624  34.3272514
  11.1345043  51.8069496  34.0230865  10.5822878  53.2157669  34.0587883
  53.2008934  55.4013100  48.2340927  52.5796127  56.1205063  48.3481026
  53.6633339  55.3494186  49.0705643  85.2039032  64.8005524  49.6550713
  85.8713150  65.3565369  49.2529831  85.5679932  63.9165916  49.6073036
  20.4269447   1.3385619  84.4405136  19.6784916   1.4154642  83.8487930
  20.3437328   2.0876551  85.0305710  78.5492783  37.8972321  57.7393494
  77.7278671  38.3111610  57.4744453  78.5989304  37.1022186  57.2085724
   6.2941699  53.3312798  85.2517166   5.3564377  53.1694183  85.1483154
   6.3931141  54.2712250  85.1002426   3.9744704  14.4219475  79.4071503
   4.7339020  14.7650347  78.9362106   3.2296436  14.8975325  79.0393448
  14.8969641  43.5381088  84.4188995  15.3796816  42.7794762  84.7470703
  15.5439415  44.2432671  84.3987503  22.3467617   2.5291419  53.4342537
  22.0274391   3.3990977  53.1945839  23.2886524   2.6456378  53.5587540
  16.6782799  61.9211082  69.4153137  15.9037066  62.0963936  68.8809509
  17.4100533  61.9722290  68.8003922  45.4689178  64.9554596  14.4557047
  46.1146851  64.8238831  15.1498966  45.0099373  64.1177673  14.3936443
  39.6815491  21.9268761   2.5054970  39.4677620  21.3952312   1.7387621
  40.4808960  22.3921814   2.2589889  71.1015625  31.8504696  14.2441769
  71.0782700  31.0086193  13.7892265  70.5343781  31.7271595  15.0053139
  38.0229759  29.2169571  15.0064240  38.4412003  30.0741348  14.9253845
  37.5896301  29.2415886  15.8595581  85.2785034  15.7219772  27.3753128
  86.0666351  16.0563335  27.8034401  84.7614594  16.5037518  27.1810837
   9.1877985  69.1472473  31.4670620   9.5403862  69.8278275  30.8937092
   9.1640015  69.5528564  32.3337479  56.7400169  66.7657166  18.6822338
  56.9599037  66.1531448  17.9803524  56.2716408  67.4754257  18.2427292
  26.2500935  64.3899078  29.5840893  25.7607059  63.5686569  29.5364265
  26.0015392  64.7682343  30.4274902  41.4200020  26.6294289  15.5678082
  41.7789192  27.5117302  15.4731789  41.6794052  26.1779175  14.7646389
  78.5831833  35.3787804  40.6858139  79.3619614  34.8436508  40.8386917
  77.8576202  34.8426971  41.0058174  81.2384872  62.7924957  33.3477974
  82.0251160  62.4567146  33.7775650  81.2801666  62.4367638  32.4601326
  62.9396477  56.5006104  33.1529617  63.2046356  56.1319122  33.9956207
  61.9900932  56.3824921  33.1278152  85.8567200  48.8110580  75.2625427
  85.3050232  49.5079994  75.6176910  85.4588699  48.5972214  74.4186096
  73.0571671  52.3185425  87.8922119  72.4729614  52.8396072  88.4430542
  73.8783112  52.8103218  87.8816986  55.7215042  28.6762199  21.2820454
  55.4689293  27.8591213  20.8521748  54.9078217  29.0091629  21.6605988
  49.1969757  25.2980251  15.2281694  48.4807472  25.1773701  15.8516226
  49.2283669  24.4767151  14.7375622  60.4672394  57.7745628  19.5853672
  59.6766357  58.1908760  19.2420540  61.1048241  57.8491516  18.8753281
  50.6503181  53.8750458  87.9786606  51.3660774  53.2908707  88.2289886
  49.9889374  53.7486649  88.6589813  77.4438934  49.8426628  21.6128597
  76.5134354  49.9591866  21.4207478  77.8406525  50.6864357  21.3963871
  53.9416008  32.1939774  43.8569603  53.9170532  33.0756912  44.2287331
  53.5470009  31.6392460  44.5298576  78.4931870  67.0002975   0.5489216
  78.3397980  67.8092194   0.0607083  77.8353043  66.3905182   0.2148629
  53.3427238  41.9195824   1.7592486  53.8400917  41.4395065   1.0971417
  53.9905815  42.4809532   2.1851311  22.7462406  13.8171244  21.5672283
  23.5806389  14.0629473  21.9667053  22.3956699  14.6376276  21.2206631
  82.9688339  44.2946548  36.3171349  82.5618973  45.1450119  36.4830513
  82.2810059  43.7777252  35.8977242  21.3632584  62.7707481  65.3165512
  20.6996593  62.6343765  64.6403351  21.0234756  62.3078384  66.0823822
  16.2238235   8.1329517  81.8269882  16.7884445   7.7098083  81.1801605
  16.5508633   9.0310211  81.8794022  67.1410675  26.4161339  68.5556412
  66.7006912  26.4666500  67.7072678  67.3835678  27.3206425  68.7538605
  48.8941269  35.4512482  68.7858887  48.8191376  34.5521431  68.4661713
  49.7984505  35.6991730  68.5936279   6.4319782  11.9724140  31.8114071
   7.0479379  12.6963663  31.9241810   6.5980296  11.3980150  32.5588875
  15.9724131  66.7522278  67.8283463  15.4202375  66.1127167  68.2781982
  15.5976906  67.6006699  68.0649033  42.9978485  15.7480488  15.7229872
  42.1114464  15.9675570  15.4360342  42.9224167  15.6381245  16.6708565
  64.6239853  16.7793789  68.0961533  65.1013870  16.6252003  68.9113464
  65.0665817  17.5286064  67.6974106  54.2399406  30.7144470  67.7586975
  54.0554352  30.8123283  68.6928329  55.1941833  30.6594105  67.7075195
  18.1675568   8.8673706  20.1996460  18.3049183   7.9430289  20.4069042
  17.4420147   9.1341486  20.7641373  15.0351210  60.6944542   9.9279051
  15.8054810  61.2075768   9.6840143  14.7900982  60.2340240   9.1252842
  82.8800583  21.2640953  46.3341713  83.4388046  22.0381012  46.2637901
  82.0908432  21.4929829  45.8432808  14.9933281  11.7079811   4.6350999
  15.6275978  12.3206139   5.0074110  15.2869854  11.5777025   3.7334208
  28.1717396  50.6851730  27.6881084  28.1902485  50.8271561  26.7416801
  29.0884781  50.7440300  27.9571037  76.0522308   2.4676754  55.1704979
  75.8695526   3.3834436  55.3808022  76.1128540   2.0339589  56.0216446
  46.8060303  35.8152580  70.8922195  47.0544472  35.0532913  71.4156036
  47.6204872  36.0942993  70.4738541  28.7026443  63.2804565  30.0579395
  28.3372097  63.2531090  30.9422150  27.9574966  63.4968185  29.4974270
  17.2671566  38.5262260  12.6118317  17.1802330  39.0354881  11.8060246
  17.0200596  37.6362648  12.3605461  80.2190704  15.5596218  56.6040802
  79.8494415  15.7087116  57.4743538  79.7844543  16.2041969  56.0456276
  71.9403839  39.8890762  60.9436340  71.0822144  39.4918861  60.7952614
  72.5242310  39.4305344  60.3394051  31.4312725  71.4036484  81.5698853
  30.9302845  71.3348312  80.7571716  30.8865852  70.9669113  82.2247162
   6.1183553  21.1889381  12.3893728   5.5256696  21.8532734  12.0377855
   6.5730677  20.8430576  11.6213655  59.5329857  23.2495651  16.3573952
  59.6787605  24.1949177  16.3215122  59.6749458  22.9510632  15.4590759
   0.4210668  15.4823227   3.0680189  -0.2391529  15.1012192   3.6468992
   0.7550772  16.2384243   3.5506971   3.9541779  20.1077404  61.1813316
   4.3368187  20.9068184  61.5436745   3.0096586  20.2292995  61.2779655
  66.2077026  69.8078537  65.4620667  66.2273941  69.3315735  64.6320038
  66.1770248  70.7302780  65.2082520  44.8475494  46.4614792  25.9958515
  43.9976616  46.6045036  26.4123516  44.6949005  46.6486855  25.0696316
  70.0272827  46.2950401  85.4885406  70.5863953  46.9613762  85.8880768
  69.2387390  46.2873268  86.0310974  80.0247726  34.0110321  82.1787109
  79.8977890  34.3635216  83.0595398  79.5931778  34.6427040  81.6034317
  30.2180767  44.9005394  33.7889671  30.7016296  45.5173378  34.3384819
  30.8867302  44.3031502  33.4539070  63.5700607  26.1767635  77.3847504
  63.3962288  27.1130981  77.4811478  62.7263412  25.7577934  77.5545731
  15.2847719  67.7650909  27.3960056  14.9847603  68.0075607  26.5199738
  14.8806572  68.4113846  27.9749908  61.3765640  45.5773392  41.1835136
  61.3929710  45.0053444  41.9508362  61.8407478  46.3664169  41.4630203
   1.6891595  56.5308342  35.1792259   2.5620048  56.9199791  35.2334251
   1.3415672  56.5974617  36.0685921  13.2244310  13.1988201  26.2108135
  13.7864685  12.4242086  26.1928444  13.8317499  13.9366989  26.1566792
  51.3519821  70.8583603  30.5602875  52.1548462  70.4321060  30.8601933
  51.4888229  71.7867432  30.7490253  77.0103531   5.8266153  21.8143749
  77.6151199   6.5623364  21.7184792  76.2093582   6.1165271  21.3778095
   0.9301946  52.3140755  42.4721069   0.9083494  51.3615761  42.3799095
   0.0092564  52.5721207  42.5110703  81.3265610  61.6926956  19.9782219
  80.7500763  62.4515610  19.8886433  82.0053558  61.8281937  19.3170795
  24.2697754  21.2451744   9.3928633  23.6033916  21.7067833   8.8838615
  25.0991726  21.5003929   8.9888878  84.2063217  40.8094673  12.4899588
  84.1017227  40.9292068  13.4338627  84.6152496  39.9485359  12.4016018
   8.5439034  31.6197338  24.1264076   8.1744070  32.0107079  24.9181423
   9.1011562  30.9106026  24.4470882  45.6444130  58.5946426  81.5172272
  45.1609573  59.3105202  81.1048813  45.9759140  58.9685287  82.3336487
   8.1277447  44.7406158  88.0843658   7.2265425  44.6297798  88.3873138
   8.0474405  45.2388420  87.2710037  42.5803070  32.0208511   8.6749249
  41.6250992  32.0822868   8.6808167  42.7634735  31.1765137   8.2628851
  47.5878525  33.1984215  66.7830811  47.6993980  32.2571144  66.9162445
  46.6940613  33.2893333  66.4527664  34.3847389  51.2366219  85.5225677
  33.9881020  51.8588333  86.1322937  35.0979805  50.8358803  86.0194855
  83.2861710  71.2626877  11.4925699  83.4300613  71.6198502  12.3689051
  84.0379715  70.6899490  11.3409395  17.7065144  64.1432114  65.1422729
  16.8787212  64.6116104  65.0346222  17.6941929  63.4745941  64.4574127
  40.3418884  35.1147118  84.9418793  39.9101219  34.2605476  84.9565048
  40.7064171  35.2139130  85.8213730  19.9756260   7.7169304  79.3430252
  19.0221767   7.7823114  79.3967896  20.2945004   8.5168371  79.7610016
  66.3234634  11.3236933  69.6029510  65.6010818  11.9239988  69.7874069
  66.1802368  11.0475864  68.6977005  66.9869919  27.2153034   7.5238209
  66.0631027  27.4408226   7.4152064  67.4577789  28.0159492   7.2923956
  11.7616234  59.3948936  52.8238754  11.1723900  60.0402985  52.4333763
  11.9460850  58.7790108  52.1147232  72.1288452   7.7485576  51.8062897
  71.3973083   7.4645934  51.2581482  72.6485062   8.3160858  51.2369995
  27.8659496  52.4130630   0.6070642  27.4664497  52.6833420   1.4338534
  27.3815823  52.8963928  -0.0622720  37.9302216  65.0302505   3.4154584
  37.7482834  64.1578751   3.7648709  38.6323624  65.3690567   3.9708295
  22.1796913  53.1909142  54.2844124  22.4508572  53.5317383  55.1367836
  21.7886105  53.9426689  53.8392677  60.5384216  21.0995998   2.4464223
  59.6126862  21.2636452   2.6262410  60.5675850  20.8898811   1.5129348
  19.8413334  17.2755280  77.8605652  20.5568237  17.1004677  77.2492905
  19.4952831  16.4100685  78.0784225  83.6800690   7.0979562  65.1725235
  83.9232788   6.3320198  64.6525040  82.7272339   7.1469855  65.0955505
  14.2637396   9.3421125  86.0663147  13.3942528   8.9626226  85.9389954
  14.8523149   8.7582035  85.5879211  87.0106583  12.5581656  87.9456711
  86.2707291  13.1424427  88.1110840  86.6096497  11.7051687  87.7788773
  40.3718605  27.0192566  66.5049973  39.9288139  26.9742088  67.3522949
  40.3712997  26.1167259  66.1861420  69.8226242   1.7390683  85.9509659
  69.7038879   0.7894763  85.9307480  70.3425751   1.9320946  85.1708221
  70.1103058  56.5896149  43.3094711  71.0058594  56.4200592  43.0171432
  69.8895493  57.4380913  42.9252968  37.5363503  71.4031067  32.4063225
  36.6642685  71.0094452  32.3791733  37.4829521  72.0556183  33.1046104
  74.2196655   5.7490082  46.1117439  74.7234802   5.0423026  45.7080536
  73.4127884   5.7913480  45.5985298  69.5067902  54.4110489  26.0473995
  68.9178391  54.8811302  26.6376495  69.5001602  54.9271965  25.2413082
  33.3614235  61.6726418  34.8704033  32.4998970  62.0262032  35.0917587
  33.8945961  62.4439392  34.6778793  72.4761353  18.8323517  74.0919189
  71.5692215  19.1308365  74.0237198  72.9969330  19.6333485  74.0335999
  53.2640152   2.3316493  84.6596680  53.4980927   3.2152748  84.9436493
  52.4235954   2.1584990  85.0838699  42.4310265  49.5742836  32.1731606
  42.4477997  50.4607887  32.5338020  43.3399239  49.2782097  32.2229767
  38.5601807  71.3700638  77.2314911  38.7100410  72.2343063  77.6147232
  39.4285889  71.0762711  76.9562149  72.5915680  48.4118576  29.7568588
  72.7612610  48.1884880  28.8416843  73.1516647  47.8176155  30.2562618
  83.8567429  12.3870831  84.9309616  83.2867432  12.5837555  85.6743698
  84.1273499  13.2447252  84.6031647   4.1830015   7.8609920  88.9973373
   4.8826709   8.4733744  88.7699966   3.7404788   7.6840463  88.1672134
  67.4777222  34.7560501  86.7373505  67.9507751  34.2961693  87.4308624
  66.8141327  34.1311913  86.4450607  65.2284088  42.9495773  13.2990856
  65.8839569  43.5885468  13.0194387  64.9610062  42.5115051  12.4911118
  42.4274101  52.2085609  33.0508766  42.8763008  52.6409111  33.7773781
  42.2851410  52.9043694  32.4091263  77.6832886  22.6090622  43.7547874
  77.3923035  22.8096714  44.6443443  77.7317123  23.4608574  43.3208122
  69.3680420  35.3434219  18.5278778  69.3933334  36.1287727  17.9812374
  69.7297974  34.6530724  17.9721985  23.4470272  18.4074631  46.8312302
  23.7262383  17.8287106  46.1217804  23.7672443  17.9826317  47.6269760
  40.3031425  30.8005562   5.3867364  39.6898193  30.7687054   6.1209388
  40.3273010  31.7236652   5.1347084  33.7911034  60.3314209   2.0108159
  34.3962097  60.9717903   1.6366469  34.1767349  59.4825096   1.7943211
  52.2573318  49.2637520  25.0067043  51.8025055  49.9475708  25.4983864
  52.7960205  49.7407112  24.3753910  64.8616257  52.8137321  74.3470306
  65.2553406  53.5471230  73.8744278  64.0060272  53.1400566  74.6257553
  77.4911880   1.8426251  52.9293137  78.2390213   1.5506018  53.4505615
  76.8269806   2.0810697  53.5760002  82.8293381  65.8876266  19.0958786
  83.1814270  66.6945038  19.4716682  83.5165405  65.5785446  18.5055847
  37.6578484  10.2528887  11.2337980  38.1875648  10.7651234  10.6228561
  38.1400719   9.4328270  11.3395958  53.3770676  18.3934784  43.1639366
  52.8441772  18.8738022  42.5302620  52.8936615  17.5815849  43.3168411
  46.5595016   6.6631126  82.2609482  47.0433006   6.6257524  81.4358597
  47.1978111   6.4024019  82.9248962  85.9008102   3.8179071   3.8542814
  86.6139908   4.4458313   3.9696827  86.3325043   2.9636025   3.8482397
  46.9741364  70.6343002   3.8954225  46.7633362  70.0607224   4.6321697
  47.8843613  70.8904495   4.0441017  12.3161449   3.5001507   1.8079280
  12.2800655   4.1731968   1.1282669  11.4025526   3.2502942   1.9463176
  10.5531425  54.6383247  22.7135906   9.8280306  54.0861511  22.4211082
  10.1297989  55.3856201  23.1361618  31.8011532   5.0232105   8.6072283
  31.1910076   4.4226508   8.1791134  32.5548592   4.4781408   8.8331881
  50.3101120  65.9107437  63.4089546  50.6147308  65.0147018  63.5522881
  49.8235092  65.8694916  62.5856972  63.3238716  48.8236046  24.7839813
  63.3492851  48.1891022  24.0677433  62.4304199  48.7667618  25.1227245
  20.7050877   3.4164817  73.6811066  20.5110455   2.7761416  74.3656082
  21.6175613   3.6617551  73.8342896  48.0944977   0.7509649  76.5504913
  47.2711906   0.5225422  76.9820328  48.5215988  -0.0902645  76.3887939
  73.1383286  69.6333618  65.9194717  72.9666367  69.8270035  66.8410187
  73.1428452  70.4896011  65.4916153   1.7773641   5.6184421  18.8463058
   1.2102363   5.8804245  19.5715408   1.1730065   5.3414168  18.1576557
  36.8089943  44.4111862  64.6903687  36.4015465  43.6203651  64.3370743
  36.2383804  45.1237259  64.4024124  22.0769253   1.7714105  69.0188065
  21.7870140   2.5362720  69.5159683  22.8845673   2.0558770  68.5909882
   7.7776942  56.5693741  44.7779427   7.3901024  55.8145905  44.3348770
   7.9517179  57.1960258  44.0756226  12.5426283  10.5544195  12.1119194
  11.7240152  10.4449463  11.6280584  12.4598436   9.9626226  12.8596859
  53.2949295   6.3228216  65.2642975  53.6260910   5.4571505  65.5034256
  52.4705887   6.4047775  65.7438583  82.0466156  16.2831917  81.1010208
  81.2952423  15.6960106  81.1840286  81.8081436  17.0520134  81.6189728
  57.1986351  42.3437881  18.2568569  56.3982849  42.3334160  18.7818012
  57.8383675  41.8674393  18.7860680   4.1591387  51.7646484  61.5959778
   5.0713563  51.7605438  61.3060226   3.7263932  51.1216125  61.0343056
  57.1905022   7.0467563  88.2695541  57.0957031   7.3010545  87.3516312
  57.5453491   6.1583724  88.2365494  58.8283997  12.8382654  13.7339802
  58.2584763  13.4882240  13.3229151  58.4602737  12.7161999  14.6090889
  26.3936100  43.4263458  55.6799736  26.3827324  43.7046585  56.5957565
  26.7723675  44.1683693  55.2086220  55.5620384  18.5986252  48.0855370
  55.4351997  18.8585606  47.1730804  56.4705467  18.8315334  48.2768555
  19.2598591  26.0608788  88.3955765  19.5679054  26.7312012  89.0055008
  18.5999374  26.5059052  87.8638916   9.6069670  47.6012993  53.4856453
  10.2395220  47.3416786  52.8157921  10.1256523  47.6832352  54.2859497
  80.9228745   4.0790057  17.5984268  81.3360519   3.2218542  17.7024078
  81.5880585   4.6146779  17.1662006  46.2396393  47.3150520  30.0778084
  45.7400970  46.5436592  30.3454762  46.2196732  47.8905144  30.8424492
  36.7936668  50.9458809  22.5341587  37.3834076  51.0061111  23.2856941
  36.3906097  50.0814171  22.6146660   6.4573283  67.4234543  57.1280518
   5.5807252  67.6468887  56.8151932   6.9352112  68.2527161  57.1140671
  75.9426575  18.9010677  38.7403107  75.6747055  18.0256882  39.0198479
  75.5815811  19.4861622  39.4062805  31.2457447  51.3725433  43.9217377
  31.5941086  50.7398872  43.2935486  31.8158913  51.2898521  44.6861496
  48.7385941  70.9184952  85.3743820  48.3779259  70.0936127  85.0492325
  47.9870186  71.3769226  85.7501526  74.9722595  52.5792198  16.9592514
  75.8454819  52.2240143  17.1252193  74.5944061  51.9904785  16.3059216
   4.8030581  32.7843475  80.2763443   5.2125134  33.6070175  80.5442734
   5.3682961  32.4513550  79.5793076  50.2583885   7.6126781  59.2580757
  50.7896004   8.3872814  59.4425659  50.5277214   7.3409824  58.3806496
  81.0451813  27.0402393  57.7392349  80.8548660  27.9684544  57.6034813
  81.5523300  27.0159035  58.5506821  14.1657009   6.9991531  66.0430756
  13.2710876   6.6791558  66.1592636  14.5011492   6.5059619  65.2944260
  35.1734886  49.8564110  14.6573963  34.7265816  49.6378860  13.8396235
  34.5003700  49.7606888  15.3311768   2.1740408  59.1565170   9.2874174
   1.2505610  59.3712425   9.1558485   2.5790417  59.9859467   9.5408926
   9.6523485  19.8726406  55.5253525   9.1137362  20.6577721  55.6238365
   9.1776333  19.1946583  56.0061989  26.3109322  46.9699440  88.5791245
  25.9868832  46.8009453  89.4638062  26.7031612  47.8415985  88.6301575
  29.0234241  68.9693527  35.6889801  29.5267715  69.3304291  34.9592552
  28.2575951  69.5395355  35.7570343  27.3505859  70.8843994  36.5359039
  26.7005577  71.3009338  37.1017609  28.1346817  71.4246216  36.6338120
  86.0046616  30.8068714  51.4465408  86.1348190  30.4532166  52.3264351
  86.6589355  30.3598881  50.9095459  49.2219467   5.2236896  24.2077694
  48.5822372   5.8801174  23.9318924  49.1056099   5.1594481  25.1556988
  29.0126705  18.4392338  86.3514099  28.3724861  17.8990173  85.8882065
  28.8611641  19.3252583  86.0224152  18.4433861  23.7563534  57.2858315
  17.8474655  24.4674587  57.5212860  19.2758045  23.9968472  57.6926155
  60.6880455  19.4679947  69.0557861  59.7493744  19.3222275  69.1735916
  61.0419006  18.6011868  68.8566360  24.0984955  38.7232742  62.1068039
  24.3668156  39.2505875  61.3543587  24.8075676  38.8320045  62.7405434
   5.8890595  41.4205666  84.8366318   6.5146551  41.6883125  84.1634445
   6.1330438  41.9326935  85.6076202  81.6268082  28.4066105  45.0910225
  82.5802994  28.4656487  45.1510162  81.4682846  27.8792191  44.3081055
  39.1079674  47.8217773  32.4100723  39.8310890  47.3299599  32.7992249
  38.9652023  47.4054451  31.5600643  42.5339394  24.2814560  44.5473633
  42.2247124  24.6832428  43.7354622  42.5090294  24.9903736  45.1900482
  51.3162918  60.2857399  83.5218658  50.6083565  60.9298782  83.5097122
  52.0561676  60.7503586  83.9129486  28.0569420   0.8648893  48.3409462
  28.2766209   1.4064722  47.5828819  28.8920135   0.7298328  48.7888794
  34.5895920   9.4545450  83.5531998  35.1989594   8.7460051  83.3461380
  34.9800491  10.2310896  83.1522598  17.3742867  52.2508240  36.6903038
  17.6932468  53.1386757  36.5283928  18.1681690  51.7273064  36.7994461
  33.0191231  47.6465340  24.1924438  33.5797539  46.9107628  24.4385433
  33.5833168  48.4154320  24.2743988  19.8548660  29.3572273  17.8223076
  19.6839962  30.1470680  17.3092918  19.1697884  29.3529568  18.4908009
  73.1611633  21.7504044  86.0686417  73.0537567  22.4326191  85.4058609
  74.0685730  21.8400993  86.3598251  27.0259647   6.3879004  85.4110641
  27.0167160   7.2941742  85.7189865  27.9548817   6.1740971  85.3236923
  57.2177277  63.7482643  81.6430359  56.8065910  64.6106796  81.7016983
  57.4042511  63.6347427  80.7110748   4.9548359  56.5324135  85.9031601
   4.7527895  56.1832962  85.0351028   4.8882742  55.7766075  86.4867325
  67.3327942  19.1224823  60.9507828  66.9202042  18.9459438  60.1053009
  68.2618103  19.2290916  60.7463303   1.4397506  44.6024246  34.9423790
   1.4738913  44.1400490  35.7798042   1.5314468  43.9133148  34.2843895
  28.8289680  55.4913750  73.2305984  28.2274342  55.4573402  72.4868088
  28.3527546  55.9804955  73.9015808  29.5277576  71.0915070  44.9421120
  29.4496861  71.7156601  44.2206078  29.9456768  71.5889969  45.6450157
  83.7647934  35.9877586  83.0521851  84.6651688  36.2124634  82.8175125
  83.3123932  35.9036407  82.2128448  70.3545380  43.5860825  82.2426605
  69.7537384  43.6587868  82.9842682  71.0722733  44.1821938  82.4565430
  41.9315147  31.4034843  87.8178482  41.8963165  30.4634418  87.6408920
  42.4397202  31.7650223  87.0917282  73.9407959  48.1586075  82.0855484
  74.0550232  49.0119019  82.5039673  74.2211990  48.2960777  81.1807251
   0.8900174  33.1118202  78.8306885   1.2315363  32.3338699  79.2715836
   0.6091082  33.6866837  79.5426331  63.2080002   9.1306591  43.8706703
  63.3900566   8.2215929  44.1087570  62.9057693   9.0847626  42.9636002
  40.9299736  66.1758728  47.8601532  39.9745026  66.1497726  47.9114113
  41.1852226  65.2702408  47.6843224  37.0096092  70.7862778  11.9685068
  37.5619507  70.0333710  12.1789465  36.7604485  70.6523972  11.0540524
  74.5660858  14.0984507   3.0876036  74.2490692  13.6442747   2.3069260
  75.5198212  14.0649261   3.0134857  20.8988495  26.0390587   5.9362769
  20.6750622  25.2796745   5.3982372  20.3429642  25.9558239   6.7110648
  79.0134201  14.7331743  30.5977612  78.5413513  14.7176676  29.7652073
  78.4062729  14.3400440  31.2247066  48.0324364  69.0600433  17.1480312
  47.3439522  69.4982605  16.6478462  47.8759308  69.3254089  18.0542984
  54.4918175  44.7722359  35.4316177  54.3455658  44.4812775  34.5315132
  55.2512474  45.3521843  35.3754578  51.3835678  35.4359169  41.8186340
  50.5591278  35.3764153  41.3359489  51.2722130  36.1956558  42.3901482
   6.1526575  50.3068504  22.9181633   6.1438522  50.2745667  23.8747787
   5.3750076  49.8148117  22.6547432   6.7465401  54.7683525  11.1217527
   6.4095583  54.7050781  12.0154371   7.4938655  55.3626595  11.1890898
   2.6561651  22.2672997  87.1508255   2.3840077  22.5792255  88.0138855
   2.0819337  22.7266808  86.5380783  27.3484573  62.0984077  23.8849030
  28.0365391  61.7206459  23.3371143  27.7222538  62.9184532  24.2074394
  31.0664539  57.2986259  31.7882023  31.0549068  56.7316284  31.0170937
  31.5448360  58.0779572  31.5053082  36.7567406  27.7456608  70.6532516
  36.4008942  28.2683411  71.3718719  37.4321709  28.3014164  70.2644653
  11.3139801  57.2212906  60.9823074  10.4462652  57.3705864  60.6067924
  11.5667086  56.3545685  60.6642570  76.9518967  52.7620316  32.0927238
  76.3715134  53.2968140  31.5510654  77.8070297  52.8314781  31.6682739
  23.0980740  27.5089645  76.7442245  22.3313675  27.9649391  76.3971252
  23.2943039  26.8382206  76.0901413  44.5590973  19.9459438  25.4976692
  44.5298805  20.8536682  25.1953201  44.2432823  19.4349804  24.7524128
  52.6199150  50.1552238  13.0146360  53.5648727  50.2006264  13.1603279
  52.2713013  49.7746429  13.8207741  85.5595551  36.9418983  71.1609879
  86.0859146  37.7410698  71.1833649  85.3257751  36.7833939  72.0755692
   9.9307833  39.8299904   9.8406973   9.7541809  40.3926697   9.0867491
   9.0818768  39.4430313  10.0548315  23.5624027  15.7267246  51.5745392
  22.8707809  16.1712914  52.0646973  23.8735867  15.0421581  52.1667938
  27.9460430  38.4416237  73.7944183  27.7901688  37.8607368  74.5390701
  28.3334503  37.8760109  73.1264114  59.0561295  48.8885498   8.7476168
  59.9904785  49.0380478   8.8920984  58.7715759  49.6384125   8.2251530
   1.5060079  12.4349556  82.0816116   1.2358520  13.3416204  81.9359894
   1.8901087  12.1626854  81.2481995  63.3746567  47.9553947  66.6774673
  62.4495583  48.1975632  66.7196655  63.3738251  47.0680809  66.3184280
  83.1167145  20.6780987  32.6235008  83.2670212  19.9530983  32.0168610
  83.8016663  20.5825863  33.2852783  13.5597820  64.5275497  89.0123062
  13.2821798  65.4383240  89.1106415  13.8742313  64.4690781  88.1101227
  15.1418447  36.2012711  80.1237335  15.4422531  35.6553268  80.8503265
  14.1870394  36.1442032  80.1600876  31.1598072  52.0090065  15.5069685
  31.1100407  51.1236305  15.8673344  31.9674358  52.3709641  15.8716002
  14.5473967  47.2672806  33.9947281  15.4182405  47.5963707  34.2173538
  14.7096224  46.5744858  33.3544540  82.3229904  65.0579834  64.5647964
  82.5826187  65.9456711  64.8114471  81.3908005  65.0132523  64.7775345
   0.8852119  66.5378113  17.2013645   1.2258815  66.4311371  16.3132210
   0.3568387  67.3349533  17.1610870  81.5619431  64.2500763  43.6665573
  81.2342682  64.5996170  44.4952202  82.2042999  63.5883865  43.9230080
  85.8658676  45.6262817  16.6991196  85.4742966  45.4194374  17.5477219
  85.6771393  46.5555420  16.5683765  70.5195007  40.7239876  22.9710941
  70.3156509  40.2006264  22.1959972  71.4461746  40.5526428  23.1388607
  33.4941444  60.3930168  54.1471939  34.2673874  60.7542686  54.5805855
  33.4569130  60.8476410  53.3056717  25.8359070  66.9633331  43.7508965
  26.3450985  67.7374878  43.9909897  26.3259945  66.2297058  44.1221466
  32.3332901  34.3474770  73.9694977  32.0432816  34.7165985  73.1353073
  33.2766495  34.5086479  73.9876862  48.9330406  36.3397827  18.8565426
  48.7348328  35.8209152  19.6361065  49.8879852  36.4050179  18.8486748
  37.2552605  63.9095078  30.1295872  37.6988602  63.9753380  29.2839413
  37.2844048  64.7977448  30.4851303  39.8925629  62.1943512  57.4225273
  39.6140938  62.9065361  57.9982681  39.6645317  61.3969460  57.9004135
  11.9433336  48.5607872  82.1312180  11.1311111  48.4326744  81.6412048
  12.3976488  47.7208290  82.0656433  22.9603786  30.5939598  71.5523529
  22.3851852  31.3590641  71.5530167  23.1183319  30.4122581  72.4787750
  79.5834503  12.5014153  13.2467928  78.8919601  11.8458223  13.1558533
  80.2488632  12.0744200  13.7863607   3.5258317   4.6200647  51.1876640
   2.9856975   5.3971014  51.0437851   3.1756730   3.9690228  50.5795784
  71.9941483  24.4114361  64.1139984  71.5078430  23.7287788  63.6517067
  72.3125153  23.9825611  64.9083176  70.8844376  34.7994995   0.3318099
  70.6615219  35.5210304  -0.2563473  70.6005859  35.0982933   1.1957426
  54.0994453  48.2689514  26.7512131  54.3801346  49.1594200  26.9621944
  53.2929916  48.3847427  26.2487640  68.1624985   5.0645838  42.1430702
  67.3961258   4.5601602  42.4159355  68.9093399   4.5495152  42.4483032
  63.9682426  25.2550907  32.1449127  63.8606987  24.5496788  32.7829247
  63.9347992  26.0569763  32.6665382  13.0347891  32.7838058  30.3064213
  13.7236719  32.2096176  29.9717846  13.2524366  32.9056244  31.2305527
  70.9640045  65.5202103   3.0497606  71.1723709  65.1451645   3.9054215
  71.6990738  66.1025848   2.8580871  69.6674500  69.2817917  42.5479012
  69.5139008  68.3663864  42.7817612  69.3519287  69.3550568  41.6471748
  11.9183664  30.8316479  68.5444717  11.5147419  30.1379948  69.0661621
  12.5403242  30.3745136  67.9784012  26.0390053  12.6800671  16.2057762
  25.1181698  12.9118795  16.0851250  26.0744858  12.2855482  17.0771694
  71.0862656  25.5515652  86.8806763  71.9856720  25.7567062  86.6252823
  70.6351242  26.3956795  86.8676071  47.0061989  27.5550900  30.3993416
  46.6511421  27.4540749  29.5161858  47.9540520  27.5979443  30.2729664
  14.3777933  59.2980423  46.5804939  15.1323853  59.1425743  47.1485176
  14.7123079  59.1591110  45.6944733  52.5571136  63.3085632  10.7716084
  53.0163651  63.3749733  11.6088104  52.2217751  62.4122238  10.7528229
  85.2780838  63.5199203  71.2710037  84.7706223  63.8269653  72.0222931
  84.7561188  63.7733345  70.5097122  34.6523476  35.4797707  19.5820770
  33.9332085  34.8609543  19.4550304  35.3760567  35.1135712  19.0737705
  59.3188362  57.8579750  77.7135773  59.1475639  58.4494514  78.4464188
  59.9666595  58.3186378  77.1803360  78.8618011  23.3870773  13.4914436
  79.2649078  23.6681709  12.6700287  77.9376144  23.6171989  13.3957567
  78.8980026  64.4586334  40.2697144  79.0437775  63.6757774  39.7385712
  79.2054596  64.2161407  41.1431541  65.8918152  54.3710594  62.3355331
  65.4782181  54.1836777  63.1781845  66.2286453  53.5249977  62.0406494
  56.2343750  43.3336601  32.9027328  56.6677780  42.5778351  32.5063400
  55.3341789  43.2898979  32.5802956   2.1665654  29.2768459  63.4622955
   2.7179062  30.0592060  63.4494019   2.2929950  28.8805027  62.6002312
  18.9015198  53.6831131  40.0128059  19.2851639  54.4180260  40.4912910
  19.5792046  53.0072899  40.0283127  54.3455505  39.3599625  25.5341396
  54.6703987  39.9283943  24.8358612  53.4940643  39.7298050  25.7674103
   6.4881601   1.6471255  72.5168991   5.5448847   1.7491176  72.6436310
   6.6482792   0.7130455  72.6513901  14.2249260  15.5708103  12.5548859
  13.8448219  14.6989603  12.4470387  13.5352087  16.0821209  12.9780664
   4.1012311  33.1602631  88.5578156   4.3634562  32.5065384  87.9096527
   3.2648706  33.4956284  88.2349243   4.4416728  70.4707565  23.8138046
   4.4955525  70.2972717  24.7536106   4.6323400  69.6273575  23.4032440
  28.2533627  44.4098396  12.5808468  27.6189346  43.6962395  12.6479683
  28.2975521  44.6037560  11.6445379  58.9824219  42.5313988  14.8760214
  59.8156319  42.6239548  14.4140406  59.2007637  42.6805954  15.7959661
  79.3686829   8.9909973  26.5627766  79.4747849   8.1422520  26.9924335
  79.0471878   8.7774944  25.6868267  13.7403145  48.4667587  55.0140991
  13.5910072  48.9962959  54.2308197  14.6348772  48.6794701  55.2800751
  72.2589417  29.7124157  58.0141335  71.4073029  30.1492920  58.0050011
  72.8511276  30.3331718  57.5896225  76.5684052  39.6780510  46.3227997
  76.5792007  38.8499565  45.8428230  76.8102570  40.3359070  45.6709099
  76.4764252  47.9600983  69.1169357  75.9485016  47.4986839  69.7685699
  76.5195236  47.3582497  68.3738632  74.6957779  24.7417336  69.0586395
  75.4494476  24.2841930  68.6859894  75.0196152  25.6224823  69.2474289
  46.7638092  61.7943192  42.7053795  47.1546364  62.0420418  43.5433044
  47.2660522  62.2827377  42.0531273  85.5590668  48.3615837  29.6152992
  86.5002747  48.1873398  29.6143055  85.2084427  47.7795143  30.2894592
  17.8320637  58.0891800  11.8641357  18.0794029  58.4873734  11.0295715
  17.0500679  58.5694656  12.1362410  17.4351482  12.2832012  68.2829208
  17.5021763  13.2011147  68.0199127  16.9674873  11.8610973  67.5622635
  48.4606819  71.1595764   8.8544168  48.8258858  71.6419296   9.5961676
  48.6183395  70.2394714   9.0660477  75.6925430  36.0435562  13.6132336
  75.6989517  36.3190498  14.5299091  75.7154770  35.0873528  13.6503487
  24.7738514  13.5477629  12.5414867  24.5632591  13.3758421  11.6237030
  25.5022488  12.9575644  12.7347059  44.9443016  45.8936615  43.3130493
  45.3675270  45.4725761  44.0612450  44.5049934  45.1786003  42.8526917
  50.6669540  52.6432457  39.8157349  50.0436096  52.7479782  40.5345573
  51.0678787  51.7876968  39.9691238  22.0625801  43.4816742  43.3391266
  21.4044456  44.0544052  43.7329178  22.6896534  44.0806274  42.9338303
  81.5869217  58.4037170  77.5954361  80.9915237  58.6136932  78.3149109
  81.1044464  57.7723274  77.0617752  47.2951393   3.8048413  34.2082138
  47.6822433   3.7001891  35.0773697  47.1940346   2.9107103  33.8818130
  54.6546593   2.9526689  12.1048031  54.1286774   2.4401517  12.7187271
  54.2596359   2.7813520  11.2499123  80.6766663  41.6433716  42.1139565
  79.7922058  41.2841110  42.0440140  80.7966461  42.1433220  41.3065605
  15.6006269  53.4541283  30.0541573  16.2239799  53.7204514  30.7299786
  15.3147593  54.2757378  29.6548214  66.0201645  59.4207687  68.0362244
  66.3378906  59.4026337  67.1334763  65.9217377  58.4988251  68.2740631
   3.7297528  62.9135590  76.6312637   3.0279162  62.5090218  76.1213531
   3.8190134  62.3534775  77.4023514  54.4556885  20.6593647  40.2808418
  54.1527328  21.5492744  40.4611588  53.6632614  20.1239147  40.3206253
  20.0977783  59.7471313  63.3711395  20.8724117  60.1320763  63.7810097
  20.4480724  59.1594505  62.7016945   5.7985101  69.3469315  36.0154495
   6.1700692  69.2500534  36.8922577   6.0049748  70.2476959  35.7660065
  59.0476265  64.7735214  85.2852859  59.0784073  63.9410973  85.7568283
  59.1460075  64.5310059  84.3645554  22.4773388  32.2585907  83.3311462
  21.7462311  31.8043461  83.7499237  22.4230080  32.0020485  82.4105682
  75.8485107  24.7380142  52.4071350  76.4472885  25.1475792  51.7826691
  76.3224335  24.7531834  53.2386360   4.5755610  61.0573158  17.9102631
   5.0329309  60.2452278  17.6921921   4.0090179  61.2229004  17.1567097
  73.1777725  37.2718544  59.8004532  73.4891357  36.7621536  60.5484428
  73.8369293  37.1278992  59.1214714  77.4735184  70.3139267  19.8262806
  76.7453918  70.5471191  20.4022026  77.7884750  71.1518021  19.4871521
  62.5320282  50.6279488  53.9477463  62.0506859  51.3878403  53.6204796
  63.2755814  51.0011177  54.4211388  55.4862175  64.6681595   6.9353285
  55.2381210  64.6552048   7.8597269  56.3270149  65.1253662   6.9193830
  41.9406700  57.5980110  58.7007027  41.6186981  57.1694641  59.4937439
  41.1504059  57.9071846  58.2578392  32.5250969  36.6657944  83.5803604
  31.6453323  36.3841743  83.8312378  32.6201363  37.5332870  83.9736252
  82.4612732  63.7340355  69.8013306  83.0704498  63.6823235  69.0648193
  81.7280655  64.2524109  69.4697723  24.8754711   1.1865656  73.1580276
  24.2428493   0.6811743  72.6475372  24.5565796   1.1295629  74.0587463
  27.4797421  58.3835983  24.6282730  27.9122601  58.6589775  23.8199863
  26.5580635  58.6042328  24.4938850   7.9594979  41.2019920  29.7189083
   7.7587690  41.4504051  30.6212559   8.0026579  40.2459488  29.7376328
  83.9969635  71.2924576  14.6317978  84.5867691  71.6103745  15.3153849
  84.2430954  70.3754272  14.5105429  37.4325600  53.3684654  67.0031891
  37.1634483  53.7901993  67.8192444  38.2864342  53.7530289  66.8050995
  81.9922638  30.4329224   7.7030735  81.5400848  30.6759872   8.5109653
  81.5682449  29.6205902   7.4263792  81.8855896  33.6611214  37.6288452
  81.0566711  33.6754570  37.1503983  82.3739243  34.4088516  37.2843819
  74.2172852  50.5077019  45.4346008  74.2283096  51.0587044  46.2172279
  75.1411667  50.3710213  45.2248688  13.2848120  19.9640255  11.1364088
  12.6764421  20.5703163  10.7138824  12.7759476  19.1631584  11.2625093
  -0.0890845  25.5310535  42.9760513  -0.0213830  24.8837662  43.6779518
   0.3473232  26.3085423  43.3243217  70.7863541  34.1636543  79.9537964
  70.2670517  34.6184616  80.6168976  71.2309723  33.4657516  80.4349289
  25.8697929  41.2476540  75.5901718  25.1024685  40.7571907  75.2953949
  26.5632763  40.9969292  74.9798889  23.1122608  51.1373405   1.1466050
  22.9513168  50.1975746   1.2312685  22.6909618  51.3791428   0.3218195
  84.9556656  38.6451149  52.8025017  84.8899536  37.6908188  52.7674026
  84.1663361  38.9560127  52.3591728  51.9736977  44.6474190  59.7160683
  52.1488724  43.8179512  59.2716293  51.8287811  45.2733765  59.0065575
  82.6000366  12.1366472   7.6803069  82.6897507  11.3724861   8.2497292
  83.4724579  12.5303221   7.6685510  63.2978554  36.5666885  19.3628197
  64.1262131  36.9657440  19.0967350  63.3508301  35.6670685  19.0401516
  28.6292610  44.1925964  35.8705750  27.8345203  44.7238045  35.8212204
  29.1957703  44.5447884  35.1840935  72.8633652   9.7633133  20.6653862
  73.6086578   9.8514910  20.0712528  72.3607788  10.5682945  20.5402832
  69.5857315  46.1126671  80.9868546  68.7899475  46.4614410  81.3884888
  70.2866287  46.3599510  81.5900421  74.5855026  17.4854050  50.7339821
  73.8405609  16.8854046  50.7699738  75.3485870  16.9295635  50.8920097
  43.9751968  62.7222862  44.8961105  43.6031075  62.4225769  44.0666809
  44.6403427  63.3623390  44.6428490  83.9510651  38.7809868  63.2025871
  83.2625046  38.3245735  62.7190514  84.6470108  38.1309509  63.2992516
  15.5389700  62.6380615  71.7994919  14.9472942  61.8892250  71.8729630
  16.1512947  62.3923645  71.1060028  81.1314545  38.7916718  16.0637703
  80.6497269  38.0583382  15.6811504  80.7005844  38.9489899  16.9039097
   8.3899717  47.9601593  27.2247429   9.1154985  48.4011688  26.7827549
   8.3496828  47.0959969  26.8150673  37.8135719  67.6071625  40.4269371
  37.6492996  68.2663879  41.1012344  37.6865349  68.0730820  39.6004906
  73.7965240  26.8262978  49.4906998  73.4350281  27.6825752  49.7194862
  73.6439590  26.2868500  50.2665558  60.9268532  25.1523037  81.1417694
  60.0362549  24.9095173  80.8885422  61.1352959  24.5700092  81.8723221
  52.4829369  67.7090683  64.1378174  51.7636147  67.2457809  63.7086601
  53.2652817  67.2136002  63.8955917  78.0281982  13.2945223  64.6162033
  77.7100906  13.3905058  65.5138779  78.9440384  13.0336695  64.7132416
  46.2285652   0.1918695  86.4522934  45.8807259  -0.6885861  86.3107376
  45.5529747   0.7748440  86.1059494  57.1236153  19.1297817  65.9140625
  56.4787979  18.7579556  65.3122406  57.1669083  20.0559921  65.6763763
  72.1405182  15.7488556   0.7348447  71.9235535  15.6930141  -0.1957685
  71.4628983  15.2316332   1.1702139  86.5476303  67.5983734  49.1691093
  86.9504471  68.4538879  49.3176651  85.6321793  67.7958145  48.9711113
  55.9114151  42.6185532  59.5705605  55.3577728  42.8056679  60.3286514
  55.4164162  42.9550552  58.8235817  45.7087212   8.4016590  84.0794678
  45.1364594   8.9806137  83.5759277  45.9789772   7.7290702  83.4543152
  54.6940918  14.1115665   1.0628564  55.4369240  14.2290487   0.4707164
  55.0923958  13.9130859   1.9103180  57.2982292  26.7045078  88.3500214
  56.6491318  26.9243221  89.0182877  57.1332703  25.7831326  88.1497955
  81.2043991  22.3964329  65.7849655  81.5693893  21.5739594  65.4585342
  81.6458664  22.5387821  66.6222610  31.4236393  15.1176462  11.3387384
  31.6869526  14.4233236  11.9427376  31.2433338  15.8698950  11.9025145
   3.4083357  60.0335464   1.8990134   3.3087122  59.0955849   2.0619204
   3.2973633  60.4391098   2.7589185  13.3472548  14.3892317  72.2698212
  13.0708189  13.9380016  73.0674438  13.7626867  15.1933699  72.5812836
   1.2832270  35.6692848  15.1502323   1.6647683  35.7559204  16.0238190
   2.0280256  35.4728012  14.5819883  55.2615852  54.6634407   0.3504635
  56.1074753  54.3489304   0.6695033  55.4446602  54.9918251  -0.5298094
  73.2064209  65.3840790  78.6065598  73.8469315  65.9457397  78.1700821
  73.0168839  64.6961899  77.9685135  57.7767715  69.5951843  14.2623034
  58.7184868  69.7267685  14.1523561  57.3929558  69.9187317  13.4472980
  41.3819962  30.6669083  19.7082615  40.5435448  30.5498238  20.1549397
  41.2105331  30.4035549  18.8041172  85.3337402  60.9374771  31.9459877
  85.5192032  60.6086197  31.0663929  85.8081207  60.3442421  32.5284538
  36.4177094  19.0962238   0.3116452  37.2644691  19.4694424   0.5564718
  35.9529953  19.8161392  -0.1149603   1.5845401   6.5283089  71.8530350
   1.0269349   5.7892470  72.0961304   2.2486439   6.5639033  72.5414658
  72.4780655  17.3422565  76.3569183  73.0936508  16.6215897  76.2230606
  72.4109192  17.7623024  75.4994278  83.3064728  20.8153381  16.9005947
  82.3809052  21.0473938  16.9761486  83.7415695  21.6369514  16.6728382
  28.3197803  45.9365921  74.2544632  28.4311562  46.0339966  73.3087692
  27.3974533  45.7053986  74.3644485  42.4742126  63.2671776  87.0409317
  41.8095779  62.5960541  87.1961212  42.1649055  64.0285797  87.5316772
  44.8379173  30.3228722  10.3469133  44.6025200  30.8560658  11.1062059
  44.4002609  30.7490749   9.6100016  38.7447205  44.9308662   0.1927307
  38.5593185  45.7533188   0.6459734  38.7476463  45.1643410  -0.7355546
  69.3695831  20.3455505  59.7896423  70.2275543  20.3466949  59.3652458
  69.0674057  21.2512321  59.7213898  27.8360634  33.2996140  23.7492523
  27.1121597  32.6879578  23.8836880  28.5896893  32.8718681  24.1558418
  40.2132683  39.9625969  40.3908119  40.8646851  39.3086815  40.6443558
  40.4629860  40.7496681  40.8749466  83.1925659  45.6369743   0.1428635
  83.0543594  45.8350334   1.0690933  84.1415482  45.5465393   0.0562859
  59.6967773  43.7161674  17.1827393  58.7720871  43.6498909  17.4210339
  59.7908363  44.6017952  16.8319530  68.0232773  17.0175724  15.2522364
  67.9818726  16.3050976  15.8901224  67.7264786  17.7889214  15.7351065
  45.3306160  18.2008400  82.7930145  45.7079315  17.4582081  82.3214569
  45.3864861  18.9300613  82.1754837  61.4316406  17.1963501  14.8355970
  62.0798454  17.2788353  15.5350657  61.5596123  16.3115444  14.4935827
   1.9701512  54.2264061  28.4320049   1.1479949  54.2986450  28.9168472
   2.6500394  54.3647041  29.0914421  85.1672668  29.8390827  86.4487534
  85.2467651  28.8875618  86.5159760  85.7855682  30.1774426  87.0963974
  76.2168198  64.6344757  39.6760368  76.2932358  65.0146790  38.8009148
  77.1212540  64.4906540  39.9545021  56.2396278  19.0918407  38.2576599
  55.4462166  19.5133610  37.9274368  56.6399384  19.7481861  38.8279152
  49.8681946  69.6694031  36.9008713  50.3450737  70.4065323  37.2822647
  49.0201187  70.0362854  36.6510773  16.8649235  15.3529949  80.9531631
  16.2264767  15.1908216  81.6476517  17.6893368  15.5027905  81.4159164
  63.6391220  33.6770821  54.0686302  64.2310104  33.1626205  54.6174736
  63.9686546  33.5523643  53.1786385  77.8910751   1.2009786  14.1661186
  77.0858307   0.7478887  13.9160805  78.5928802   0.6567895  13.8089685
  80.7688141  70.9678268  63.7829323  81.6465912  70.9548721  63.4013939
  80.7729797  70.2514114  64.4177170   6.2569447  46.1418152  25.0319004
   6.6667767  46.1477280  24.1668949   5.7288494  46.9398994  25.0521889
  18.2139072  55.3810043  25.5891457  18.6462383  54.5593491  25.8219643
  18.4616470  55.5319099  24.6769581  74.4125061  51.7025375   5.5013323
  74.5333786  52.6357384   5.3259425  73.4861298  51.6193619   5.7274890
  28.0070724   8.3104792   3.1343594  27.1083565   8.6048479   3.2823005
  28.4255085   8.3778200   3.9926183  62.1320038  34.1801186  15.7625341
  61.9053955  34.0338593  16.6809502  63.0771866  34.3311348  15.7701721
  49.4756088  52.1701431  76.3141556  50.3370667  52.4414711  76.6311722
  48.8593521  52.7299919  76.7864227   4.4965615  68.0146942  19.0052567
   4.1436601  68.4364166  18.2217770   5.0925193  67.3453064  18.6691227
   1.4296794  70.1542053  76.3785400   1.7290092  69.4042664  75.8645096
   1.6990612  69.9531250  77.2747726  10.8446465   3.0975916  29.7278442
  10.7973566   3.4386179  28.8347054   9.9397621   2.8763065  29.9479523
  19.3750935  54.1869659  31.0679722  19.0286541  54.7070389  30.3428955
  18.5978832  53.8555641  31.5178051   9.4067240  60.6360207  77.1439743
  10.1407299  60.1466026  77.5153732   9.5230598  60.5602303  76.1968918
  75.3233414  68.7088242  41.9490318  75.7829285  69.5235901  42.1519241
  75.1390991  68.3186035  42.8034401  47.2937775  51.2539902   9.6377974
  47.9231148  51.9447479   9.8452148  47.7397461  50.4427223   9.8810902
  72.4670792  24.0000496  60.2342072  72.2439041  23.7647610  59.3336182
  72.3041382  23.2023525  60.7375603  39.0146217  11.7560530   9.0208540
  39.0245438  11.6562033   8.0689278  39.3341827  12.6456337   9.1717129
  17.7948093   5.5317273   3.7625670  17.3289528   4.8098030   3.3406258
  18.6001110   5.1352949   4.0950770  39.8925323   7.5377164  37.8617744
  38.9816475   7.5748272  37.5699806  40.1401176   8.4532642  37.9910278
  71.7361679  50.9358177  59.9485474  71.7076416  51.2599411  59.0483475
  70.8217087  50.9335022  60.2313690  69.0323715   0.5573474  45.3077507
  69.8455734   0.8464165  45.7217293  68.7854080   1.2819428  44.7331200
  29.6835518  26.3693275  12.2400646  30.0397987  25.8565254  12.9655666
  29.4439144  27.2079258  12.6344748   7.3168502   9.6784000   1.7156310
   7.7022920   9.8902702   2.5657942   7.5898962  10.3955402   1.1434530
  82.1398468   8.9408693  57.4473839  81.3158417   9.2252607  57.0519447
  82.4152985   8.1939049  56.9159698  51.6314354  37.9768486  72.5352554
  51.8619995  37.3748322  73.2428207  51.3692589  37.4072456  71.8120346
  36.4908981  34.5272408  66.9320679  36.2421112  34.1380768  67.7704544
  36.5678558  33.7824593  66.3357391   8.3799610  50.8205376  73.7370605
   8.8430967  50.0938454  74.1537857   8.9974394  51.5509834  73.7744293
  75.1794586  28.4244175  18.2487354  75.9393997  28.9843941  18.4073238
  75.4583588  27.8349571  17.5480328  68.1553345   5.9468083  59.6322327
  67.3461151   5.4607077  59.7906723  68.7962341   5.5420432  60.2167397
  79.6279526  57.5979729  33.4836922  79.6271820  58.1986656  34.2289429
  79.8621674  58.1459503  32.7346268  78.3062363   5.8134470  40.8400269
  78.5185318   6.6112194  40.3555450  78.1160812   5.1649818  40.1621132
  69.0511627  50.5468636  39.2097168  69.2057343  49.6845856  39.5954857
  68.1990738  50.8141594  39.5542946  24.2078648  53.7710419  65.6545258
  23.9265976  54.4984474  66.2095032  24.3375072  54.1643906  64.7915649
  65.7434616  65.2257690  74.5704498  65.4138641  66.0843201  74.3049545
  66.1326828  65.3746338  75.4321823  53.4916611  45.4939690  51.5706215
  53.5078125  44.5387268  51.5116234  52.6745262  45.7466965  51.1409111
  19.2036915  10.4630213  56.2495728  19.0704937  10.0252590  57.0903206
  19.4152813   9.7546482  55.6415710  68.4354858  56.0871315  27.9711094
  69.2909317  56.4754066  27.7875690  68.0659409  56.6373138  28.6617432
  35.1596527  18.1091213   9.6696501  36.0708542  18.1829948   9.3859491
  34.6519814  18.1566162   8.8595610  68.4884720  59.1342926  59.1785507
  69.0838394  58.8478012  59.8711510  67.6166534  58.9110565  59.5046272
  19.4753227  19.9310036  60.0456924  19.2100029  19.1903877  60.5909691
  18.7656364  20.0272274  59.4106216  10.8468847  63.7280235   7.4201784
  11.5262661  63.7330742   6.7459035  11.0912571  64.4397583   8.0117426
  80.6932907  38.1207123  26.1581059  81.5217514  38.3851547  25.7581673
  80.9323883  37.4170303  26.7613449   1.3863218  18.1842098  26.3939476
   0.7662169  18.6358185  26.9664421   2.0661361  18.8344021  26.2169361
  48.8974991  39.8152084  21.9496593  49.5744743  39.2047195  21.6576958
  48.6778755  40.3212967  21.1674366  53.6885605  29.6004543  22.6050701
  53.1973457  28.7925758  22.7543278  53.0241432  30.2894669  22.6118317
  32.1431503  71.0870056  53.7937050  31.9746284  70.1471939  53.8613815
  32.9672432  71.2169724  54.2629738  46.0517502  28.3856030  53.4284363
  45.5258179  27.5873032  53.4768333  46.1216125  28.6817837  54.3359756
  61.9613075  21.2280598  62.5861244  61.6399384  21.3156414  61.6887474
  62.9073753  21.1170788  62.4919624   0.3709759  43.3070526  44.3891411
   0.3284032  43.4996147  45.3258018   0.9313430  42.5333633  44.3289032
  48.5646362  48.6638641  81.5943909  48.3268509  49.4618416  82.0665359
  49.4974403  48.5476799  81.7749786   1.3852161  42.1640320   0.7517409
   1.1210785  42.4235497  -0.1309330   1.0642494  41.2669563   0.8437706
  81.2695465  16.7898369  14.0385132  81.0832596  17.4467449  14.7093344
  81.7576599  16.1079502  14.5000429  19.2076454  50.3724976  51.6893921
  20.1588421  50.3796959  51.7961769  19.0374622  49.6310997  51.1083603
  72.3985596  30.3404217  63.6988564  71.6552505  29.9045563  63.2820244
  72.3432083  30.0812016  64.6186218  15.4241619  34.5652428   9.3401375
  14.9738092  35.3546906   9.6404552  15.3662071  33.9604111  10.0797644
  24.6380844  63.2634583  55.2540741  24.3604660  62.3613930  55.0945740
  24.5298004  63.3841324  56.1974411  18.4610252  70.7698975  -0.0239268
  19.0345230  71.3235855   0.5059410  17.8742294  70.3571930   0.6097730
  53.0459595  38.6052361  18.4807281  52.4101486  39.0003319  17.8841763
  53.8203735  39.1632729  18.4092503  34.8306503  39.5405884   7.9153290
  35.6436996  39.9063148   8.2637949  34.6418724  38.7929878   8.4825048
  82.5520020  49.4400024  74.9674454  82.1132660  50.2734795  75.1378860
  82.5478210  48.9899788  75.8122482  12.4285288  35.8180313  80.0722656
  11.9697008  35.4062080  79.3400726  12.2586441  35.2406540  80.8165817
  22.9751949  38.1985016  76.3075943  23.8031826  37.8974266  76.6817856
  22.3105869  37.6497002  76.7239380  13.7088766  69.8736649  66.3441010
  12.8926277  69.5483856  65.9644165  13.5805674  69.7968674  67.2895508
  68.4158325  40.4423256  49.6454353  68.1364441  40.1166763  50.5010757
  67.6157837  40.7842712  49.2463989   8.2219744  54.4269981  74.6646194
   7.8209271  53.7121048  75.1589050   9.0266409  54.6269722  75.1429062
   0.9092356  27.4648209  84.9645767   1.1400180  27.2993832  85.8786926
   1.3880941  26.7981052  84.4722137  60.2883301   7.7949028  32.8080788
  59.5580025   8.3953695  32.6587601  59.9764442   6.9519172  32.4789352
  50.5753365   3.4134915  34.4016113  49.8654709   3.3462706  35.0402069
  50.8706665   2.5117016  34.2759705  55.9844322  40.6069069  42.8429070
  55.4772186  40.4183960  43.6324844  56.2520943  39.7468109  42.5191460
  37.1394043  42.1265640  40.0769958  37.7874985  42.7635155  40.3778229
  36.5412941  42.0254860  40.8174553  39.7750435  44.2205238  12.6834860
  39.0419579  43.8428001  13.1694288  40.5500526  43.9706154  13.1866179
  19.5682182  67.5018692  26.4387226  19.4690609  66.6335831  26.0482388
  18.7302856  67.9349136  26.2757034  12.9097719  67.4488144  25.1192608
  12.1834488  67.9396362  24.7348423  12.4996042  66.8951035  25.7836399
  10.6490097   0.7282093  89.0209656  11.2181625   0.0237999  88.7109604
  10.4511957   1.2392402  88.2361450  69.5177078  65.2138367  12.6100101
  70.0602570  64.4253235  12.6207027  69.5260773  65.5226364  13.5159941
  69.5781326  32.9066696  76.0443726  68.9814606  33.2920189  76.6860275
  70.2856598  32.5327492  76.5695648  83.5230026  42.4168816   8.8426085
  84.4403076  42.6592941   8.9692125  83.4505692  42.2345200   7.9057364
  27.8098183  66.7519531  50.9644279  28.5679226  66.4004669  51.4312935
  27.1238060  66.8081207  51.6296082  54.4891090  25.9034576  62.5256042
  54.7087669  26.4602451  63.2725754  53.7129974  26.3120823  62.1423225
  40.7912903  19.6002464   3.9383411  40.2197914  20.3017941   3.6261644
  40.1954193  18.9640064   4.3337779  50.6762428  45.7147064  82.7960815
  50.2133789  45.5343933  81.9778671  51.0234680  46.5997429  82.6848145
  82.4682236  49.1413269  11.4653368  81.8899994  49.3120537  10.7218676
  82.7218704  50.0104485  11.7760143  71.5440063  59.1733398  33.6791115
  71.2575073  58.6861038  32.9066124  72.4257660  58.8454018  33.8557053
  21.1608715   9.3344803  20.8123646  20.6449242   8.5286570  20.8384590
  20.8969994   9.8133774  21.5980225  40.4530182  61.0037460  47.6240158
  40.0153046  60.9679337  48.4745178  40.6500893  61.9315033  47.4949455
   4.1432190  37.2021713   9.3075399   4.2055430  37.2976799   8.3571577
   5.0031247  37.4695663   9.6320324  14.1565199  45.6732063  45.0145531
  14.4662085  46.1737747  44.2597313  14.4256735  44.7730064  44.8317337
  37.5183449  60.9707870  70.5134506  37.7409058  61.8789597  70.3087082
  37.6863060  60.8888245  71.4522247   1.3811495  41.3519974  40.6397209
   0.9686006  41.2397957  41.4961357   2.0082037  42.0638580  40.7673454
  69.3013306  22.7874260  11.5660076  69.9510422  23.4549313  11.7863359
  69.2878799  22.2060909  12.3263378  77.4259796   5.5513511  76.5239639
  76.9933090   6.3866978  76.7006760  76.7768250   5.0436792  76.0370331
  45.1169014  24.5950508  19.5217819  44.4308167  23.9452038  19.3694191
  44.7324753  25.2064152  20.1500187  82.9709320  51.6564865  56.2544518
  82.7489700  51.3162766  55.3877220  83.8558578  52.0074387  56.1545868
  79.3113174  45.0210419  73.7398224  78.6807404  45.5901833  73.2985992
  79.2548752  45.2707253  74.6621628  43.7290192   0.4286961  84.7334213
  43.8454628   0.5654010  83.7932205  42.7855263   0.3103517  84.8432083
   5.1937513  53.1000061  56.2488670   5.9483089  53.6728363  56.3857689
   5.2000446  52.9159775  55.3095436  81.0208206  35.5661392  27.0830841
  81.3481827  35.2625885  27.9297962  80.5922546  34.7992287  26.7030716
  16.9110222   2.2516367  62.4062843  17.5640030   2.5344431  63.0464973
  16.7338181   1.3385330  62.6322784  23.2110691  48.5218124  63.6636086
  23.2039776  47.9851074  62.8710632  22.9474640  47.9219933  64.3614349
  58.4723091   9.4100351  54.2380257  58.1322823  10.2451477  53.9167786
  58.0019264   8.7487288  53.7304382   0.9767103  13.1258392  20.1255455
   1.4586935  13.7606688  20.6555595   1.2791469  13.2820091  19.2309093
   6.7064147  35.7811890  24.9852409   6.8143473  36.6388664  24.5741749
   6.5807719  35.1784363  24.2523460  61.1942368  10.2088346  10.0588036
  60.9862709   9.4615889  10.6197014  61.3545456   9.8241920   9.1970701
  30.2927761  36.8956108  11.9436674  30.7449150  36.9774170  12.7833757
  30.4640999  37.7250061  11.4975939  79.1671066  24.5157433  16.6242809
  78.7568512  24.5305099  17.4889793  79.7597046  23.7645950  16.6531315
  10.4756241  67.5016403   7.7305593  10.1406507  68.2465210   8.2297335
  10.8529263  66.9207916   8.3912315  41.1104851  41.5131607  42.6170387
  41.9077454  40.9934616  42.5144730  40.4327049  40.8722000  42.8315353
  72.5247345  40.1467896  42.5797882  72.9314575  39.6746140  43.3063240
  71.7403107  39.6386528  42.3731270  15.7953367  26.6187344  74.1156006
  16.2840805  25.9533424  74.5999680  16.0112419  27.4414577  74.5546265
  86.2407532  35.7389603  45.9070625  86.2657852  34.9274216  45.4001007
  85.6669846  35.5413322  46.6473122  10.5186977  26.2013283  82.4686432
  10.0472927  26.3723049  81.6533051  10.8700991  25.3174572  82.3613052
  75.8000717   8.5498533  21.4436035  75.7877274   8.5548353  20.4864960
  76.3875809   9.2678452  21.6792965  82.0623016  61.3323364  38.9118652
  82.0705032  61.1373062  37.9747810  82.3252563  60.5121841  39.3295135
   9.1053104  10.4920778   3.9529226   9.1132479  10.5996885   4.9040213
   9.7570162   9.8118019   3.7834039  22.9316597  16.4785576  10.4390831
  23.6200695  15.9118385  10.0910110  23.3211899  17.3528957  10.4445763
  25.2252789  45.0455971  48.1276817  25.4456387  45.8260345  48.6362038
  25.7696438  44.3535233  48.5030899  79.4740753  11.1646538  54.5444183
  79.2014008  11.9967852  54.9309921  80.1139526  10.8116293  55.1626129
  82.5358124  70.3909302  17.3092194  81.7186127  69.9943008  17.6110363
  82.4380569  71.3220291  17.5085239  69.1375504   1.9526192  60.8204002
  69.4983902   1.7829150  59.9502106  69.7650528   2.5498395  61.2275925
  65.1774597   4.4170084  74.3602905  64.8357162   5.2473736  74.0287247
  65.6100388   4.6472678  75.1825409  49.0767441  25.4035549   8.5824642
  49.7591553  24.8556767   8.1946793  48.3134537  25.2688351   8.0207958
  27.7149048  35.5455017  15.9050198  27.5327587  34.6289673  16.1124229
  27.1365051  35.7439461  15.1686068  82.1502151  31.2450199  35.9680252
  82.6648865  31.9880772  36.2830048  82.7944336  30.5523796  35.8215141
  74.9201965   3.9618692  59.6142311  75.1948547   3.0579355  59.4602890
  75.3208771   4.4587212  58.9009132  15.9962749   4.4045792  80.6467438
  15.2527676   4.7828326  80.1773224  16.1485023   5.0041809  81.3771820
   9.8117104  65.1266785  60.9245911   9.2250595  65.1911774  60.1709900
  10.6440163  64.8311462  60.5555916  19.0218353  52.7309647   8.0673895
  19.5784340  53.4995880   7.9423013  18.7925968  52.7499084   8.9965410
  14.2891769  57.1110916  71.1167068  14.5255938  57.1590462  72.0430145
  14.6648283  57.9031563  70.7323303  22.3474464  67.9491653  58.0446968
  22.3951263  66.9948807  58.1021271  21.5216618  68.1739502  58.4734001
  24.4396935   3.4178662  13.7790585  24.8527145   4.0696864  14.3454285
  23.7425251   3.8970454  13.3311996  71.3873138  60.0134125  68.4073181
  70.8740158  59.2403641  68.1724701  72.2277985  59.6624756  68.7016983
  32.6578064  58.8971672  16.8626404  32.6474266  59.1838455  15.9494362
  33.3342400  59.4346199  17.2747211  24.4352875  35.7912064  77.3155136
  24.6535835  36.0075760  78.2220230  24.4758606  34.8354912  77.2809525
  64.3983383  23.9615459  41.8004532  64.1378403  23.0547924  41.9622345
  63.8048439  24.2620888  41.1122131   6.1072164  64.8325882  45.2157784
   6.6766315  65.2187576  45.8812637   5.5111356  64.2686081  45.7085724
  76.3173676  16.5673256  88.4657135  75.9097748  16.7335281  87.6157303
  77.2398987  16.7872028  88.3360519  69.5612640  16.7103958  88.1003952
  70.1974869  17.4217873  88.1737061  69.1119690  16.7028542  88.9455566
  17.8231621  43.7392235  53.9111710  18.3370914  44.0654335  53.1724586
  18.4451065  43.2271576  54.4280930  64.9076157  16.9074287  75.1416245
  64.2734909  16.2542572  75.4374008  65.2828903  16.5331459  74.3445587
  73.3037262  68.6936111   8.6360397  72.6604691  69.3804779   8.8111477
  74.1112671  69.0135727   9.0382109  58.9385757  61.7038193  34.7360420
  58.8716888  62.0027275  35.6429100  59.8181801  61.9638939  34.4623871
   1.2218535  53.8422279  20.0701370   0.9148362  54.1013298  20.9389515
   2.0872746  54.2437553  19.9923325  28.3381386  28.9410496  14.8812170
  29.1951714  28.7314358  14.5100193  27.7728367  28.2216587  14.5998955
  27.0478306  50.8059311  32.4200935  27.5152378  50.0896606  32.8498802
  26.8054657  50.4539261  31.5636005  76.3559494  29.2982750  72.9840088
  76.2719116  30.2003479  72.6750870  77.1849289  29.2851791  73.4623947
  73.2756577  29.7184277  45.5769806  72.5195312  29.1655025  45.3800774
  72.9007187  30.5788250  45.7650414  51.5829239  65.5992889   6.0595217
  52.3022194  65.3925171   5.4627895  51.7454071  65.0533066   6.8287621
  22.6737919  12.5917788  84.1206512  23.1708851  11.9926949  83.5636673
  21.8779163  12.1082506  84.3420410  26.9345455  62.9561768   8.8767481
  27.8436661  63.0471382   9.1621561  26.9464893  62.2144547   8.2718229
  52.4449692  17.6434898  52.0510330  51.5259857  17.6007462  51.7866974
  52.9156113  17.1824036  51.3566818  18.8305912   3.5544949  63.6388054
  18.8119354   3.1398709  64.5013428  19.7045059   3.9401383  63.5772896
  18.2606888  71.3161621  49.1100006  17.8337860  70.7618179  48.4567833
  18.1336250  72.2082062  48.7869949  72.8608170  37.3559990  84.8656082
  72.8632050  37.9508133  85.6155548  72.4761581  37.8685722  84.1545868
  75.5524902  53.5040894  87.8207016  76.2691879  52.8706284  87.8568039
  75.9500122  54.2950096  87.4564896  68.9089050  61.9468460  76.0699005
  67.9693909  61.9939079  75.8928909  69.0239944  62.4363441  76.8843842
  60.8001938  31.2786007  10.2395620  60.2275276  30.7105522   9.7241907
  61.6860771  31.0070400   9.9993582  70.9820175  34.8600044  74.3817520
  70.3632965  34.7414055  75.1024170  71.8232117  34.5754051  74.7389908
  55.4905968  51.9962959  44.7738533  55.1756210  52.3810806  43.9559517
  54.9598732  52.4113235  45.4537926  67.4704132  43.6561279  78.4493027
  68.2975006  43.5299721  77.9842834  67.2580490  44.5796242  78.3140640
  76.5638199  29.1870270   6.1774278  76.4572449  28.4415150   5.5865917
  77.3408508  28.9739304   6.6941833  42.6719131  27.7665577  23.2294273
  41.8381538  28.1744938  22.9956226  42.4741173  27.2468185  24.0085163
  41.9019394  50.6909447  18.9938011  41.7607536  49.7599869  19.1658821
  42.3954086  50.7108078  18.1738453  50.1597672  13.5209799  21.6175919
  51.0410957  13.1861172  21.7829895  49.5776901  12.8466406  21.9678535
  14.0805435   0.5094309  68.9276428  13.5578947   1.3078642  69.0023041
  14.5661430   0.4631532  69.7512207  64.7261047  21.2308464  10.7412567
  64.2492981  21.2159863   9.9113960  65.3262939  21.9719963  10.6594048
  31.7332516  64.5985870  55.2153053  30.9826527  65.1719513  55.0601158
  31.5689621  64.2170792  56.0776825  25.4406242  43.6158142   2.9727037
  24.9558220  43.6201935   2.1473675  25.1343307  44.3962746   3.4345424
  83.3360748  60.7041397  84.8270798  82.8370895  61.4819336  85.0766525
  84.1627350  61.0482674  84.4887772  84.0271378   8.6809521   0.3810217
  83.3254242   8.1973963  -0.0548753  83.9896851   8.3885021   1.2916822
   7.0902276  50.1963654  46.5934677   7.4188118  50.4680824  47.4504585
   6.1911316  50.5237045  46.5668907  32.6808319  59.8400726  30.6330223
  32.2014923  60.5395622  30.1889744  33.0706825  60.2646065  31.3972340
  11.7373085  67.3685226  33.3955803  11.7242155  67.9188232  34.1786652
  11.8982620  67.9792557  32.6763229   4.1280632  54.4539185  20.2160110
   4.0717711  53.8337212  20.9429359   4.3004436  53.9084282  19.4485741
  30.2450790  46.6372643  54.7541924  30.3891239  45.8848267  54.1803284
  29.4709778  47.0692024  54.3930435  65.0311127  39.9056168  42.5503998
  65.5635529  39.3230247  42.0088005  64.1480637  39.8278046  42.1892967
  74.8381119   3.5373869  67.9259567  73.9925079   3.9194865  68.1608734
  75.3438339   4.2712493  67.5767822  53.8306160  44.0576172  41.0215225
  53.5088997  44.6806946  40.3699837  54.7755089  44.2078552  41.0505066
  27.7820415  43.3630104  39.7649307  28.2407131  44.0431442  40.2581558
  28.3909397  43.1214333  39.0669937  32.6886597  42.6091156  69.1366348
  32.4157524  42.1574440  68.3380432  32.2099037  43.4377899  69.1186371
  55.7992744  47.4117889  37.6703529  55.8101692  47.3139305  36.7182312
  55.7419586  48.3565025  37.8133926  42.3708763  41.5118408   4.6183491
  41.5596733  41.1117859   4.9316230  42.2834930  41.5156708   3.6651535
  29.1932201  56.7222748  57.1494141  29.3134823  56.5093956  58.0748596
  28.6125374  56.0366020  56.8194199  49.2463531  56.1073456  56.8361626
  49.0061035  56.9911270  56.5578690  48.4124184  55.6879616  57.0480576
  84.0086899  26.7031803  87.0700684  83.3579025  26.1340446  87.4809113
  84.3748398  27.2103443  87.7946014  25.2271595  48.3025665  15.1661243
  25.2745361  47.5926132  15.8063974  24.4688225  48.0857582  14.6237679
  67.8434753  67.2062378   3.1181138  68.1673584  67.0857544   4.0107584
  67.6984558  66.3173599   2.7939231  51.1401100  28.8889503  41.4372597
  51.7435646  28.1465950  41.4685783  51.6447639  29.5906563  41.0259590
  35.2455826  11.9608688  82.5864105  34.8655281  12.6107807  81.9953003
  35.6962814  12.4785013  83.2536087  85.0248260   3.1638515  37.3895912
  85.4299088   2.6439435  36.6954460  84.2045975   3.4759717  37.0074310
   7.2702208  12.1159296   0.1028465   6.9715285  12.6190615  -0.6546974
   7.1953340  12.7236109   0.8386096  54.3325386  41.5180702  15.7691746
  54.5785599  42.4023743  16.0406723  54.7290840  41.4140511  14.9042101
  71.9891815  40.0245323  12.0098257  71.3334351  39.6944656  11.3955870
  72.0733566  39.3320770  12.6653032   4.0788345  30.2516022   0.3051474
   4.9758353  30.0917606   0.5985282   4.1730824  30.5616646  -0.5955250
  71.8862000   7.4072843  10.9570208  71.5908051   6.5483818  10.6549234
  71.6907349   7.9974303  10.2291794  57.3909912  59.4359474  37.9629326
  57.2986984  58.4987450  37.7915764  58.3315430  59.6003151  37.8952751
  84.4781113  70.5616074  85.1895752  83.6999741  70.2850571  84.7055817
  85.0869293  69.8279953  85.1036072  17.6155643  29.8041725  82.4224243
  18.2608318  29.1935692  82.7788315  17.7072048  30.5905266  82.9604568
  70.3490372  39.3074379   6.3294120  69.4684525  39.5869102   6.5798268
  70.8449554  39.3161354   7.1480808  73.7492828  31.2917519  15.9111176
  73.6461334  30.4956551  16.4324818  73.7549973  30.9851589  15.0043650
  29.8742676  47.3307190  76.0495605  29.5746117  46.9570541  75.2208176
  30.7835426  47.0419960  76.1276016  59.0877342  66.9618912  20.3880463
  59.7461472  66.5976868  19.7963676  58.2728958  66.9329071  19.8866177
   6.0401340   6.3596950  28.0063362   5.1711578   6.0222187  28.2236423
   6.6436329   5.6839681  28.3152256   9.6145306   2.2076836  75.9474564
   8.7422543   1.8975911  76.1907883   9.6111221   2.2054977  74.9902649
  67.9159622  46.4669342  19.8939590  67.1883621  46.4159470  20.5138245
  67.5262909  46.8244476  19.0961075  71.2813416   6.0700636  49.7077255
  70.6592789   5.3926215  49.9729424  70.7894745   6.6221743  49.0998840
  76.5596542  22.9227886   2.0415902  76.4999313  23.3721962   2.8846192
  76.0544739  23.4712925   1.4414533   5.5130563  46.6044350  32.9176407
   5.0699472  46.5765076  33.7656441   6.2031822  47.2582397  33.0294342
  70.1219940  26.5299129  64.4534607  70.5261536  27.1342983  65.0760422
  70.7754517  25.8415852  64.3292313   8.8825998  32.5707703  35.2189980
   9.7729855  32.2943840  35.0020714   8.8009071  33.4418526  34.8307037
   1.1655788  59.7863770  49.8870926   0.6822495  58.9627914  49.9529305
   2.0470116  59.5718842  50.1925430  82.8999786  22.0303707  72.5165558
  82.6492157  22.4542236  73.3373413  83.6117249  22.5717335  72.1751251
  41.5911217  37.5943336  30.3214417  42.2853737  37.7884293  30.9511795
  40.7795334  37.7620468  30.8004284  55.0803833   9.2544670  25.6561871
  54.7142944   8.3829613  25.5055599  54.3387909   9.7759686  25.9632835
  62.8210869  19.7709999   3.5973802  63.1510086  19.0568962   3.0520003
  62.0087204  20.0428772   3.1703262  21.1110973  61.3006248  67.4764938
  22.0616398  61.2594032  67.5813828  20.7768860  60.6090660  68.0477066
  71.9647827  59.8980637  77.2495499  71.9694824  60.0748863  78.1902618
  71.0484695  59.7109756  77.0455780  86.3526535  53.1768494  75.1813736
  87.0837631  52.7428169  74.7416840  85.9096832  52.4753227  75.6587296
  30.5655270  49.2553444  66.4327011  31.1907158  49.3590927  67.1500626
  30.6411304  50.0663567  65.9299316  62.9615669  16.3287563  37.6821098
  62.5893288  15.8381615  38.4149055  63.6057053  15.7338514  37.2981758
  47.7720947  39.3725471   1.7832807  48.2731743  38.5631065   1.8830413
  47.0627251  39.2952843   2.4212930  52.7830276  62.3088760  40.9365463
  52.2384338  62.9025726  40.4196587  52.4832649  61.4337006  40.6906929
  30.8113880  24.7193394   2.1529834  31.6578617  25.1595440   2.0759418
  30.8633728  23.9903812   1.5347992   8.0294771  21.1826878  14.4866371
   7.2814221  21.0961895  13.8957367   8.1604776  22.1271629  14.5705242
   4.3140831  69.2862167  65.5868378   5.1519442  69.1607742  65.1413193
   4.3446670  70.1885071  65.9048996  80.8273163  14.3824921   7.0489674
  80.1969452  14.8919725   7.5581784  81.1434860  13.7150717   7.6579146
   1.3542708  32.3469582  21.7347965   1.7245367  31.4655743  21.6868572
   1.8101912  32.7586746  22.4688644  11.7010975   1.4528936  13.0711298
  12.4097986   0.9349107  13.4527960  11.1113558   1.6288133  13.8042669
  64.1627197  31.3141785  43.3695908  63.2734871  31.5853481  43.1416473
  64.2289886  30.4152470  43.0474663  77.3749771  56.5421982   5.3807278
  76.7633514  56.2518234   4.7040977  78.2396240  56.3307533   5.0287170
  74.4293900  38.9297218  39.3028259  73.9977646  38.2799759  38.7480545
  73.7174225  39.3280106  39.8035278  60.2253876  10.6393557  81.8756027
  60.2352905  11.5848236  82.0246811  59.5252609  10.5049152  81.2368698
  81.1404114  14.0970144  10.8924694  80.3092880  13.6324186  10.9905701
  80.9074783  14.9140596  10.4515457  63.0369453  56.9329414  42.3312569
  63.5827141  56.6673889  43.0714264  63.5938225  57.5220261  41.8222427
  20.3454514  23.4758682  12.1592245  20.2858067  22.9101162  11.3894196
  19.9250164  22.9746532  12.8579731  19.6175251   0.2748805   6.6070991
  19.5302620   0.8443998   5.8427267  20.1023560   0.8005643   7.2433596
  83.2460403  27.8863182  40.1673355  82.7263641  28.6198387  40.4961510
  84.0679855  28.2845154  39.8808517  59.6677284  69.0122452  70.0325470
  60.2559319  69.4046249  70.6777496  58.9391632  69.6294937  69.9660416
  48.5527229  41.7884369  27.3336239  48.3945541  40.8858414  27.0569782
  49.4764023  41.8037605  27.5842495  14.2205639  60.2176552  71.5951614
  14.2486811  60.4268112  70.6615143  13.3631706  60.5294952  71.8847504
  77.0129929   1.3058095  41.2037239  77.3647308   0.5731301  40.6980629
  76.7101593   0.9094931  42.0207024   2.5939789  40.4314766  11.6000462
   2.7629137  41.2768326  12.0160589   2.3708141  39.8479767  12.3252764
  31.7092781  59.4117813  40.6036797  32.3182983  60.0959854  40.8815117
  31.5555019  59.5903130  39.6759338  23.2680225  59.6435471  83.7400970
  23.9280205  58.9504089  83.7541275  22.4692307  59.2200699  84.0544662
  64.4758301  58.9475365  40.5163231  63.5936813  59.2113304  40.2546806
  64.6738205  59.4945145  41.2764893  85.5854111  34.2945747  28.3382816
  85.3095322  33.9258461  27.4991379  86.0986099  35.0675850  28.1030998
  53.1689072  38.9898834   5.3761368  52.3460693  39.3532486   5.7034559
  53.1338120  39.1316223   4.4301400  15.3015976   6.9791622  30.5022945
  15.3931379   7.9301648  30.4435883  15.5692959   6.6591411  29.6408100
   2.0706997  49.0977974  84.3981934   2.6520295  48.3376846  84.4209061
   2.5034900  49.7127075  83.8059006  83.7687607  64.6730576   6.6943274
  84.0143814  64.8910675   5.7952294  83.0520859  64.0454025   6.6013412
  62.2839508  70.1630707  71.5482254  62.6080284  69.7418900  70.7521057
  63.0155182  70.1081314  72.1630630  83.4701385  32.4033051  41.9786377
  84.0698776  33.0415878  41.5924492  83.5101395  32.5757027  42.9193344
  37.8305435  44.6909599   4.9332180  38.5971642  44.5729370   5.4941072
  37.3935928  43.8393631   4.9425025  25.0589867  70.2530823  78.6450806
  25.5823078  70.4496841  77.8680878  24.1626587  70.1784821  78.3175659
  58.2823296  62.2487144  31.2588005  57.7250862  61.8619690  31.9341850
  58.4591560  61.5289421  30.6530819  19.6167831  25.6746864  75.8620529
  19.8609772  25.3297443  76.7209015  18.7812328  25.2522297  75.6630096
   3.1390526  46.9365883  54.2859077   4.0870862  46.8645744  54.1750984
   2.7777238  46.6583290  53.4443359  33.6351280  37.3967705  31.2157364
  34.1945877  37.6586075  30.4845161  33.9578514  37.9066620  31.9587650
  55.8347511  20.1893616  34.9855537  55.1162338  19.6064034  35.2307549
  56.2305031  19.7728367  34.2199707   5.3620481  42.6864243  53.4195938
   5.3358746  42.2948151  54.2926292   4.6094809  43.2775879  53.3996048
  74.6725159  48.2485275  62.0740891  74.1856613  49.0341530  62.3230782
  75.5821609  48.5400009  62.0123062  34.9708099  25.5217381  75.4122314
  34.2738037  25.6449490  76.0566177  34.9790649  24.5791893  75.2455978
  32.2621727  50.2581596  56.0951462  32.9473267  50.2245216  56.7627258
  32.4933281  49.5626640  55.4794426  61.3212891  43.3347321  22.4200916
  60.3686562  43.4236450  22.4486771  61.4976120  42.9163742  21.5774059
  14.1999712  64.8386383   9.5684614  14.4262524  64.5302200   8.6910191
  14.9639158  64.6219330  10.1029301  38.4822884  23.2734146  79.6551285
  39.4153519  23.3734188  79.8438721  38.2427673  24.0793133  79.1975403
  78.3115005  43.8108788  87.2431335  79.0616760  43.2924652  87.5341949
  78.6380615  44.7102356  87.2156754  38.8322334  54.6770973   2.1973162
  38.1037407  54.4043999   2.7551422  39.4464149  55.1019249   2.7960932
  55.4403381  35.9999275  47.4830627  55.3789291  36.9316597  47.2725105
  56.3567963  35.7772980  47.3194389  60.0612869  54.0625153  35.4440460
  59.7456551  54.0897141  36.3473015  60.9492226  53.7113609  35.5110855
  76.0441055  16.5245609  61.0404739  75.1558762  16.7108631  60.7362175
  76.2557220  15.6741438  60.6554565   3.9690056  71.6249313  75.7944641
   4.2260690  71.1175232  75.0245972   3.0665040  71.3570023  75.9674911
   2.1682100  42.2579384  26.8721542   2.0202396  41.3963356  26.4823112
   2.9900410  42.1648750  27.3539886  62.8911667  50.7851372  32.7896996
  63.4021797  51.2311440  32.1142921  63.4440727  50.8197098  33.5702972
  65.8283157  51.8607826  50.3401108  65.7727432  51.7446442  51.2886124
  65.0448608  52.3620300  50.1138725  72.6124268  63.0612335  14.3308535
  72.0977859  63.0766411  13.5239201  73.1380386  63.8604050  14.2950048
  78.0257187  27.5007648  32.6319046  78.2809372  28.0110378  31.8633232
  77.1923447  27.0988350  32.3866158   3.3052723  15.2483864  30.1252117
   4.0268421  15.5192251  30.6928520   3.6458702  14.4905109  29.6499748
  85.5786972  35.3515053  23.7702732  85.4909363  35.1649895  22.8355312
  84.6801147  35.3505363  24.1000938  23.4409428  44.1442528  65.1992188
  22.5122719  44.3056793  65.0326538  23.8530922  44.2059326  64.3375015
  85.7597656  55.8087654  40.1659431  84.8397980  55.8363876  40.4288712
  86.2410660  55.7143898  40.9879379  60.9506836  54.3189507  28.8705349
  60.3849487  54.6398201  29.5728302  61.8233871  54.6369705  29.1017990
  27.0659599  61.8681717  72.2931137  26.9034367  61.4414520  71.4518509
  28.0115299  62.0161972  72.3078766  11.3144741  51.7406006  18.2158794
  10.7253904  51.0612984  17.8876095  11.8714762  51.2887497  18.8497639
  27.3666134  15.4107981  16.1737823  26.6146336  15.9893341  16.0470810
  27.0006180  14.5277681  16.1234150  51.6097031  45.6552010  43.6208954
  51.5909920  46.1965294  44.4100990  51.2608528  44.8094101  43.9022713
  77.1250916  60.9284210  57.6488075  77.9717102  61.0003891  58.0895882
  76.5454788  60.5416908  58.3050995  84.8774872  59.6171455  67.7159119
  84.6290054  59.8209076  66.8142700  84.0477676  59.5882111  68.1923065
  13.0030670  35.9925804  69.8606491  13.1898594  35.2488251  69.2877884
  13.7541389  36.5753975  69.7490768  86.2619629  33.9249611  14.6526270
  86.2349396  33.8779335  13.6969652  86.7811508  34.7071457  14.8393488
  54.1750526   6.0144887  11.2601757  54.4273415   5.8831787  10.3462067
  54.7274971   5.4060483  11.7509270  65.2842178  28.9749622  66.6262970
  64.6911240  29.2874165  67.3095627  65.4910431  28.0758762  66.8814392
  13.5212269  25.8408451  76.9563370  13.3439760  26.1700802  76.0751877
  13.1725473  24.9494152  76.9535828  60.0825882  33.6948357   0.7899142
  59.8288345  32.7725334   0.7552693  60.8610725  33.7083092   1.3467007
   7.3075294  57.8804817   3.6143558   7.7636657  58.6701279   3.3234451
   7.0129032  58.0871048   4.5013356  72.7942200   0.7665871  25.4631100
  72.9986725   0.1178526  24.7896309  72.0755005   1.2785367  25.0921974
  69.4977570  56.0141869  37.6110954  69.0760956  55.5729904  38.3485107
  68.7959671  56.5202522  37.2016830   8.0154219  50.5180893  21.1850300
   8.8380117  50.7832069  21.5964813   7.4048338  50.4150238  21.9149551
  63.1001778  66.9993896  84.5152969  63.6557846  67.1227493  85.2849121
  62.4853287  67.7324600  84.5437851  13.8811083  54.7156677  74.3668060
  13.5465889  55.0983887  75.1778870  13.7119408  53.7778511  74.4569016
  38.4767838  12.1228170   6.2177963  37.7490005  12.2824078   5.6168871
  38.9822998  12.9355078   6.2029085  38.0387764  59.9037323  88.5951767
  38.4720917  60.1271858  89.4189148  37.6812897  60.7337570  88.2797470
  85.6419678  51.7266006  12.0066414  86.2559280  52.4076538  12.2813301
  85.8375549  51.5873833  11.0800362   7.3520918  12.3678303  84.1326370
   6.9494934  12.8114805  83.3861008   8.2439909  12.1745348  83.8438721
  70.9425201  17.1208515  70.8488312  70.3143768  16.6964664  71.4332733
  70.7366333  18.0534763  70.9124908  20.1741009  62.4473076  72.3717651
  19.4480438  63.0710640  72.3700333  19.9325161  61.8003960  73.0346222
  51.3150864  51.9536972  42.6839943  51.0705261  51.1068726  43.0572357
  52.1177826  51.7764626  42.1935883  70.5087433  45.1987228  59.5107384
  70.9653549  45.7896843  60.1094856  70.7707596  45.4923706  58.6381874
  28.5014420  10.7650337  76.0692368  28.7156124  10.3734884  75.2224426
  28.9076443  11.6313467  76.0421371  36.3283577  48.3657875  39.0451050
  36.1840096  47.9301949  38.2050743  36.1109047  49.2831650  38.8796921
  81.6579056  27.1216526  60.5737152  80.7364960  26.8909492  60.6920471
  82.0027542  27.1945686  61.4636536  58.2485695  23.8894157  13.6451521
  57.8797340  23.2224598  13.0660458  59.1949959  23.7568588  13.5909243
  53.7609673   2.4214156   9.6772738  53.8709221   1.4930629   9.4715967
  54.0785484   2.8785143   8.8985348  15.1094933  56.8665543   7.4281540
  15.3427286  55.9411430   7.3543677  15.5545464  57.2852097   6.6913443
  36.4892159  57.5425301   1.4755187  36.0603104  57.1505547   2.2361937
  35.7680321  57.8283310   0.9147641  22.2569313  46.6665382  65.4361954
  21.7326660  46.0100670  65.8949127  22.1458931  47.4650383  65.9522324
  63.0808754  49.9731331  81.1839371  63.1158562  50.1921082  80.2527771
  62.5491829  49.1781540  81.2232208  42.6158638  37.3206482   5.4559436
  42.8436356  36.8373680   4.6617188  42.1626778  38.1020012   5.1391869
  77.6336746  11.7466068  82.6488266  77.3734512  10.8377514  82.4988403
  77.7360077  11.8128862  83.5982285  50.6496086  65.7170334  87.3146210
  50.0310440  65.0840836  87.6792984  51.5020332  65.2875595  87.3864136
  -0.0419753  41.5043030  35.1971130   0.6071615  41.7269211  34.5298119
   0.3050525  40.7163696  35.6153984  62.4142723  52.8729553  35.4310150
  63.0597725  53.5388947  35.6678467  62.7812614  52.0542946  35.7646980
  64.5384750  19.8204403  74.7761688  64.7344055  19.6690063  75.7007828
  65.2142258  19.3328514  74.3051605  56.7086678  44.6942787  81.5678253
  56.6435585  43.8041420  81.9137268  55.8082581  45.0190620  81.5713501
  41.6408539  44.9271736  68.5257034  42.0166168  45.6216583  67.9846649
  41.0157776  44.4867134  67.9499359   2.6773734  11.1502218  44.7091751
   3.3989429  11.0044975  45.3210030   2.6590903  10.3608866  44.1680222
  17.8515148  37.5373573  81.6334686  17.0861340  37.0882874  81.2746429
  18.3199844  37.8634300  80.8650665  64.2466812  46.2805595  88.5062637
  63.2911758  46.2625198  88.5602264  64.4307938  46.5221863  87.5985489
  54.1937790  65.0834045  41.0611267  53.5073891  65.1745834  40.4002266
  54.2079887  64.1481094  41.2642212  81.1227417  68.1182404  57.4197998
  81.4609070  68.0421829  58.3120422  81.6327286  67.4843140  56.9155312
   0.7648643  28.8657513  13.1546631   0.6227244  29.8115139  13.1151171
   1.4108715  28.7495651  13.8513746  60.7187195  13.2904348  32.0290718
  61.1132393  12.6560516  32.6275215  60.7203217  14.1136198  32.5175362
  81.8426666  14.3992672  53.3077126  82.3029861  14.0888634  52.5279770
  81.4721680  15.2425632  53.0473022   7.2701240  39.3291092  60.7931976
   7.3918552  38.3951645  60.6224213   7.4495568  39.4269829  61.7283211
  43.3936615  34.3058128  77.2641144  43.2692337  33.5289307  76.7189484
  44.3435173  34.3914680  77.3457947  18.8917389  52.7784042  44.8564568
  18.0929356  53.2779541  44.6873550  19.2923565  52.6681709  43.9941444
  64.6417313  23.1350784  36.7332420  64.4351578  23.4038315  37.6284142
  64.4651566  22.1944160  36.7187996  37.4942856  51.4425240  60.1846581
  36.8033371  51.7013092  59.5748596  37.3172836  50.5202217  60.3697662
  69.3850708  58.7683411  76.0967636  69.1377029  58.4229431  75.2390060
  69.4299698  59.7159805  75.9694977  15.0013056  17.0218315  15.8703136
  14.4069920  16.2723522  15.8341846  14.6805706  17.6148148  15.1908054
  13.2203474  29.8647804  85.9890213  13.4576321  29.3712502  86.7741089
  14.0409040  29.9522438  85.5039825  77.2425308  65.4967651  36.5891418
  76.9663239  65.2883453  35.6966743  77.7462616  64.7323303  36.8686485
  50.8031616  51.6998711  59.3889427  50.2106590  51.2580986  59.9972267
  50.4641380  51.4790611  58.5214539  49.4279671  59.4021416  15.4901466
  50.2658730  58.9463997  15.5704374  49.2299576  59.3762169  14.5540094
  25.0545692  15.9275646  74.0537033  25.9125824  15.7182798  74.4228134
  25.2222195  16.6561737  73.4559937  55.7817574  39.9922028  28.8895645
  56.2015953  40.8479080  28.9774971  56.1359100  39.6341743  28.0755482
  23.7272034   0.2827595  75.6596069  23.1382332   1.0261463  75.7889252
  23.1447411  -0.4574891  75.4893112  64.3162766  27.4981308  33.2747040
  64.6044846  27.5227642  34.1871490  63.6708832  28.2019005  33.2083054
  18.8811169  48.2953491  49.7651939  19.6244335  47.7339745  49.9855804
  18.8444576  48.2797432  48.8088226  77.7640533   6.9018831  48.2408714
  76.9335785   6.7586312  48.6947594  77.5124207   7.2472215  47.3843384
  46.0780678  40.9686737  21.8036385  46.5916214  41.0195694  20.9974728
  45.8268967  40.0473900  21.8698521  35.2587204  54.0625725  42.6268044
  35.0566216  54.4965134  43.4557114  35.9950218  53.4862022  42.8314781
  52.0661163  12.9877005   4.2007475  51.8458900  13.1770630   3.2886763
  52.7196846  12.2902355   4.1494951  10.2901583  27.5150089   3.6648262
  10.7269163  28.3602753   3.5599530   9.8822918  27.5618114   4.5295148
   2.7264795  24.0796928  74.1521530   3.5452464  23.7716370  74.5406799
   2.0760539  23.4293175  74.4170837  75.2942352  43.0001564  64.3634872
  74.3892975  43.2752800  64.5105667  75.4871292  42.4113083  65.0930634
  47.7598381  46.1833954  50.8552361  47.4286041  46.4728279  50.0050926
  47.6061783  45.2386436  50.8631363  20.6361599  18.4182510  64.9889832
  20.4092751  19.2256565  65.4503403  21.5120239  18.1988621  65.3067322
  70.3956757  59.2294731  71.7174911  69.8358994  58.4766350  71.9075241
  69.9011002  59.7399063  71.0763321   0.2518918  57.0899048  85.6838837
  -0.5255240  57.3431931  85.1861877   0.2877041  57.7158661  86.4071503
  12.1183329  34.7186203  21.2933617  12.6962957  35.3399734  21.7362022
  11.8280172  35.1803246  20.5067368   2.0842423  32.0472298  82.6227036
   1.6281054  31.2773323  82.9624557   2.4232206  32.4880028  83.4018326
   8.9627142  38.1308632  46.5602074   9.7794476  37.8331337  46.9608765
   8.7019091  37.4115105  45.9851036  77.5577850  47.5904007  51.3287048
  77.3746796  47.7728043  52.2503510  77.6765060  46.6413269  51.2913742
  51.3145676   9.6327238  70.0072708  50.7861328  10.0559416  69.3306046
  50.6749535   9.2181511  70.5862808  56.7057495  62.5463715  52.7914810
  55.8435745  62.4333420  52.3913383  57.2410240  61.8520775  52.4072037
  57.0715904  33.2873039  65.6317902  56.1232376  33.3647537  65.7360229
  57.3478928  34.1449966  65.3089142  18.8207722  57.9456635  60.1084328
  19.1520557  57.2984848  60.7310410  18.1386452  57.4827461  59.6219749
  83.6783829  40.3964043  15.3736792  83.3669052  41.1692047  15.8448381
  82.9209671  39.8118248  15.3451929  54.7380486  25.1211834  88.0250931
  54.2056694  25.3260136  88.7937622  54.3612976  25.6531334  87.3241501
  63.2101936  65.9175415  26.0654125  62.9329529  65.0429535  26.3382988
  63.7341423  66.2420959  26.7977867  17.9846363   2.5963562  79.6464767
  17.2364273   3.0910122  79.9807434  18.5492916   3.2575042  79.2461319
  22.8178844  63.8145409   8.2727766  23.5364342  64.3943176   8.0202370
  22.1056499  64.4068451   8.5138817  73.4635315  50.7535782  79.7556305
  73.0990067  51.5125885  79.3003693  74.4101334  50.8941879  79.7357025
  62.5024719  45.2300491  30.2765522  62.8343430  46.0739441  29.9700661
  63.0325317  45.0301399  31.0481110  24.2526608  66.5361557  18.6629276
  25.0686436  66.8046265  18.2406406  23.7026882  67.3192825  18.6409912
  70.7059097  67.0224609  51.1324806  71.5766220  66.7042007  51.3708115
  70.1259995  66.6562729  51.8001862  57.4888000  16.3030243   2.2573135
  57.3927879  15.3607349   2.1191020  58.1540794  16.3781986   2.9414101
  52.5715332   4.3467145  52.9386635  52.8690872   5.2406192  53.1078606
  51.9495163   4.4340096  52.2163696  63.4403572  69.4406662  36.3897133
  63.3321648  69.8753815  35.5438118  64.2542648  69.8009644  36.7418022
  77.6143112  47.6125412  59.7270317  78.0750198  47.4875374  60.5567055
  77.3802338  48.5406570  59.7205238  55.8931618  10.5049515  35.7730942
  55.3988609  10.1035643  35.0583992  55.2442932  10.6485691  36.4619865
  49.0929413  40.0630913  25.1834602  48.9122086  39.2794113  24.6644039
  48.3582153  40.6479111  24.9980011  32.3581543  46.3719139  76.1243210
  33.1246185  46.1487427  76.6524811  32.3742371  45.7443390  75.4017334
  75.9361420  57.8225594  73.9479218  75.4212265  58.6033554  73.7443314
  75.2854156  57.1305351  74.0657883  63.5105705  30.6111012  81.0966415
  62.6329231  30.5597229  80.7180481  63.9731255  29.8564186  80.7323227
   8.9671116  66.2837524  73.9810333   8.6666737  66.7821274  74.7410278
   9.8977785  66.4954681  73.9084473  52.9861069  36.2776985  16.2013130
  53.8393021  36.6927681  16.3278198  52.3831253  37.0076790  16.0606728
  77.1442642  59.4938927  25.2265854  76.9927444  59.8389015  26.1064949
  76.6416245  58.6797638  25.1986980  44.1235428  26.1901684  70.1662750
  43.1802750  26.0863533  70.0409851  44.3467216  25.5524158  70.8442841
  51.9861145  69.3799896  66.3329315  52.2797737  68.7296371  65.6949387
  51.1582947  69.0327759  66.6651840  39.0487366  31.6892586  14.4261570
  38.6269302  32.3364182  13.8609200  39.3356895  32.1893654  15.1902132
  37.4503975  28.0219326  79.6891861  37.8142624  28.9055347  79.7447052
  36.8907318  27.9443932  80.4618378  52.3353577  37.6647339  23.9118557
  52.2122688  38.1791725  23.1140862  53.2729149  37.4727516  23.9307785
  70.7759247  67.4969559  33.6647797  70.6908112  66.9907074  34.4726753
  71.7141800  67.6704559  33.5885696  22.5767517  16.0888405   1.9632117
  23.4106941  15.9493113   2.4118798  22.1305351  16.7532692   2.4882433
  79.9042206  20.1759319  42.0762825  78.9508820  20.1135330  42.1354179
  80.2033844  20.1403141  42.9848328  79.4228516  50.8681335  23.8416958
  80.0522537  50.1922989  23.5900536  78.8830414  50.9951324  23.0614986
  55.7015381  56.4927711   8.5395117  55.1606712  57.2556572   8.7437181
  55.0750999  55.8185730   8.2763309  76.8267975  61.6385231  30.7319164
  77.0671692  61.0526581  30.0141315  76.1893158  62.2399139  30.3469753
  48.2719383  49.6195602  29.6596031  48.6272011  50.2896500  29.0756512
  48.3442574  48.8052254  29.1617470  55.3710098  64.3271942  86.4295197
  56.1291924  64.0333481  85.9244919  55.7404099  64.6436462  87.2539215
   6.2159271  65.2976761  76.8736191   6.1268373  64.4708328  76.3996735
   5.3155098  65.5822830  77.0300674  33.1993256  52.1773186  58.2726440
  33.3564949  51.2498970  58.4499054  34.0431328  52.5088196  57.9655228
   5.9052396  12.5801668  74.3346558   5.7417288  13.2132416  75.0337372
   6.8245440  12.3363075  74.4425659   5.2836103  64.7459412  36.4467583
   5.0350142  65.5537872  35.9975166   4.5253716  64.5308838  36.9899483
  78.1994476  13.0982656  50.5600471  77.2665710  12.9342289  50.4219208
  78.5594711  13.1911192  49.6780090   6.3651433  32.3337212  54.7130356
   7.3194346  32.2982903  54.7786446   6.1648746  31.8871174  53.8904343
  18.1347256  66.9926071   3.7579846  18.8812599  66.9220886   3.1630499
  18.4759636  67.4685669   4.5151153   3.9289150  64.8712769  48.7864342
   3.2019351  64.9511185  49.4039726   4.6965389  64.7212906  49.3382378
  75.0159225  54.6843719  47.6970901  75.3239059  54.5108032  46.8075638
  74.1051865  54.3897629  47.6969833  38.6526604  67.8746033  73.7077255
  39.0203171  67.2523193  73.0801697  39.3854027  68.4472046  73.9345398
  53.7252502  26.7790279  86.1194992  53.9942741  27.0059090  85.2293396
  52.9535255  26.2249470  86.0025940  58.0751648  28.4852810  54.1229477
  57.1524200  28.7120438  54.0073929  58.5070953  29.3212814  54.2983665
  73.6584320   9.9732771  63.4294090  73.6382904  10.5108480  64.2211456
  72.8452606   9.4693327  63.4613228  71.5327072  61.3195801  60.6599693
  71.1723557  61.0638771  59.8108559  71.0250320  62.0905151  60.9132614
  23.8395844   0.0045404  48.4062119  23.2731113  -0.6561317  48.8047752
  23.8978863   0.6980278  49.0634079  11.4824190  10.0197039  88.0535660
  10.6558666  10.4619846  87.8600998  12.1394320  10.7150612  88.0212555
  24.0078316  51.5777359  77.7874146  24.6952724  52.2045403  77.5620956
  24.4725380  50.8522186  78.2044373  85.8713455  65.0790939  42.6515999
  86.1302490  65.8465271  42.1414604  85.0093842  64.8431854  42.3086586
  34.6991997  56.8310204  30.5115299  35.2560616  57.3921013  29.9717865
  34.7257843  57.2318268  31.3803692  40.7332687  55.8327446  27.6233940
  40.6025963  54.8868713  27.5564651  41.5126343  55.9287224  28.1707592
  69.3439636  61.8998680  27.1839447  69.0241776  62.7866936  27.3498096
  68.8278275  61.5947914  26.4377785   5.8115692  60.3322334  13.4732571
   6.7190266  60.2927513  13.7752399   5.6581612  61.2603569  13.2964010
  83.7392044  11.1104631  18.1399345  83.6779251  11.0759315  19.0945473
  83.4123611  11.9803228  17.9102592  53.4934464  57.4196815  34.3445129
  54.2237129  57.6276131  33.7616692  52.8408279  58.0955086  34.1612740
  25.0487995  21.7432594  12.7415447  24.3980656  22.4088840  12.5185690
  24.8587646  21.0149536  12.1501980  53.4356308  25.3082294  28.6851406
  54.0137100  25.6806850  29.3509750  53.1332970  24.4832001  29.0648136
  12.4434023   0.0264005  74.3568878  12.0430069  -0.6393775  74.9160461
  12.4194841   0.8262622  74.8821335  25.1428909  36.0143394  74.5497208
  24.7559261  36.0297928  75.4250793  24.8287563  36.8176842  74.1347656
  40.0238876  71.5414352  13.9147396  40.7490273  71.8221588  13.3565273
  39.7901344  70.6736221  13.5853682  47.1268082  19.6812534  14.2507257
  46.3713493  19.1846161  14.5651541  46.8104362  20.5822315  14.1845531
  67.3079605   9.4267712  25.9988632  68.0895233   9.7029657  25.5202103
  67.6185532   8.7396984  26.5885220  47.8208084  14.4201908  18.9248676
  47.9841042  14.9800520  19.6838951  47.3142242  13.6864386  19.2730255
  84.3130951  44.9459305  83.1256561  85.1041794  44.8805199  82.5907364
  84.5479736  45.5531235  83.8273621  44.3083954  48.5157433  59.4441071
  44.6565247  49.4035988  59.3619270  43.6742630  48.4401703  58.7310867
  43.1736145  63.7741661  53.0153275  42.2540894  63.8669662  53.2645073
  43.6529236  64.2693863  53.6795921  14.3765888  32.0780792  76.7446213
  14.2883596  32.3185577  77.6669083  13.9644699  31.2164669  76.6812744
  85.6850739  41.2236481  58.7527161  86.3656921  40.9293671  59.3580208
  84.9227295  41.3837280  59.3089867  26.8723335  71.7575455   6.6859426
  27.8106956  71.6109848   6.8052244  26.4553947  71.1478424   7.2947578
   1.1984614  13.5835304  72.4254303   1.5595477  13.6721649  73.3074722
   1.7827487  12.9638472  71.9885864  53.3203545  39.4002151  36.9728432
  53.1565399  40.1439400  37.5527306  53.7027702  38.7323799  37.5420380
  31.4150219  60.0600281   5.4184771  31.8357277  59.6759262   6.1877007
  32.0837364  60.6305466   5.0395799  39.5070839  22.0597515  19.5972824
  39.7419052  21.7890682  18.7096901  39.7994843  22.9693317  19.6555462
  34.4449043   6.4207325   4.0194869  34.0423470   7.2566791   4.2547994
  35.0533409   6.6382670   3.3132889  51.7611427  20.7609024  18.8548222
  51.1629601  21.2376099  18.2793579  51.1875381  20.2549229  19.4303169
  40.5261536  64.0625381  84.6203537  39.9967575  64.4298630  83.9125137
  39.9532166  63.4204674  85.0395432   4.3240824  42.8962479  86.8818207
   4.0020881  43.5144081  86.2257462   3.5695240  42.3411140  87.0785370
  70.1559448  11.9608555   4.0684981  70.2053680  12.3050232   3.1766813
  71.0525589  12.0204821   4.3982754  81.2998962  15.5453787  64.5373077
  82.1760635  15.9088335  64.6655884  81.2657089  14.7898989  65.1240921
  19.7501049  16.7540493  73.2028732  18.7932110  16.7677593  73.2227554
  20.0122490  17.0804291  74.0636826  29.7689114  67.6045303  48.8195419
  29.3398266  68.0268707  48.0754013  29.3072243  67.9437332  49.5863647
  68.0997696   4.2923713  53.5416412  68.5185928   4.0583520  52.7133560
  68.7324905   4.8636899  53.9769440  70.0255432  34.2760315  49.6905251
  70.0182114  33.7189522  50.4688797  69.5074387  33.7939148  49.0460396
  21.3667374  66.5712509  29.6048717  21.9552422  67.3221283  29.5269470
  21.8537693  65.8440018  29.2173882  36.5843163  27.3440571  82.2023392
  36.8302269  28.0227642  82.8309250  35.6474762  27.2115116  82.3472290
  81.0549088  38.0549889  53.8652191  81.7816772  38.3680763  53.3266907
  80.3077469  38.0289459  53.2674713  63.3503265  40.1287880  17.8458118
  62.6191025  39.5606155  18.0881424  62.9575500  40.9962425  17.7484131
  43.5337219  69.8754349  81.2070618  44.0904655  69.3701096  80.6146774
  43.2243271  70.6098404  80.6768188  10.9847765  70.3866196  39.4536743
  11.0383081  69.5049744  39.8225479  11.8659754  70.5620728  39.1236191
  31.5373459  44.6855850  53.0573997  32.4337273  44.4973946  52.7793350
  31.0845089  43.8448868  52.9910622   6.1176181  46.5542259   6.7681899
   6.4579129  47.3115997   6.2919407   6.1951833  45.8277779   6.1497340
  37.8003693  42.8770752  69.9102402  38.2232132  43.5706329  70.4166107
  38.2534180  42.0766716  70.1754532  19.3160553  40.6458588  33.2859726
  18.6219711  41.2038383  33.6368790  19.0903549  39.7654228  33.5861893
  48.6608391  30.6527100  14.9184971  48.1474686  30.5973434  15.7244864
  48.8201752  29.7413673  14.6729355  53.2157784   4.8905582  39.7728806
  53.7564125   5.6804585  39.7751732  52.4897690   5.0989299  39.1848946
  43.7142754  57.2394028  62.5009727  42.9621010  56.8083000  62.0952454
  44.1985588  57.6171799  61.7668152  71.5486984  54.4177246  61.8905258
  70.7315521  54.8497314  62.1392746  71.4090500  53.4965439  62.1099701
  58.0623283  58.3286743  34.5137291  57.6957741  59.2000351  34.6640549
  57.8803864  57.8495598  35.3221703  10.3202095  50.3019676  22.9506245
  11.2750578  50.2742271  23.0116692  10.0371370  49.4302330  23.2266331
  28.6190739  64.3752136  80.5088806  29.3691750  63.7809105  80.5284500
  28.1225643  64.1088333  79.7350922  73.2142258   3.4948564  81.3566666
  73.2207947   4.3997765  81.0447235  72.3767929   3.4043219  81.8113480
   9.6818228  51.4240074  11.6294928  10.1680517  52.0046425  11.0441084
  10.3027153  50.7288246  11.8473167   2.9314985   9.8524876   5.1335025
   3.7684524   9.3982391   5.0365567   2.6984334  10.1176519   4.2437835
  46.1140022  58.2715187   5.7160344  46.2923965  58.6428337   6.5800548
  46.7858887  58.6503029   5.1491828  49.3245392   8.2576513  22.7164497
  50.1401939   8.0248423  23.1600075  48.6377335   7.8709512  23.2595787
  84.5210266  35.1396751  55.3452301  85.0510635  34.3428841  55.3249092
  85.1451035  35.8374596  55.5448761  23.5812397  69.2124252  36.7642174
  23.7341270  70.1385040  36.5765114  24.1347065  69.0272751  37.5229187
  82.5303345  46.0686226  31.8892097  81.8941269  46.7302437  32.1607628
  82.8710632  46.3920517  31.0552273  80.5948563  24.7642498  64.3486481
  79.9496460  25.1941814  64.9099808  80.8380890  23.9715805  64.8269196
  13.7336960  54.2496758  87.4056015  13.4831371  53.4278717  87.8275986
  14.5559702  54.4955826  87.8294220  84.0070267  18.6219521  78.9255295
  83.1463547  18.6585732  78.5082397  83.9864502  19.3213158  79.5787506
  85.6091385  37.7085800   8.7169943  86.4143143  37.2060242   8.5930471
  85.8928299  38.5114594   9.1541901  47.1441650  69.9005432  73.8353195
  47.5883598  69.7686996  74.6728973  47.1222649  69.0307541  73.4363022
  17.8918056  35.1806145  60.7863121  17.7776737  35.1899643  61.7366371
  17.0536003  34.8662109  60.4474945  55.3402023  51.7550354  74.6781464
  55.5245361  51.0010719  74.1179733  54.9945221  51.3746490  75.4856339
  44.5947609  55.2700462  25.9933758  44.7071075  55.0846558  26.9257069
  44.8032608  56.2002907  25.9073277  71.9149933  38.3433380  82.4623184
  71.4283295  38.0711479  81.6843033  71.8915558  39.2999153  82.4369888
  18.9999180  42.7279816  83.4685364  18.7355309  43.6018105  83.1808777
  19.1015759  42.2294655  82.6577530  76.0119400  37.7575302  71.3319321
  75.5905075  38.2091637  70.6007385  75.4239120  37.0300751  71.5350723
  65.2356033  31.0381145   5.9897699  65.0817795  31.1957226   5.0582500
  65.8320694  30.2897758   6.0107727  56.4886551  36.2216263  68.6372528
  56.9499855  37.0518837  68.7559204  57.1311302  35.6482391  68.2192993
  14.3866529  68.8898392  71.8285828  14.5136652  69.8345947  71.9153519
  14.2898111  68.5775604  72.7282104  12.1604548   9.7720299  78.7498093
  13.0893278   9.7553062  78.5192719  12.0808630   9.1454401  79.4690323
  36.9847755  57.1445465  12.2520409  36.4860764  57.0438652  13.0628405
  36.3929558  56.8341675  11.5667315  53.2549057  14.0976238  74.1957397
  54.1750679  14.0591908  74.4566116  52.9360275  13.2023335  74.3097763
  45.3563881  40.2876511  86.8834381  44.8520622  41.0471001  86.5916748
  44.7880707  39.5389328  86.7026825   3.0543084  43.8872185  75.5384674
   2.2129838  43.6405067  75.1543579   3.4435363  43.0577774  75.8155289
  21.7691517  53.3325005  15.9899940  21.6025524  54.0182533  15.3432951
  22.2606659  52.6655235  15.5106277   1.0151122  57.9641380  76.5079193
   1.4321120  57.7461319  75.6743622   0.0795440  57.9923439  76.3075485
   3.3074911  46.7134857  75.7651215   3.1859639  45.8748512  75.3199768
   2.5844338  47.2574234  75.4527969  65.7564163  39.0316505  66.3937302
  66.6876373  38.8899269  66.5639572  65.6322708  38.7462997  65.4885254
   2.8421397  17.3865871  82.2133102   3.0482280  17.0512161  83.0858231
   3.6948564  17.5072689  81.7955246  36.3511543  53.1455383  35.0757065
  35.8473053  53.3012505  34.2768822  35.7795181  53.4466667  35.7819557
  14.6034641  42.3576965  13.0049696  13.8263044  42.8904533  12.8363762
  14.5207777  42.0970383  13.9222765  42.1878624  43.5380859  29.6926937
  42.2071991  43.5235023  28.7357998  41.3882484  44.0178146  29.9088135
  15.6084414  36.2728233  68.8244934  15.9932423  36.8944740  69.4423218
  15.8381796  36.6188965  67.9621201  62.7569962  57.2408714  85.3432617
  62.0596313  57.3206978  84.6924591  63.4593048  56.7781563  84.8862228
  70.0124664  14.3719521  12.1438303  69.6903763  13.4964418  11.9294147
  70.4559402  14.2645903  12.9852800  34.7126274  36.4187508  68.2955322
  35.5299034  36.5787659  67.8236313  34.3152275  35.6758575  67.8412094
  68.0901718  44.9976044  69.6198120  68.5803909  45.4764824  68.9515305
  68.6682816  44.2771263  69.8706589  40.6555824  67.7468872  80.3029633
  41.1578064  67.8248367  81.1140900  40.0080032  68.4499512  80.3537140
  32.0867577  41.7661171  11.8215637  32.4173355  41.8456764  10.9267902
  32.8436546  41.4780312  12.3318081  65.6464005  49.9315529  11.6220703
  65.4590454  50.8284645  11.8989763  65.8480225  49.4672432  12.4344740
  58.0415726  68.2760086  88.3851547  58.7937622  68.2833176  88.9770889
  58.3943405  68.5717697  87.5459213  46.8513222  64.3236847  59.3924828
  46.2447929  63.9748993  58.7392616  47.6393242  63.7886581  59.2974510
  23.4496174  71.1685715  71.6174088  23.3917084  71.6331177  70.7824936
  23.9217625  70.3620377  71.4104996  22.4228573  21.6650772  24.0331802
  22.2648239  21.5383034  23.0976677  23.0360203  22.3988991  24.0752220
  40.2614098  40.9568558  17.7583027  39.6400414  40.2291908  17.7836895
  40.4216995  41.1671371  18.6782589  76.8531418  10.3643026  24.4662914
  76.2037048  10.6928844  23.8445988  76.4262543  10.4378500  25.3198662
  76.4571533   3.1202848  75.1669083  77.0497818   2.6188571  75.7269058
  75.7571640   2.5053306  74.9476547  82.3960953  60.6579323  48.7225990
  82.7484131  61.3443108  48.1560440  81.5362015  60.4593544  48.3519440
  11.6148443   9.0183496  26.8937893  11.6029501   9.1169710  25.9417591
  10.9846535   9.6659460  27.2095604  85.5374680  34.0295525  77.4693832
  85.6248627  34.7975197  78.0340271  86.3081741  33.4976044  77.6675797
   3.2682586  10.6802797  10.0765486   3.9483774  10.9567060  10.6907625
   2.8571692   9.9256191  10.4981232  64.4946518  13.4925585  70.2387772
  64.8636932  14.2811804  69.8411407  63.6791077  13.3424206  69.7606812
  80.0456390  29.3179646  55.8999672  80.7021027  28.7227154  55.5380669
  80.5266953  30.1265354  56.0761299  79.7269669  23.8104019  51.5682259
  80.1341400  24.6766586  51.5740509  79.2874908  23.7466125  52.4161797
  51.3733864   7.8381290  76.2295609  50.8826485   7.0183311  76.2873459
  52.0509605   7.6660919  75.5757065   0.2951183  55.0640068  77.4190979
  -0.3424956  54.5860405  76.8887863   0.3357391  55.9328537  77.0194855
   4.7835979  40.3642159  30.2591782   4.8911228  39.6270790  29.6580982
   4.7689075  41.1353493  29.6922817  38.3025398  41.3423882  58.4549179
  38.2031136  42.0522728  59.0892754  37.8918724  40.5866127  58.8749008
  30.7929363   0.0000384   4.5661798  30.1045837   0.6578176   4.4675393
  31.5713081   0.4093806   4.1882806  14.0802488  59.5436134  81.8257217
  14.6981049  60.2215195  81.5519943  14.3150291  59.3586197  82.7350616
   8.6812162  47.7736168  73.9567337   7.8626928  47.7583084  73.4607315
   9.3524027  47.9762993  73.3050766  62.0323334  31.0412922  37.5836678
  62.4953156  30.5967159  38.2937584  62.7159729  31.2543545  36.9484711
  76.3020325  33.1333046  14.7362738  76.7637100  32.2961998  14.6879349
  76.1467896  33.2675667  15.6712093  57.8174019  65.2335205  68.9285812
  56.9234276  65.0025330  68.6762161  57.7978935  66.1845093  69.0357132
  57.1254768  14.5439978  37.0368538  57.9416809  14.3984203  37.5152397
  57.2350311  15.4047098  36.6326218  25.2357559  69.3008347  51.7651558
  25.7971210  70.0026016  51.4355812  25.0690079  68.7487488  51.0011978
  33.6645927  67.3268433   8.8283758  34.3009415  67.5584030   9.5048914
  32.8133736  67.4945374   9.2327681   3.1513495  29.9015484  28.9384441
   2.6662276  29.1048050  28.7237625   4.0676475  29.6737652  28.7811375
  74.4586487  20.3633556  43.7192039  73.7344742  20.9271011  43.4471970
  74.5379868  20.5131454  44.6612778  66.2250137   1.3200759  36.2931290
  66.4972916   0.8685407  35.4942474  66.1355438   2.2365091  36.0316391
  16.1032848  29.7174568  85.3137894  15.8289871  29.2689915  84.5138702
  16.3535824  30.5943737  85.0229340  36.0536766  20.0921879   7.9120946
  35.4462776  19.9814167   7.1806397  35.8203735  20.9397144   8.2909098
  45.0102959   8.0427742  12.8686895  45.7968483   8.5831509  12.7941341
  44.3488884   8.5109425  12.3591919  61.1836548   8.7098722  83.5038452
  62.0766640   9.0271378  83.3692780  60.6346817   9.3275928  83.0208511
  42.8970146  47.6919212   2.1592426  43.0346260  46.7532349   2.0321214
  42.2082901  47.9197617   1.5347574  68.8960419  59.8062477  38.7940598
  69.0413971  59.2181816  39.5351944  68.4609528  59.2617226  38.1379967
  76.7616272  52.8973579  63.7087440  76.6489487  53.1614571  62.7956238
  77.5398865  53.3718338  64.0010147  32.2862930  39.6212158  26.5461636
  32.5283051  38.8947296  25.9718132  31.6637211  40.1356239  26.0323334
  58.4914284  43.8199425  40.0710907  58.6494522  44.2042580  39.2087898
  59.2121658  44.1418533  40.6125145  74.8372192  16.8290939  68.5607452
  74.7837372  17.1425209  67.6578979  75.7379379  17.0151768  68.8259125
  63.4397888  14.2699299  48.2240906  63.2223625  13.4039049  48.5689964
  63.7790413  14.7502747  48.9793434  56.9975471  39.2399979   5.5298839
  57.8732758  39.5419235   5.7710791  57.0862350  38.2906380   5.4457598
  47.3066406  41.6258698  57.9808807  47.0474434  40.9282112  57.3789482
  46.5262108  41.7868843  58.5111961  71.6405258  46.9448929  44.8088455
  72.2962723  47.0065613  45.5034103  71.2334061  46.0884438  44.9391708
  71.1852036  34.9168091  37.7378998  70.3929062  34.7214203  38.2382240
  71.4731216  34.0672569  37.4038429  73.7801666  21.5290699  16.9853725
  73.9275208  20.8924141  17.6847916  73.7410965  22.3734818  17.4344540
  45.5089340   9.7230701  41.7087860  46.0735931   9.9933023  42.4329185
  45.8890343   8.8994522  41.4031525  69.8734818  49.5362473  18.7349567
  70.3412933  48.7650490  18.4145832  70.4202728  49.8696899  19.4463406
  74.9173584  21.4926071  60.9728889  75.3362198  22.3317547  61.1642303
  74.4780807  21.2526283  61.7887802  83.5116806  70.7720795  81.1305084
  84.2182159  71.4177094  81.1166611  82.7332840  71.2631760  80.8675232
  83.8228455  56.2837410   1.8666700  83.4910660  56.2047768   0.9722881
  84.3873520  55.5192261   1.9810932  42.5457535  61.9641228  57.1701202
  42.6989326  61.0425262  56.9617271  41.5926590  62.0520477  57.1808434
  83.2101746   7.0572209  11.7385082  83.2007370   7.6023693  12.5252466
  83.3813400   6.1727571  12.0620193   4.9314013  10.6560431  54.8703270
   4.8595271  10.9711609  55.7713089   5.8637390  10.7268562  54.6654778
  22.8803406  17.5318146  66.3830719  23.8369846  17.5386505  66.4149704
  22.6137486  18.1570797  67.0570145  59.0771561  23.8182831   0.1951476
  59.6787643  23.9287262   0.9314241  58.2407684  24.1548843   0.5166849
  84.1958542  12.7753305   1.7946284  84.4342117  13.1625471   0.9523209
  83.7005997  13.4614382   2.2420733  22.7048855   4.9451308  12.5116644
  22.9621639   5.8596530  12.3946648  21.8804092   4.8650265  12.0320263
  77.2381058   1.9833698  60.4988251  77.2153702   2.5116923  61.2966919
  77.7262802   1.1978458  60.7455444  41.9356575  50.8235207   9.7981014
  42.8193016  50.5252266  10.0135746  41.3768272  50.4135475  10.4582968
  35.6101189  23.9074650   6.6563802  34.7652397  23.6418591   6.2932405
  36.2557182  23.5524559   6.0453162  68.5762863  18.0346642   5.0779376
  68.0319366  18.5109978   4.4510245  68.6786804  18.6385174   5.8135390
  84.7784348   5.6766305  83.4260254  85.6119385   5.2083273  83.3790817
  84.2752380   5.2040992  84.0891495  50.9471130  19.6277790  44.4070778
  51.7646828  19.9684086  44.7700996  50.6845627  20.2786198  43.7561493
  81.7064133  58.6312332  82.3177719  82.6366959  58.4061356  82.3296509
  81.6333618  59.3791084  82.9107132  67.8690033  20.6111355  89.0934830
  68.2605057  20.5432434  88.2226486  68.2984161  19.9242134  89.6033554
  23.9361019   1.9210235  86.6933899  24.1260090   1.8680878  85.7567139
  23.4888515   2.7605641  86.8000259  25.5039616  52.9250374  16.7880230
  26.4134140  52.9001503  16.4905205  25.2509613  53.8447495  16.7082863
  71.1502609  31.6479721  19.1317463  71.6738968  30.9084873  19.4402847
  70.3242035  31.5723438  19.6093903  16.4622269  58.9231682  15.3225651
  16.9358196  58.5213737  16.0509224  15.5741224  59.0512047  15.6558952
  32.0658035   3.6231437  46.3092155  31.7045078   3.5333121  45.4273834
  32.5488396   4.4492321  46.2871437  19.4480343  40.1925430  18.3065491
  18.8772526  39.6992493  18.8957005  19.5776939  41.0327034  18.7464924
  25.1418724  55.2154694  12.3333120  24.6359119  55.6014824  13.0483160
  24.9378681  54.2810936  12.3727560  74.1648026  12.6238651  71.4111633
  73.6137085  12.9367476  70.6937790  74.6993256  13.3810320  71.6503525
   3.3063521  27.5785847  43.8390312   2.9616716  27.3098373  44.6906204
   3.7505369  26.7997646  43.5038147  61.4131012  18.5926552  25.9008541
  61.5227776  17.6542950  26.0547600  61.4547043  18.6857338  24.9490986
  62.3246994  57.6522446  17.5293121  62.4717064  56.7345467  17.3002815
  62.5355034  58.1352577  16.7302551  55.9297447   3.9877484  47.5612183
  55.6116600   4.8444247  47.8461075  55.8245010   3.4257638  48.3288956
  67.5356674  15.6894932  26.8768635  67.2301559  16.5601101  26.6220665
  66.7917175  15.1135340  26.7006626  64.1518250  26.9828434  54.9884987
  63.8108521  26.4651108  54.2591667  65.0813370  27.0944424  54.7890587
  66.8477402  51.4933853  30.3741703  67.3298187  50.8995743  30.9496918
  67.4561691  52.2137375  30.2094193  79.2844620  40.9787064  10.0196953
  79.0109711  41.0752907  10.9318943  78.6616211  40.3542290   9.6477547
  84.6833878  55.4909134  36.3817368  85.3438873  55.9716415  36.8806076
  84.8059464  54.5774460  36.6401672  66.7163544   7.1349568  16.4355965
  66.7119522   6.1830440  16.5359650  67.3756485   7.4385433  17.0596142
  43.1341362  67.1670303  58.5321617  42.7164803  67.2844009  59.3854027
  42.5936089  66.5131836  58.0888214  25.1586857  41.3752441  80.3187714
  25.8268127  41.4166183  79.6345673  24.5729160  42.1073570  80.1261063
  15.9142275  30.9327965   9.5572948  15.6464329  30.7327805  10.4542408
  15.1865158  30.6265202   9.0161276  43.7742767  35.1581192  58.4984627
  42.9455452  34.6866722  58.4137383  44.3634415  34.5328903  58.9206047
  43.2457962  59.4552040  56.8703308  42.7690468  59.4019661  57.6986465
  42.7421265  58.9072342  56.2684364  40.5963326  31.9753723  12.4326706
  40.1620369  31.4982071  13.1397276  40.6231918  31.3536644  11.7053537
   2.5057266  43.1692810  56.8481636   2.0505362  43.9436989  56.5175438
   1.8618993  42.4645195  56.7772255  13.0348053  44.6745377  59.0168381
  12.3068895  44.0564270  58.9511871  13.4290457  44.4906082  59.8694687
  17.5994415  19.4326363  58.0003815  16.8875599  18.8959846  58.3488922
  18.1877308  18.8059368  57.5791969   8.0958071  65.4081039  69.1414871
   8.4434700  65.4467850  70.0324783   8.8502235  65.1762924  68.5998688
   4.7760177  39.1041679  54.9667435   4.7799454  40.0203629  55.2438774
   4.8610001  38.6074142  55.7805252  43.7782021  48.9463463  40.0135269
  43.7587395  48.5978088  39.1222496  43.4754219  48.2216988  40.5607414
  69.5163345  32.3750763  51.8323555  68.6570969  32.5721092  52.2053413
  69.7504807  31.5254517  52.2059097  28.5940285  36.6371803  18.1236401
  27.8817406  37.0882835  18.5768318  28.1767941  36.2360916  17.3612251
  86.1630630  36.2225990  79.0849075  86.8435059  36.4849281  79.7049179
  85.3497772  36.5498276  79.4692535  31.4232712  54.7628822  12.6735592
  31.9948483  54.4594002  11.9682713  30.5553455  54.4368858  12.4355125
  78.3797836  39.3676338  21.3092670  78.8370590  38.6249313  20.9149036
  77.8530121  39.7301826  20.5970173  18.3460999  28.2027149  11.3880081
  18.4902763  27.2594318  11.3127642  17.4928837  28.2813129  11.8147106
  83.8493195  26.4094906  78.7748337  83.0180359  25.9392300  78.7111588
  84.2358932  26.3317623  77.9026260   5.5160084  56.2969818  46.5059471
   5.9525189  55.4805412  46.7490959   6.1315632  56.7309608  45.9151993
  73.3168945  30.6605759  40.4204254  73.5387421  29.8297138  40.0000916
  73.9903336  30.7772942  41.0905647  37.0959549  63.4471245  81.4701157
  36.7214279  63.3166275  82.3412781  37.5936127  62.6471291  81.3010635
  33.0056763  12.1704426   1.0353031  32.4888039  11.5020981   0.5854272
  33.1135406  12.8664055   0.3870490  32.2168617  65.5339966  69.9782104
  32.0829239  66.4616623  70.1724701  31.3449154  65.2074738  69.7561340
  66.7010803   4.9270658  88.5152664  65.7861404   5.0253448  88.2517090
  67.0434418   5.8208251  88.5298996   4.9282312   0.3178673  84.7627029
   4.5493193  -0.5395592  84.5691071   4.2662249   0.9439931  84.4695358
  71.9139023  40.9842834  81.6251221  71.1687317  41.4385147  82.0183487
  71.6879883  40.9117279  80.6977997  67.4278336  25.2285995  28.4841461
  67.3614349  25.4687805  29.4083405  66.5623856  24.8843918  28.2633572
  75.1950073   6.7957001  24.1891022  74.2879562   7.0449548  24.3661900
  75.5110703   7.4606652  23.5774174  30.7542953  55.4094620  22.1024323
  31.4225388  54.8456917  21.7127628  30.3159332  55.8139648  21.3538017
  55.2111931  27.7000103  64.4905548  55.4264908  27.8487492  65.4112854
  55.7379150  28.3421307  64.0146561   3.7851200  47.1533546   8.2508230
   3.6338396  46.2486115   8.5242929   4.4670076  47.0905762   7.5820036
  42.3944855  61.2426682  82.2934341  42.3988647  60.4429741  81.7674103
  41.9109154  61.0060883  83.0848999  30.4416256  38.0774117  67.6088181
  30.8074112  37.8130608  68.4529495  31.2030430  38.1694374  67.0361023
  61.4425545  22.6180534  26.3838997  61.3162651  22.7318344  25.4419136
  60.9054794  23.3030930  26.7820282  69.0104599  52.1162186  12.2306509
  69.6130219  51.4845009  11.8381195  69.2917252  52.1803017  13.1433468
  11.5710421  58.8298187   8.2904816  11.4918919  57.9067535   8.0498219
  10.8722086  58.9716263   8.9290371  68.3816833  -0.1997863  56.3061981
  68.1727448   0.2795154  55.5044212  67.6606827   0.0040441  56.9018860
  38.7559090  38.4410667  28.6213779  38.8696594  37.8960533  29.3999977
  39.1853676  39.2674141  28.8426151  19.4709244  34.5745087  16.7360840
  19.1939869  35.3594475  16.2634239  18.6558056  34.1118355  16.9303684
  24.0779419  21.5185947  17.6959705  23.6765671  21.6328392  18.5574112
  23.4192085  21.8399143  17.0802956  38.2385292  20.4327774  80.3144150
  38.1563339  21.3862267  80.3346710  38.8095551  20.2258377  81.0542374
  38.4946136  51.0989304  38.9171257  37.5727921  51.3198814  38.7842560
  38.9337006  51.9450951  39.0033836  23.7166195  67.7757263  79.4990387
  24.1130905  68.6305847  79.3309402  23.1145020  67.9299393  80.2269821
  72.9090347  53.5642128  54.1654816  73.0410538  54.4517632  53.8322220
  73.7850113  53.1784210  54.1729813  77.7700348  54.8714676  24.4570770
  78.1565323  54.8733902  23.5813770  78.3911362  54.3770981  24.9919224
   5.9476295  43.8268661  81.9815063   6.1309595  42.9244614  82.2428131
   6.5516520  44.3548317  82.5036545  49.1868973  53.4738808  64.7164459
  49.2962494  54.3977318  64.4911194  48.6552925  53.4827843  65.5124054
  74.5337906  26.4297028   6.9022346  74.2126923  25.5463123   6.7212667
  75.4012604  26.4566231   6.4985037   0.6583978  48.4259949  59.7873573
  -0.0024794  48.5538635  60.4678879   0.3116244  47.7159729  59.2471237
   3.4801707  29.9068794  41.5590858   3.0820503  30.4451790  40.8750038
   2.8483546  29.2035084  41.7084465  76.0113144  31.7367153  72.1285629
  76.8090439  32.2654266  72.1105957  75.3703232  32.2855911  72.5803375
  80.7498398  41.1580925  17.6601429  80.1146317  41.5217743  18.2769718
  80.5573044  41.5968475  16.8314972   9.8063755  55.7153740  80.9148865
   9.8388367  56.6706009  80.9670410  10.6880016  55.4602509  80.6430817
  83.5245972  10.8216238  21.0452881  82.9611435  11.2222919  21.7072678
  84.4097977  11.0931005  21.2880955  41.2294807  65.8054123  13.9949026
  41.4527321  65.1423416  14.6481504  40.6544456  65.3509903  13.3792191
  15.8627768  49.8153992  43.5083275  15.8331118  50.1359634  44.4097633
  16.2237530  50.5459366  43.0060883   1.5137231  32.1766281  28.8785648
   0.6479406  31.7992687  28.7228317   2.0908234  31.4193687  28.9772911
  45.3008766  64.9795456  61.3826141  45.8132401  64.7241440  60.6154900
  44.5071106  64.4473495  61.3285027  10.4715700  12.0872316  65.5453262
  10.3680563  12.5425739  66.3808975  10.9641466  11.2959423  65.7631836
  46.6700363  23.5691814  57.3656845  46.7709999  22.6195145  57.3010979
  46.7399254  23.8794231  56.4628563  38.0494957  38.1096458  74.9522247
  38.5714607  38.8383865  74.6164780  38.1444168  37.4229584  74.2921600
  64.1912308  31.0915470   3.2263517  63.2356606  31.1469784   3.2329309
  64.4313965  31.2048702   2.3067260   4.2415986  42.4214935  46.5097313
   3.9194911  41.6406593  46.0594215   4.9904675  42.1122398  47.0194283
  47.1367760  33.9232292  35.1244736  47.3125458  33.1214256  34.6320801
  46.1941757  33.9011421  35.2895584  26.9418564  70.9994659   3.5666125
  27.8115101  70.6940536   3.3084326  26.6565285  70.3743515   4.2329798
  77.6212311  58.0051422  14.9576492  77.4390030  58.5966148  14.2274532
  77.9715881  58.5728760  15.6440601  29.7145672  66.5024109  40.1413574
  29.8434887  65.9638367  39.3606186  29.1504822  67.2180176  39.8482094
  68.9885864   8.6348438  74.0027161  68.9466553   7.6981359  73.8102264
  68.0917053   8.9452868  73.8784103  85.5518570  28.7911854  25.2831249
  86.2586670  28.4433842  24.7393436  85.6166992  29.7407799  25.1816502
  31.7393589  56.9518852   3.3012881  32.0023232  56.9311523   4.2214251
  32.5466156  56.7772179   2.8174887  19.4427147  47.1124725  38.8192711
  20.3346119  47.1780891  38.4780273  19.1498585  48.0201683  38.9002190
  38.0627365  55.4315872  16.8559494  38.7041626  56.1344986  16.9594765
  38.5800209  54.6734085  16.5842552   5.8101726  35.0848389  59.3801460
   6.4806600  34.9668312  58.7072792   5.9330468  34.3436852  59.9732933
  44.0940704  44.2722473  71.1891632  44.6692772  44.2608528  70.4241562
  44.2932968  45.1001625  71.6263123  32.1931343  58.3154564  55.3801613
  31.4681015  58.4253693  54.7649574  32.8588181  58.9337234  55.0787582
  18.4181080  14.7573729  67.9870834  19.3641300  14.6226978  68.0430832
  18.3218536  15.5956497  67.5351334  14.0243254  59.2762222   7.7089448
  13.1043339  59.1082115   7.9129524  14.4154501  58.4059525   7.6322498
  70.6906281  56.1268768  35.0442238  70.2938538  56.1549873  35.9148598
  70.7614288  57.0451660  34.7835159  33.9084549  37.8378334   9.8015575
  33.8788033  36.8890915   9.6781168  34.3454666  37.9560928  10.6449261
  55.4557152  58.4488144  12.1642542  54.9420547  57.6825600  12.4196844
  55.1549225  58.6545944  11.2791491  62.4798889  57.5113678  22.8100319
  61.9192772  56.8457832  22.4113483  62.9764137  57.8763390  22.0775776
  84.6096649   1.9981215  55.5457230  83.9048920   2.5352025  55.9077530
  84.8566208   1.4127285  56.2616539  28.2749119  23.9175282  47.4069633
  28.1941357  24.5593243  46.7014122  27.6064110  23.2610016  47.2112389
  86.4914246  10.9493456   6.2521977  85.9520416  11.4511976   6.8632951
  86.0552521  11.0534678   5.4065371  13.4422960  41.9363327  70.0280304
  14.1245203  42.2245064  69.4216003  13.7888002  41.1316032  70.4134903
  14.2569942  68.8112030  18.8445301  14.6429033  69.4773102  19.4133911
  14.9171095  68.1192245  18.8039742  70.3942184  33.1859016  72.3016891
  70.4935989  33.7533913  73.0660858  70.8799515  32.3926239  72.5275421
  80.0277023  -0.1442537   4.7923803  79.0721054  -0.0907389   4.7779965
  80.3126373   0.7305886   5.0563807  75.9059753  21.2697678  15.0837784
  75.6582413  20.6710644  15.7883453  75.1412430  21.8338680  14.9688416
  76.8845444  32.1469765  48.6426773  76.4944687  32.3298340  49.4974518
  77.8084717  32.3741188  48.7475052  54.8749199  63.2546425  24.9376278
  54.0923996  62.9407578  25.3908005  55.2472572  63.9094696  25.5282230
  28.2999191   3.8745358   1.0800319  28.0669899   4.4576588   1.8024881
  29.1856480   3.5772562   1.2882144  17.3670883  47.7565804  57.6266289
  18.2776642  47.6630287  57.3467484  17.0341663  46.8598557  57.6623535
  44.1738853  60.8942451  35.4461517  44.1176300  60.2811012  36.1790390
  44.4236565  60.3514175  34.6983681  38.8917885  43.1026306   8.3053770
  38.2613373  42.9656448   9.0124836  39.4704399  43.7922516   8.6306734
  55.0226326  26.4503498  20.1457214  55.3931923  25.8934860  20.8304253
  54.3234062  25.9225521  19.7600517  44.9746132  58.9648132  33.1805382
  45.7607994  58.4916115  33.4529800  45.0905647  59.1005096  32.2401237
  80.0021210   3.0916502  28.8510056  80.4708405   3.8938496  29.0812473
  79.5733490   3.2949779  28.0197124  68.9882126  67.1171570  23.8063946
  69.8264923  67.2036285  24.2603226  69.1078491  67.5997696  22.9884682
  72.8964691  30.1458111  10.6740894  72.9699402  31.0403576  10.3414955
  72.7045212  29.6172829   9.8994637  60.9696350  43.3118019  36.5848198
  60.2871895  42.9359894  37.1409378  61.7713699  42.8629379  36.8530922
  72.8765182   5.7346487  17.9203568  72.5852432   6.4655108  17.3751678
  73.6325150   5.3756924  17.4557648  27.1783562  26.2035751  42.8740082
  27.3541031  26.7239151  42.0900497  26.4164371  25.6722260  42.6429672
  27.6312428  53.2662239  50.1162262  27.0702267  52.5753365  49.7638512
  28.0427990  52.8717041  50.8851242  16.8494530  34.4904861  72.1726456
  16.6404896  34.6864204  73.0859833  16.5939121  33.5749855  72.0595627
  85.8648834   5.9699636  26.7833366  86.1271133   5.1672740  27.2340679
  85.0912704   5.7193289  26.2784233  39.2610512  48.0726166  75.9095459
  39.7709885  47.6963921  76.6269379  39.5015106  48.9991074  75.9049225
  48.0120239   5.4253778  19.9592304  47.6582184   6.2524786  20.2862740
  47.2814217   4.8102903  20.0234013  42.0699234  13.7452021  69.6073685
  41.5538597  12.9526224  69.7547684  41.4413109  14.3797712  69.2632751
   6.1171894  44.6992416   4.4925933   6.5356865  45.0854454   3.7232177
   5.9026942  43.8055077   4.2252736  48.7311478  64.4245605  11.7604628
  48.6522102  63.7118568  12.3945417  47.8897972  64.8788757  11.8048019
  41.4818344  65.0376358  60.6638603  40.9287796  64.6009216  60.0160637
  40.9617577  65.7856445  60.9575119  29.4966507  25.4833508  49.3017273
  29.1893368  24.8562050  48.6471481  30.2394085  25.0481453  49.7202225
  40.7044983  52.5872765  53.3892937  41.5309181  52.1299820  53.5446701
  40.8130760  52.9925117  52.5289268  75.5521393   0.5735636  17.9385586
  75.0550919   1.3187116  18.2761002  75.4210968  -0.1162216  18.5891399
  55.1189461  24.0659428   9.1041842  55.5822449  23.2654190   8.8577108
  55.4778137  24.7383213   8.5250883  49.9233627  13.1071138  15.0351505
  50.4854660  13.7834911  14.6572800  50.0138435  12.3614779  14.4417944
  22.4395504  49.1245117  48.8647652  22.4281750  50.0684433  48.7063446
  22.0363560  49.0214462  49.7267647  25.3352852  46.1914253   8.9824562
  25.8528996  46.9868507   8.8575449  24.4757080  46.5064507   9.2619448
  31.0913525  46.4310188   1.3983327  30.6614532  45.9318504   0.7038916
  31.7827091  45.8509827   1.7174168  22.2196102  51.8297806  48.3446732
  22.2696857  52.3451500  49.1497345  21.8105450  52.4172707  47.7092552
  11.4273300   1.8277502  83.0251312  11.3122149   1.4232243  82.1652832
  10.7063341   2.4535885  83.0938492  62.9131546  21.2226849  51.0100327
  63.3323555  20.5464916  51.5422592  62.3453903  20.7381077  50.4108162
  80.1231308  24.8254223  41.4744148  79.8190460  25.2661438  40.6809883
  80.3485870  25.5378094  42.0726624  76.5613251  67.5390854  58.1254692
  76.6545639  67.6659164  59.0696373  76.8628693  68.3627548  57.7422256
  61.1242218   7.7432914  11.4326811  60.5675774   6.9973907  11.6563091
  61.3990936   8.0988951  12.2777977  56.6989555  43.3972015  72.4253006
  56.7628212  44.2408028  71.9775391  55.8609009  43.0357437  72.1367798
  20.8014889  35.6039467  68.4496460  20.3465481  35.3339233  69.2473602
  21.0650921  34.7826805  68.0345917  13.1488304  44.4087296  28.8286915
  12.8339958  43.6843605  29.3694324  12.4038000  44.6327553  28.2710400
  76.0130920  11.3038826  29.2026348  76.9499207  11.4986887  29.2277813
  75.8215485  10.9367447  30.0656261  53.0927200   6.9948306  35.6173172
  53.6345062   7.1715450  36.3863869  52.7717133   7.8553290  35.3476295
  78.5921097  20.2168102  35.4215546  78.2573929  19.5623531  34.8084602
  79.0377808  20.8579063  34.8678360  50.3061638  43.2213097   7.9161210
  50.9348068  43.4446754   7.2297201  49.4593086  43.4946594   7.5634828
  56.4783287  54.6108818   5.4029083  55.9692307  55.3100204   4.9927111
  55.8341637  53.9321785   5.6045127  58.7913704  22.2231407  67.6898956
  58.4569817  21.9397831  66.8389435  58.4419098  21.5829678  68.3098068
  58.4526711  48.0182915  71.8413773  58.8367500  48.6072388  72.4908829
  58.3771973  48.5511818  71.0498199   4.6613846  30.3081398   7.5783982
   5.4166665  29.8390694   7.2237802   4.6405473  30.0638409   8.5036631
  79.1392899  27.6560192  71.8967285  79.6482849  28.4652882  71.8494186
  78.4745483  27.7509460  71.2145767  11.0738058  44.5217056  47.1828499
  10.5242491  44.2065849  46.4652710  10.5756121  44.3164940  47.9740028
  42.9126549  53.5344810  29.4126244  42.7206497  54.3714714  29.8354816
  42.2435799  53.4502869  28.7332973   3.8966703  67.4775314  67.3210754
   4.7179723  66.9940033  67.2322235   3.9256370  68.1295395  66.6208725
  68.6817780  28.9509850  32.9294434  68.7086792  27.9996758  33.0320129
  68.4422302  29.0863552  32.0126419  24.1687717  16.1764145  48.8910789
  24.9763012  15.6701136  48.8028259  23.7607403  15.8394070  49.6886787
  66.7719193  66.8367233   8.1907673  67.4005585  67.3156738   7.6507225
  66.1961594  67.5140076   8.5457506  81.1048813  19.1367264  21.4108562
  81.8590240  18.9745960  21.9776230  81.3783340  19.8627472  20.8501873
  68.5186234  25.0635033  35.6443138  69.4050980  25.0738106  36.0052872
  67.9833450  25.4931717  36.3114662  76.0900803   6.4698644  73.4512024
  76.5807724   5.7086701  73.1413116  75.2573624   6.1099243  73.7565842
  84.3727264  68.6889725   3.8153133  84.0539017  68.6464310   2.9137762
  83.5975189  68.5226440   4.3516154  33.0108871  61.9927711   4.2413626
  33.4616470  61.5180130   3.5430431  32.4937019  62.6562767   3.7847342
  37.0699310  59.4901237  35.8907852  37.0221252  60.3142433  35.4062500
  37.7608604  58.9939499  35.4518547  52.4830551  37.4530792  46.2853546
  52.6264305  38.2661171  46.7697563  52.0939980  36.8579140  46.9261742
  57.8108444  18.5611782  71.3432922  58.1905060  18.8768768  72.1633072
  57.0079994  18.1123123  71.6082382  73.3018341  30.0271664  33.2033081
  73.8257141  29.4483547  33.7571678  72.4020538  29.8942986  33.5015984
  41.2298203  60.8641510  77.4731903  42.1418343  61.1036835  77.6377716
  40.7209320  61.5671310  77.8770294  49.3869553  21.4262905  88.1298141
  48.5560684  20.9834099  87.9574203  49.3287048  21.6965122  89.0462265
  21.1847839  55.1724281  27.8961468  21.8617229  55.2556610  27.2245407
  20.5738525  54.5264130  27.5416641  27.2638950  56.6814880  37.3072510
  28.0744495  56.6090851  36.8032761  27.5419254  56.6064262  38.2201004
  76.6701889  68.8063812  12.4631319  77.5211563  68.4075089  12.2815390
  76.4898300  68.5809021  13.3757439  44.0910835  50.6383820  55.7936172
  44.3702927  49.7269249  55.7069092  43.5428963  50.6473465  56.5782433
   4.6110015  45.1987801  56.6181602   3.9746845  44.5684509  56.2804947
   5.0017605  45.5873032  55.8354759  69.8438568  23.7907200  41.9642181
  69.1763000  24.4589119  41.8088875  70.2218094  24.0224113  42.8125687
  43.5976944  39.9846458  39.4981232  43.3725929  39.9441185  40.4275932
  43.2558365  39.1684914  39.1330833  15.1283522   3.4735134  56.1208267
  14.5879860   3.6080520  56.8993759  15.9866781   3.2261908  56.4648323
  78.9919739  22.5942421  39.1743279  78.4360352  23.2679806  39.5657845
  78.4000397  22.0896664  38.6164322   6.2586961  30.7527313  52.6301956
   5.8287125  29.9097900  52.7744064   7.1079302  30.5266171  52.2508469
  58.0592384  19.3396320  52.5805702  58.0503082  18.5941162  53.1808701
  57.1384277  19.4812374  52.3608284  82.7874527  24.6061878  88.5940247
  81.8963623  24.2902050  88.7435150  83.1774979  24.6449203  89.4672928
  77.2022476  29.7018642  53.5208359  76.6058731  29.8519001  54.2543602
  77.0983200  28.7731266  53.3137627  70.4258041  47.4646149  54.7738266
  71.3721161  47.3335304  54.8333168  70.2442093  47.4761162  53.8340797
  10.2437706  34.0039139  29.7789650  11.1961946  34.0977097  29.7610092
  10.0345497  33.5300713  28.9740200  20.1231232  15.8766947  80.9571152
  20.2595272  15.5062160  80.0851212  20.8470879  15.5318480  81.4797897
  14.3160286  39.4437370  88.1827774  13.6537275  40.0912399  87.9412613
  15.0984516  39.9611092  88.3734894  54.8392563  27.9387226  12.3466978
  55.5078773  27.3061810  12.6095037  54.0581322  27.6782856  12.8348036
  61.7736359  27.8702717  40.4914627  61.3962708  28.0004330  41.3614540
  62.2355652  28.6878624  40.3059845  72.9629745  12.3914442  81.6809235
  73.6949158  11.7876549  81.5547104  73.0420074  12.6766844  82.5912094
  47.8130417  19.6980991  18.7848778  48.4787560  19.2162571  18.2940769
  47.2100868  19.0232334  19.0967026  43.0734596  35.6654282  68.9467392
  43.6423950  36.3895912  69.2077713  42.9896660  35.1302185  69.7358932
  49.9999161  10.6528282  19.8530235  50.1995277  11.0714111  20.6903858
  50.1362534  11.3415833  19.2024384   4.9874301  52.4117317  32.7385521
   5.7577438  52.9750023  32.6638947   4.2618046  52.9567032  32.4340782
  68.7833099  36.8760567  50.2406425  68.2199707  37.4298286  49.7000656
  68.9750900  36.1180954  49.6884232  53.1872444  58.3594856  19.0765228
  52.8078079  58.2000961  18.2123146  53.3479156  57.4855690  19.4324436
  66.7284012  23.4712944  11.0945148  66.7436905  24.0591049  10.3392153
  67.6473923  23.2488594  11.2435389  69.9446793  52.1321869   6.3974543
  70.7344055  51.6382065   6.6177840  69.8204956  52.7274666   7.1366787
   6.4660430  45.5092392  16.9865952   6.0894608  46.1114693  17.6282635
   5.7463312  45.3199387  16.3845882  76.6578598  28.3989487  26.8647728
  76.6479797  28.5127220  25.9144096  77.5834961  28.2913761  27.0835114
  39.4496384  33.4129028  74.7426224  38.5783463  33.5634270  74.3759766
  40.0158043  33.3053932  73.9783401  63.5789452  19.4618073  44.6586533
  62.7434502  19.1689129  44.2947922  63.6487274  19.0044765  45.4966316
  29.3046436  21.0707912  22.1403408  29.8676529  21.8369465  22.0296116
  28.7181625  21.3064251  22.8591938  45.2206726  11.7799988  16.3211670
  46.1002312  11.4381409  16.1607189  44.8878403  12.0023699  15.4516811
  69.4832382  38.3595772  70.1610413  69.9864502  37.5563889  70.2948380
  68.7232208  38.2644806  70.7351151  83.2245789  62.5332603  56.5037575
  83.6913147  63.0036545  57.1944962  83.5566025  62.9118195  55.6897049
  58.9010963  53.1493797  13.4556847  58.5090942  52.4459648  12.9382162
  59.0351257  53.8610649  12.8297701  66.0304031  32.3192329  38.0378189
  65.7933960  33.0045815  37.4130287  66.1083221  32.7754784  38.8756714
  47.5385284  50.4011917  25.6878777  47.6593513  51.2655373  26.0809937
  47.5961761  50.5566597  24.7451496  63.6706276  14.9868202   9.7075129
  64.5358810  14.7462978  10.0387478  63.0858154  14.8665323  10.4556818
   5.3846340  60.3335495  33.4945526   5.5061975  60.8034973  34.3195381
   4.9934444  60.9794769  32.9063492  86.9867783  41.6365318  12.5440941
  86.1457214  42.0839272  12.6373186  86.9470673  40.9179382  13.1751862
  73.8342819  49.0363998  16.5909939  73.9409943  49.2826385  15.6721840
  74.5297546  48.3983002  16.7502804  46.5834923  53.8904495  86.6801071
  46.7320328  54.7921448  86.3953094  46.0393753  53.9731865  87.4632645
  69.9876022  37.6840897  11.3613911  70.8234558  37.2216148  11.4222307
  69.4165421  37.2291336  11.9803724  28.0582027   0.1661706  62.6231194
  28.3339195   0.5670972  63.4474182  27.1101608   0.2960358  62.5989342
  68.3339157  34.2161217   9.2810974  67.9301758  33.5698776   8.7017879
  68.9798660  34.6599503   8.7315540  11.1798725   6.4062810  16.6314907
  10.2676258   6.1163988  16.6288567  11.4328575   6.3926396  17.5545521
  11.1233778  22.6248245  57.2849655  11.5035839  22.2791100  56.4774017
  11.2816200  23.5677681  57.2396889  19.0452461  10.8802862  70.2079239
  18.5751266  11.1068087  69.4054794  19.9597301  11.0885220  70.0166473
  23.7449932  50.6817093  69.0882721  23.0935783  50.3321877  68.4802246
  24.5183544  50.8387489  68.5465317   2.7458003  10.1399536  86.6106186
   2.8161671   9.2506876  86.2635040   2.3097823  10.6342087  85.9164810
   9.9289351  41.3302765  49.4426041   9.3990316  40.5871887  49.7311440
  10.6798429  41.3338127  50.0362015  77.5452576  37.1592178   5.6441994
  77.3164139  36.9158859   6.5412245  78.3104935  36.6223640   5.4382091
  10.1602592  70.9673920  85.4081192  10.6255779  70.7019424  86.2013702
  10.8220272  70.9277954  84.7176666  44.6610756  67.4323349  13.6677713
  44.9371414  66.5780334  13.9997139  44.1173286  67.2292480  12.9066362
   7.2579885   4.0979900  24.3190784   6.8168492   3.3779948  24.7698936
   7.2455688   3.8458922  23.3957558  66.2059555  33.8446007   0.8799270
  67.0247345  33.5479507   0.4826546  66.1146164  34.7525139   0.5908180
  85.9915161  48.6801720  70.4943008  86.7097626  49.2216530  70.8216476
  85.3766479  48.6299057  71.2261734  21.9442463  46.1226807  69.3761139
  21.3060341  45.6986160  69.9497757  21.4304619  46.7522736  68.8702774
  85.5951767  26.2374363  33.6334953  85.9699402  26.5714722  34.4484825
  86.3461456  26.1349068  33.0488892  57.3829155  23.5707378  57.0753670
  56.6346474  23.1101513  56.6956482  57.2652245  24.4817066  56.8060760
  19.8660679  13.2854958  63.6536674  20.5335789  13.0173426  63.0221939
  19.1004791  12.7551594  63.4326515  53.3628273  48.8235703  66.2292633
  53.0893517  47.9291000  66.4326477  54.0676956  48.7190475  65.5901413
  75.4796295  56.9982109  58.8308716  75.6318130  56.4823761  59.6226959
  75.9000626  56.4956131  58.1331139  57.9344826  13.3848114  31.4405766
  58.8893242  13.3515015  31.3822861  57.7445068  13.2090826  32.3621292
  60.6161041  43.1015244   0.6046961  60.6851997  44.0540504   0.6691248
  61.2067680  42.8663940  -0.1108859  54.9262352   9.4494419  46.0664291
  54.3907547  10.1353006  46.4652901  54.9860039   9.6982422  45.1440620
  70.7567902  25.6676884  12.6032124  71.6674347  25.9583740  12.5536985
  70.2746735  26.2982025  12.0681868  43.3272514  21.1083355  40.9050751
  42.9166908  21.9686985  40.8187752  42.9888496  20.6060333  40.1638527
  67.7228088  11.0943270  14.6200600  67.5401230  10.7604713  13.7417669
  66.8712006  11.3823805  14.9487257  52.8709984  67.1681671  22.8519478
  52.7811813  66.8256836  21.9626389  52.5463715  66.4643173  23.4135914
  66.6564026  57.8597527  49.8191910  67.5737991  57.6675949  49.6250343
  66.1808548  57.5686111  49.0411644  56.8944778  66.9556274  13.8072329
  57.5275726  66.3568954  14.2033787  57.2160606  67.8283234  14.0335665
   1.5290970  17.9030132   9.9819670   2.4044468  17.5184326   9.9362154
   0.9790507  17.2048912  10.3373661  35.5927734  21.3016644  87.8987427
  34.6440010  21.3872204  87.8052597  35.8524399  22.0650959  88.4144745
  82.7063293  25.9473457  52.3666878  82.9079590  26.1030293  53.2893677
  81.8018112  26.2438412  52.2658501  57.6503868  55.9190674  19.2847385
  58.1275787  55.5780296  18.5282917  57.3060226  56.7622871  18.9904175
  54.8249626  12.3297348  57.2018738  54.3156815  12.9582195  56.6901398
  54.3521080  11.5031109  57.1052513  12.2734900  45.6942177   1.5509242
  11.5988960  46.0679398   2.1179235  13.0160217  46.2922745   1.6358306
  13.7515430  61.9503479  60.5614281  14.6191416  61.5465393  60.5403862
  13.1810760  61.3149643  60.1288910  61.2148972  61.8381462  25.9531536
  61.6884384  61.2925873  25.3251781  61.8981323  62.3406677  26.3968792
  17.9471931  12.5173597  26.0964775  18.0748444  11.9044590  26.8205566
  18.4216576  13.3048773  26.3628063  82.0572739  32.1483307  32.6231308
  82.0525131  31.3427067  32.1062393  82.6866150  31.9793262  33.3242760
  26.6379356   9.3038311  18.2955894  27.5845642   9.2247620  18.4133739
  26.2931595   8.4462414  18.5443897  27.8883762  67.1630707  64.5189896
  27.4884453  66.3532486  64.8359756  27.2269516  67.8359375  64.6802368
   7.7708874  61.4274292  32.4735451   7.1998644  62.0818329  32.8759384
   7.5705919  60.6157227  32.9396362  84.9511490  32.7938805  36.6489983
  84.7884445  32.5093651  35.7496605  85.8776169  32.6037483  36.7964592
  38.1387100  49.1478462  85.5164948  37.3713112  48.5826797  85.6054535
  37.7783546  50.0319366  85.4475021  75.4498062   5.3798122  87.7065430
  76.2648010   5.1650510  88.1602936  75.3576279   4.6959443  87.0431747
  13.9842501  14.4891853  20.1894779  14.1556005  14.1394768  21.0638771
  13.1870174  15.0090485  20.2914295  42.9872818  63.2153397  41.1658211
  43.6371841  63.9016991  41.3166962  43.2992630  62.4723473  41.6824074
  10.6487513  49.3419380  26.4145432  11.2588234  50.0793953  26.4003601
  11.1469831  48.6264877  26.8096733  72.4359512  68.4621506  83.7201080
  72.9375839  69.2745743  83.6525345  73.0984879  67.7713242  83.7255554
  65.8716888  48.0181198  27.4850483  65.2340469  47.4509659  27.0514832
  66.7211609  47.6363983  27.2638607  53.7310944  40.5794373  77.1780777
  52.9556160  40.9697990  76.7749939  53.3981819  39.8131752  77.6452408
  24.5083675  18.6012421  10.4041557  25.2921410  18.4039745  10.9170065
  24.6636410  19.4799805  10.0578299  16.6297855  52.1683769  41.8026314
  16.8884106  52.1670494  40.8810310  16.9694538  52.9949875  42.1455231
  55.6360016  43.7523766  88.7403641  55.9599533  43.2547951  87.9895630
  54.6971207  43.8454857  88.5789108   8.0825195  15.3111286  73.4141006
   8.2376671  16.1625500  73.8230515   8.1493568  14.6838799  74.1340485
  13.7325621  45.8492393  12.5772333  14.2533760  45.2523117  12.0399590
  13.1472034  45.2765350  13.0728092  67.2839050   7.8224297  83.6413116
  66.9198380   7.1986513  84.2694702  67.8883743   8.3563404  84.1568527
  65.2940292  41.7090454  58.6650352  65.1196518  41.9499397  57.7552032
  64.8752365  42.3987961  59.1799049  86.7170792  20.5583706  17.4437008
  86.2451782  20.1416836  16.7226486  87.0841370  19.8288574  17.9430084
  56.7972870  13.9458370  54.6935921  56.6339417  14.6951246  55.2664108
  57.6324921  14.1452799  54.2706413  45.0563507  42.4008904  52.0337067
  44.4809456  43.0133553  51.5754204  45.9258842  42.7960052  51.9702492
   0.6909809  63.4363251  10.0297937   1.5263453  63.8989334  10.0960512
   0.3793455  63.6301041   9.1457319  68.5716705  27.0654716  16.5454330
  69.4541168  27.3910675  16.3679581  68.2910995  26.6715164  15.7194109
  62.1242218  61.0989838  58.8092384  61.3627319  61.5859680  58.4942665
  62.4172134  60.5952225  58.0498848   1.6604820  23.0466709  17.4690571
   0.7518912  23.1918488  17.2052059   1.6217293  22.2914124  18.0558414
  67.0095062  47.9076538  37.0656395  66.4811249  47.1601334  36.7858963
  66.6268234  48.1717377  37.9023285   5.7585921  12.0219822   5.9576902
   4.8496475  11.9932966   6.2564011   5.8150511  12.8245182   5.4390569
  61.4359894  13.2556915  87.2629700  62.2177429  13.3750677  87.8022614
  61.1670723  12.3519373  87.4277191   2.5718660   2.7843950  49.1779518
   3.1628134   2.0538309  48.9954987   1.7869707   2.5913682  48.6652031
  79.1692810  25.7456665  61.4599953  78.8920135  26.6117401  61.7587814
  79.4731674  25.3045635  62.2532883   2.0584025   3.5495734  78.7602463
   2.8124673   4.1219921  78.9015045   1.5471156   3.6237388  79.5660477
  66.3415985   5.2371030  67.9964905  67.0760574   5.7156401  68.3809433
  65.5740585   5.7707462  68.2022476  76.2773590  54.9146271  37.4594269
  76.4873123  55.5534286  36.7781906  76.8183823  55.1734695  38.2054291
  42.3332062  34.9721565  24.8528137  41.5145798  34.6847572  25.2571487
  43.0178375  34.5511742  25.3726997  66.0527725   6.0695491  52.7123032
  65.8150101   5.4248476  52.0459251  66.7179642   5.6312704  53.2430267
  79.2271118  68.7310715  61.1152306  79.1626587  69.4807358  61.7069130
  79.9194717  68.9709015  60.4993172  73.7913589  64.4201202  37.4499969
  73.8976135  65.2597046  37.0027428  73.0021896  64.5295486  37.9805374
  56.6961823  13.0573578   2.4491904  56.8934402  12.6527653   1.6044273
  57.5346069  13.0688305   2.9108667  86.1842804  69.6068726  20.7378082
  86.9021606  69.7072067  21.3629570  85.6592331  70.3997726  20.8467522
  34.7153625  46.2311249  77.4305954  35.1156082  46.6791611  78.1757736
  35.0338249  45.3306351  77.4933014  21.6137791  38.5292053  17.8789825
  22.0835571  38.9113312  17.1376858  20.8272839  39.0675812  17.9673557
  55.2853546  43.3823509  75.9636765  56.0706062  42.9649849  75.6095352
  55.1496773  42.9576607  76.8107071  70.4286270  10.3921928  72.0708084
  69.6487656  10.9442797  72.0137405  70.1671066   9.6660452  72.6369781
  60.4858780  36.6237526  15.9855556  61.2039986  36.0259972  15.7776537
  60.8320808  37.4931793  15.7843637  76.2258224  56.2742119   2.6876194
  76.7776566  56.1540451   1.9147865  75.6434555  56.9976768   2.4559422
   4.6529775   5.8587260  86.4041977   3.9457734   6.2588449  85.8982391
   5.4010696   6.4411139  86.2722321  24.4652748  10.4880037  68.2243881
  24.0625858  10.2666655  67.3846970  25.3332863  10.8191366  67.9938660
  48.2445679  44.7930603  32.1999283  48.1362915  44.0102806  31.6597767
  47.5205154  44.7548714  32.8248482  20.5198097  60.4717941  11.5819588
  20.8945980  61.3426666  11.7136536  19.6096516  60.5573196  11.8657351
  69.5532608  45.1191864  25.5003681  70.1835938  45.0165672  26.2133789
  69.5072021  44.2533188  25.0949287  82.6770706  55.6617508  49.2446327
  82.5529861  54.8690109  48.7227135  82.3720322  56.3711166  48.6789665
  28.5680428  43.2219162  82.1152039  28.1251717  42.4084625  82.3568420
  27.8724937  43.7783012  81.7646561  62.3737373  40.3088531  12.6536570
  62.6867180  40.4401665  11.7586527  62.5384560  41.1447144  13.0900507
  23.4447746  24.5941296  72.5697327  23.5752354  24.8185310  71.6483994
  23.8098373  23.7134705  72.6557617  22.6076679  63.9913635  47.7486343
  23.5443993  63.7977791  47.7127266  22.2773323  63.4449348  48.4617424
  44.9482422  38.2871132  21.3420773  44.0109520  38.3785477  21.1707306
  44.9990005  37.6735306  22.0749989  85.0363617  17.5067272  59.0606499
  85.9217377  17.1547794  59.1526985  84.5807953  17.2190170  59.8518028
   7.7974300  36.1418037  42.3538628   7.3296866  35.3094788  42.4222984
   7.5517654  36.6204033  43.1455841  24.3200626  53.9911194   1.1351103
  23.8159218  53.1806145   1.2069093  24.3903542  54.1468277   0.1932789
   1.8865775  55.5316429  84.2664795   1.4245751  56.2213974  84.7429504
   1.6320157  54.7224426  84.7098999  61.1795273  36.4393196   8.1338577
  61.6779099  37.1085625   7.6648579  61.8394585  35.8115158   8.4281139
  64.4445038   5.8771367  87.6761017  63.4988022   5.7379322  87.7261505
  64.5381546   6.7541895  87.3042984  23.6482792  12.5756083  70.7262650
  23.4275303  12.5420990  71.6570587  24.5609570  12.8634806  70.7067719
  49.3497963  45.6002884  60.3741798  48.9273415  45.2952881  59.5712242
  50.1980820  45.1569061  60.3818130  68.5707626  29.2389908  68.6367569
  68.2940216  29.8373356  67.9427643  69.4917908  29.4535332  68.7847977
   9.8576727  52.5430489   4.1245604  10.7596149  52.6144676   3.8121016
   9.8689995  52.9597321   4.9862313  65.7100143  53.7199554  83.8795166
  65.1935043  54.0044746  84.6335068  66.1560440  54.5128326  83.5818100
  83.5195923  59.8829575  20.3869305  83.8257294  60.6407852  20.8851376
  82.5657349  59.9626961  20.3915901  67.3138275  44.9195938  13.2314405
  68.0372162  44.7523117  12.6273203  67.7320786  45.0045967  14.0882206
  71.0077362  38.8935814  27.1326389  71.4076843  38.1519775  27.5868359
  70.1075974  38.6145554  26.9649277  82.0866699  46.6794319  36.7907486
  82.4049301  47.5799713  36.7277565  81.3897476  46.6254044  36.1368256
  39.6070480  24.9915791  85.9151764  39.6301727  25.9449673  85.9973297
  39.1674042  24.6931629  86.7113419  55.2237892   3.7163866  64.0170746
  56.0318565   4.2230487  64.0980530  55.3771210   2.9345589  64.5476074
  35.2944374  44.0331688  13.2082548  34.3698959  43.7868538  13.2362080
  35.3459549  44.8303986  13.7355146   3.3276267   6.6912088  73.7621384
   2.6582322   7.1023726  74.3090286   4.0837188   6.5944901  74.3411102
  61.6995544  29.0716667  64.0041962  61.5925674  28.1314678  64.1484680
  62.6311073  29.1801205  63.8126869  44.4409180  53.8062363  52.7683754
  44.1595268  54.6359978  53.1537895  44.1076431  53.1385002  53.3677788
   6.5581222  54.8894157  -0.0966852   6.1890788  55.0923805   0.7628759
   5.8039494  54.6298447  -0.6259081  55.8545685  29.4798107  24.7787781
  55.1173897  29.3373470  24.1850605  56.0007401  30.4255219  24.7565041
   2.8965504  62.5820770  47.1817474   3.7910485  62.2473221  47.2453499
   2.9648769  63.4996490  47.4456100  66.7419128   1.9043708  43.9158134
  66.4208908   1.9440607  44.8167038  65.9955063   2.1791091  43.3832512
  38.2999153  59.7443428  53.7140312  39.1066551  59.7047005  53.2003784
  37.5996399  59.6583443  53.0671539  12.8477926   3.6516631  54.6608086
  12.2178402   3.5229306  55.3699074  13.6920738   3.4146016  55.0445061
  66.5777283  44.1709137  41.5799408  66.4367676  44.2002525  40.6336327
  67.5293655  44.1907845  41.6810722  53.6725922   0.3007707  35.8946762
  54.6266403   0.2951564  35.9720612  53.3830948   0.9382313  36.5474167
   2.4187589  69.3472900  79.2119370   2.2520874  68.4645309  79.5423813
   1.6358753  69.8439331  79.4500046  23.2635517  43.3248291  79.6654892
  22.8781242  43.1209869  78.8133621  23.2922077  44.2812080  79.6927948
  23.5701542  43.8886719  24.6546249  23.4294949  43.7184067  23.7232533
  22.7775726  44.3450584  24.9370461  77.6398392  19.3352909   6.3815885
  78.5583649  19.3238716   6.1124892  77.6693268  19.4731369   7.3283515
  57.4319382  10.9422035  64.5753860  56.8142509  10.7519913  65.2814407
  57.3954353  11.8934259  64.4750061  25.5609722   1.6889310  30.7149391
  24.6885090   1.5275662  31.0741062  25.6182709   2.6417699  30.6438980
  15.4916534  40.8906784  39.7812271  16.1897221  41.3417130  40.2560921
  15.5560255  39.9799728  40.0688095  47.6443977  68.2787399  84.5378647
  47.8725853  67.4704514  84.0787048  46.8276978  68.5643997  84.1284409
  43.7423744  50.5925484   5.9780588  44.5871582  50.4035187   5.5695972
  43.7406845  51.5424194   6.0962596  21.6737671  17.1768208   5.1587372
  21.6743526  17.2245274   6.1147475  21.6586113  18.0903606   4.8733487
  29.7735786  59.0376015  60.0575256  30.3641949  59.0862160  60.8092194
  29.0757675  58.4459763  60.3390770  74.6157227   9.2567596  56.3634567
  75.4163208   9.7347298  56.1470757  74.7380142   8.9839153  57.2727623
  67.5585785   8.8228750  76.7017212  67.9715271   8.5679283  75.8766632
  66.7435608   8.3215237  76.7265854  28.6203423  37.8167610  77.7436142
  28.2951412  37.3101730  76.9994049  28.0408878  38.5774002  77.7871094
  50.1280594  29.4221706   2.3588116  49.5936279  29.0947590   3.0822873
  49.5530128  29.3735714   1.5951427  40.0288544  56.2375374  40.4607201
  40.9330978  55.9840889  40.2754173  40.1051559  56.9517059  41.0934677
  48.0193443  66.2985382   3.6750729  48.0895882  65.9071426   2.8043814
  47.3716545  66.9958496   3.5726674   5.0097523  22.2070885   9.9633675
   5.1308856  21.7928219   9.1090012   5.6788774  22.8908291   9.9950438
  62.2128563  40.3792114  30.7831631  62.8489876  40.4723930  31.4923077
  61.6425438  39.6641541  31.0654182  82.1033478  25.9523926  10.4753571
  82.7092590  25.2395515  10.2729759  82.2696533  26.1539307  11.3962030
  54.2862015  44.3436470  48.6322098  53.3540993  44.3788605  48.8470917
  54.4276657  45.0946655  48.0558548  23.5067635  43.5925484  22.0096703
  24.2852001  44.1389503  21.9014435  23.2863159  43.3111496  21.1217251
  71.5765533  69.7612381  25.6807804  71.3794022  69.0982513  26.3424568
  71.6874466  70.5711136  26.1788139  24.2795620  67.1230621  30.9223137
  25.1743908  67.3358536  30.6572952  24.3144417  66.1968918  31.1615238
  28.8544979  44.2956505  77.0573196  29.5164032  43.7194061  76.6751480
  28.6666794  44.9340668  76.3692856   4.1562967   5.1527839  17.6535149
   3.3470623   5.4140635  18.0929508   3.8769274   4.8798332  16.7796249
  50.6027145  19.8916683  79.0731964  50.4956017  20.5635357  78.3998795
  50.4248428  19.0676632  78.6197586  42.5680275  67.3630905  44.5840683
  42.9638596  67.5644073  43.7361183  42.1603584  68.1843033  44.8591042
  36.4054375  36.3390198   2.9622035  35.9754410  36.8617134   3.6390538
  36.8500595  35.6418304   3.4443529  10.3818798  41.5077820  63.1506691
  10.8488750  41.4727554  62.3158531   9.8422375  40.7172241  63.1565895
  21.8692684  40.1457787   7.9535413  22.0071583  40.5935059   7.1188211
  21.8411884  39.2166405   7.7251863  49.8396683  67.2105789  53.5073166
  50.0518761  66.8042374  54.3476105  48.9001350  67.3867645  53.5569534
  25.7162704  65.3527069   9.4814796  25.8037930  66.0752487   8.8597927
  26.2076721  64.6338577   9.0839634  53.8698540  70.8588867  44.2994347
  54.3104439  71.6267548  44.6634254  54.0853653  70.8786469  43.3670197
   0.5841481  70.4355621  37.7954330   1.5069749  70.5830078  37.5883560
   0.4330530  69.5164795  37.5747833  16.5152912  20.5710068   7.5900698
  16.3189869  20.2099056   8.4545364  17.2400417  21.1773605   7.7427244
  83.3294525  21.9260921  55.0075455  83.2848969  21.0019283  54.7622490
  82.4930878  22.0998478  55.4394417  55.1279831   4.0191936  54.5669441
  55.7372818   3.7356052  55.2485390  54.2701988   3.7280285  54.8762398
  51.5022736  52.3869591   5.8523540  50.9497528  51.8074989   5.3277755
  51.1999092  52.2571754   6.7512221   0.7135563  18.9880390  82.2703171
   1.4689817  18.4055157  82.3492432  -0.0442782  18.4137306  82.3802643
  70.4216309  32.7698746  85.0563354  70.7252731  33.6665535  85.1977539
  69.5019684  32.7838173  85.3213882  58.6877251  13.5818758  43.6588593
  58.6789284  12.9787369  42.9156380  59.3732529  13.2427492  44.2344246
  38.5557213  35.7779732  27.4773521  38.8253632  36.6170006  27.8509274
  37.8105507  35.5057411  28.0129261  51.2098351  44.4164352  16.7165833
  51.7972336  45.0535622  16.3100529  51.5881157  43.5658035  16.4939728
  11.6860046  63.1975327  76.7485504  10.9694490  63.3152924  77.3721848
  11.2508602  63.0320625  75.9121933   1.8234527  44.3270912  25.0213680
   1.5295081  44.9703674  25.6663666   1.9900594  43.5348091  25.5320187
  26.9786015  60.9505386  36.2957993  27.4029961  60.7468910  37.1292572
  27.6099739  60.6739426  35.6316490  69.6362915  64.1813812  65.0850296
  69.5816422  63.5938606  64.3313370  70.5036850  64.5801620  65.0154648
  86.0247879   9.9001551  88.2182617  85.2231369   9.4336519  88.4548187
  86.7059708   9.4920664  88.7527618  56.1222153  37.3442612  66.2164612
  55.2370415  37.6553764  66.0269699  56.0667152  36.9900017  67.1039581
  31.1105537  43.7814751  81.9367218  30.2038670  43.5422859  82.1289291
  31.1519871  44.7219849  82.1098099  34.2711182  66.3866653  31.8032665
  34.5987816  65.9084091  32.5649338  34.2529640  65.7359619  31.1014938
  78.0047760  23.3992138   8.7897234  77.2374115  22.8279552   8.8219719
  78.0638580  23.6694431   7.8733625  20.6808834  65.9262543  20.7546444
  19.9941959  65.4806442  21.2507515  21.2180195  65.2179031  20.3997478
  73.7006302  55.4382668  26.0816307  73.0129013  54.7744217  26.1322861
  73.6591492  55.8908730  26.9240437  28.2102451   6.6768770  72.9178314
  27.9240971   7.5889950  72.9667282  27.5676003   6.2544680  72.3479080
  71.1393127  66.9785538   9.1261520  71.2088089  66.0658569   8.8461828
  71.9237976  67.3979034   8.7726669  73.6055450  40.1098518  55.7830696
  72.9615173  40.1756401  56.4881401  73.2854309  40.7099228  55.1095161
  37.5739784  66.2935715  17.4114113  37.6637383  65.6458740  16.7123718
  38.2730103  66.9255676  17.2435570  22.5574398  18.7625103  72.3956680
  22.6149998  17.8107967  72.4803009  21.9144096  18.9027042  71.7006226
  33.9049683  13.1820583   8.1095877  33.6404572  12.9102983   7.2307191
  33.5537872  12.5033512   8.6860085  60.2079773  25.1675911  87.1940155
  61.1442642  25.2545910  87.3729782  59.8918037  24.5598450  87.8625259
  30.0170250  30.7202415  19.5961342  30.3708420  30.5634975  20.4716206
  30.6135330  30.2547455  19.0098553  16.6362076  52.2669640  69.3007965
  15.7221947  52.2604599  69.5849991  16.9025307  51.3480110  69.3296051
  61.7690620  57.9371605  49.1071701  62.5363579  58.3646164  49.4876595
  61.0698929  58.5862160  49.1854095  85.7043381  71.0112457  47.9047012
  84.9574661  71.4795380  48.2776794  85.4102097  70.7468338  47.0330315
  33.9406090   1.9317330  47.5264931  33.4836121   2.5243604  46.9296837
  34.7550316   1.7155859  47.0723686   4.5157895  31.2826672  86.6195831
   3.9543180  30.8123474  86.0033188   5.4068480  31.0687332  86.3430405
   6.8962617  29.7430668  19.2909336   6.7758565  29.8272820  18.3450794
   7.2902470  30.5738163  19.5571327  22.8350697  43.0500603  16.5206776
  22.6587448  43.9261055  16.8637276  21.9988136  42.5904846  16.5961609
  11.9625425  26.7323494  71.0256195  11.9511652  27.2717228  71.8162994
  12.8530197  26.3834190  70.9865112  30.8163052  51.1654854  36.7687798
  30.5953560  51.9816971  37.2173500  31.6351299  51.3574524  36.3117142
  62.1483917  24.8645210  29.7840500  61.9935188  23.9504185  30.0220852
  62.6434021  25.2232590  30.5205994  65.9434814  29.0472851  25.4230976
  66.3686447  29.9038830  25.3817863  65.1124420  29.1699924  24.9642391
  61.1090202  26.0517254  70.5215225  61.5586319  25.6428146  71.2610321
  61.0431633  26.9757538  70.7624893  67.2974167   9.3167982  33.4019928
  66.7269211   9.8276358  32.8276978  66.7081757   8.7031279  33.8406715
  83.4207458  18.2261467  31.2797852  83.6709671  17.6627598  30.5475178
  83.7082520  17.7490253  32.0581970  26.4572525  69.6799316  64.6493912
  25.6887321  69.5807343  65.2113266  26.2914619  70.4835663  64.1565323
  63.3561783  40.0747223  28.2763195  63.6370316  40.9426537  27.9864120
  63.2052460  40.1734161  29.2163773  22.5700874   0.9639646  62.3715324
  21.6683025   0.7056620  62.1810226  22.5382271   1.3029503  63.2661324
   7.3788309   8.3424644  79.2066040   6.8942161   8.9397917  78.6368866
   8.0848551   8.0054293  78.6550903  41.7837791  69.2058563   0.7233034
  41.5922585  69.8302307   0.0235123  42.7360535  69.2345963   0.8159376
  15.8697529  48.8828545   5.6028495  15.9714212  49.7102013   6.0733757
  16.1326008  49.0842209   4.7047434  28.4529572  13.7922974  69.3717804
  27.9908009  14.6209717  69.2455215  27.8213177  13.1231861  69.1080475
   6.3008490   0.1536824  35.0075264   7.1644092   0.5610466  35.0749741
   5.7539940   0.8192601  34.5901680  33.0073547  63.4490051  71.7195740
  32.4682007  64.0113602  71.1634293  33.6946030  64.0273590  72.0503693
  63.9545059  33.7983856   5.0593085  63.1390991  33.3025284   4.9853687
  64.3489609  33.4904060   5.8752637   0.0153228  33.1414795  19.6912766
  -0.2269339  32.3672714  19.1831970   0.5490286  32.7998085  20.4086685
  84.0315628  50.7366600  88.3578110  84.9681625  50.7628822  88.5535812
  83.6120529  50.6169128  89.2098160  13.9470730  55.8401604  19.1428490
  13.4559059  55.2761078  18.5454979  14.8524694  55.7811928  18.8378716
   8.0877295   8.9780045  26.4281406   7.8339844   8.2258482  26.9630299
   7.6815300   9.7283554  26.8619690  80.8934555  20.5707150  79.4320221
  81.2204742  21.4702721  79.4413910  81.3403931  20.1610947  78.6912842
  33.1922607   7.3207116  85.2122269  34.0825882   7.1641207  84.8975372
  32.8823967   8.0637083  84.6943665  55.4160309  37.4872627  16.2168865
  55.6161575  37.8568497  15.3568935  55.8985710  36.6609306  16.2406387
  83.7830505  25.1586723  19.5903130  83.4158478  25.1225510  20.4735413
  84.3520966  24.3909073  19.5359211  47.1349525  28.6189690  56.3118057
  47.4968414  29.5037880  56.2631874  46.6350746  28.6091633  57.1280518
  79.5128174  13.7314005   4.9130292  80.1141663  14.0203362   5.5994153
  78.9009705  14.4600420   4.8083377  36.6396599   6.1279268  16.8084354
  35.7088394   5.9092813  16.8531990  37.0874367   5.2850261  16.8808575
   2.5743318  50.0883102  30.0028782   2.9097538  49.9607849  30.8902683
   1.7841483  50.6159019  30.1190224  78.1148605  34.9329262  25.2274952
  77.7542419  35.4029579  24.4756622  77.8006058  34.0349808  25.1217842
  30.7811241  67.5237198  83.0329895  30.4761772  68.3973770  83.2778549
  30.6145325  67.4668655  82.0921097  48.6232033  48.3825836  88.5922852
  48.2808533  48.2167511  89.4706573  47.9071732  48.8240814  88.1355515
   5.2955928  47.5354576  20.3404694   4.9921675  46.7258568  19.9297237
   4.6897783  47.6765785  21.0680027  37.3573151  23.1740303   4.6835446
  37.0973663  23.5023003   3.8227904  37.7524185  22.3206348   4.5051079
   9.0755548  48.2252083  38.6882210   8.2841463  48.0051270  38.1968269
   9.6881104  48.5440941  38.0254097  61.8729401  38.6111832  47.1460533
  61.9607544  39.0715332  46.3114281  62.6582222  38.0668449  47.2031288
  79.7900772  34.2591362  84.8363113  80.0016174  35.1926346  84.8443375
  80.6296234  33.8220673  84.9790115  51.0645218  12.5911198  46.9028816
  50.1405563  12.4415321  47.1032372  51.2707481  13.4223957  47.3302956
  11.8357744   7.6548786   0.1647642  11.0135298   7.2058716   0.3610758
  11.5793333   8.5616760  -0.0031302  78.3628464  45.8642120  36.1807098
  77.8648224  45.1569138  35.7709160  78.5857697  45.5283699  37.0488968
  20.7479630  55.7847023   3.8457778  20.8364315  56.7024918   4.1028104
  21.4876328  55.3459167   4.2660050  55.5802040  17.9261570  87.9821930
  54.7709579  17.4906006  87.7145386  55.5635796  18.7657318  87.5227661
  65.0064087  60.5078239  72.6081696  64.3534241  61.0991631  72.9825516
  64.5010071  59.7528839  72.3067245  62.6306610  68.8327637  26.6020164
  62.6391602  69.6000137  26.0297451  62.6977081  68.0877533  26.0047817
  81.7715225  11.8756666  62.9619255  80.9679718  12.3892069  62.8793106
  81.4787140  11.0227003  63.2827797  74.4014740   7.6583457  82.6919250
  74.1203613   7.3603916  83.5570450  74.5874786   6.8525910  82.2098541
  35.8150139  29.2452259   1.7654325  36.6308174  29.7294350   1.8928546
  35.8692856  28.9164524   0.8681059  10.3505144  60.4472923  39.9159355
  11.0572367  60.6730690  39.3111229   9.5545015  60.5091553  39.3879509
  85.7030640  53.7765808  87.1302490  85.9969025  53.3253021  87.9216080
  85.6689529  54.7000427  87.3798218  59.5487328   6.0634847  36.1223373
  60.4491158   5.8525467  35.8752518  59.2020645   6.5481057  35.3732071
  52.9290581   5.6632071  49.4526482  52.7092896   6.0246606  50.3112984
  53.1303291   6.4290004  48.9147949  81.8940201  55.9352341   5.9115486
  82.3031311  55.0995331   5.6869111  82.5961685  56.5788231   5.8165898
  14.5148821  49.8529243  48.5696640  14.6060247  50.7318497  48.9376526
  15.3275261  49.7110901  48.0841484  79.3814621  34.1287651  48.7071190
  80.1526260  34.6849709  48.5967979  79.3779068  33.9061546  49.6380653
  56.9420853  24.4496841  37.4815559  56.9993896  23.5966816  37.0510483
  56.4709358  25.0017662  36.8574944  36.0748329   5.7646556  84.7932205
  35.6312065   6.1842508  84.0560837  35.4617767   5.0923200  85.0904770
  29.3838997  19.0102959  77.6200409  29.1078548  18.6430798  76.7802887
  28.5703316  19.1211052  78.1120377   2.8090844  39.3800468  31.8475189
   1.9284055  39.6788826  31.6209507   3.3920650  39.9553871  31.3521900
  55.3819389  22.8738537  25.1814003  55.7512436  22.6154766  26.0258446
  54.7318535  23.5420017  25.3986473  27.0126324  63.1243439  78.2166443
  27.2635078  63.4858780  77.3666000  26.0786285  63.3191643  78.2935562
  82.4947815  69.2507172  69.3144836  82.6348038  69.6973953  70.1494064
  83.0574875  69.7168350  68.6961594  74.3879318  29.8136234  54.7160835
  73.8904343  28.9986286  54.7832794  73.8017197  30.4148808  54.2566452
  64.4850769  41.0270920  83.8952713  65.2347412  41.1069946  83.3054810
  63.9401016  41.7879257  83.6943512  14.0875158  23.3953400  10.6642294
  13.6773882  22.8027515  11.2942038  14.9182682  22.9736729  10.4445038
  24.8460617  15.6972227  55.5866508  24.4108028  14.8693438  55.7901192
  24.1354790  16.3370857  55.5433083  54.2087784  14.4094877  26.0409756
  54.1568489  15.3077898  25.7144947  53.9436760  13.8685856  25.2970829
   0.3750253  53.3422394  26.3821888   1.0803792  53.5999603  26.9757271
   0.7810857  53.3375664  25.5153999  47.5610237  55.0131187  43.5208054
  48.3380661  55.5581551  43.3968201  46.8503838  55.6381950  43.6639824
  21.4465122  69.9825211  64.7792511  21.1037960  70.0749512  65.6681976
  20.8362980  70.4795380  64.2344131  46.4373589  20.8485126  71.7188644
  46.4982681  19.9423389  71.4165878  45.8845444  20.8041115  72.4990311
   0.7322263  17.5310154  20.8238544   0.2804050  16.6946049  20.9356804
   0.5894153  17.9927254  21.6500854  53.9588737   2.7111392  22.6579494
  53.6749191   1.8592483  22.3264618  53.1689911   3.2514229  22.6377029
  50.7183838  50.6869888  66.7675095  51.5421181  51.1146622  66.5334320
  50.5446663  50.0880585  66.0413361   8.6692524  29.9719639   7.0993452
   8.0437698  30.2891331   7.7508101   8.1407509  29.4540386   6.4921613
  85.0023499  44.0189400  66.8835449  85.7401886  44.1844788  66.2966690
  85.3904800  44.0057449  67.7584305  16.5685940  64.0760269  45.3002052
  17.4800625  63.8235359  45.4475288  16.6175117  64.9811401  44.9926147
  14.5543947  57.9955902  63.5260620  15.3632956  57.4971237  63.6419945
  13.8997068  57.3382874  63.2903328  73.3583679  70.1647110  23.6926537
  72.6479874  70.1404190  24.3337498  73.1809616  69.4259033  23.1104813
  65.9444962  49.9148331  81.7349014  66.0261841  50.8613281  81.6178284
  65.0137482  49.7744560  81.9087906  72.1970520  50.4682388   6.8573785
  71.8088760  49.6291962   6.6092834  72.4148331  50.3667564   7.7839351
  74.2646408  70.1467590  75.5121460  74.9042740  69.4367981  75.4568863
  73.4478607  69.7581863  75.1988983  51.8367386  33.6299171  15.7429476
  52.7155685  33.4000206  16.0446739  51.7896576  34.5805435  15.8445683
  52.8972130  57.8300705  45.8400497  53.7993279  58.1395798  45.7586670
  52.9461708  56.8947334  45.6426163  38.2347412  71.2237625  71.1238556
  37.4247475  70.8453445  71.4658127  37.9592934  71.7264786  70.3572769
  81.4136658  14.3285999  15.4234066  82.1860428  14.2763414  15.9863796
  81.2513504  13.4242773  15.1549168  28.6034794  53.8321648  45.9994850
  28.5553894  53.1916618  46.7091866  28.5611572  54.6810722  46.4397087
  84.3816147  41.3810806  80.9214478  84.8495941  40.6740303  80.4772568
  84.2914963  42.0635300  80.2563400  60.0695038  24.7384949  75.4266205
  60.3205223  25.0671940  76.2898560  60.8566742  24.3047333  75.0973053
  80.7272568  15.1595573  48.2869797  79.8066483  14.9490767  48.1307411
  80.7479248  15.4924030  49.1842079  35.7503395  41.5492172  64.1835938
  35.5336342  40.9958115  64.9339371  35.0237312  41.4211845  63.5737762
   7.3972483  44.7939110  12.3624973   7.8933816  45.4612541  12.8365602
   6.9118590  45.2831306  11.6981974  49.6930656   1.0807984  23.2481136
  49.9834480   0.3395840  23.7796307  50.3742294   1.7426014  23.3675423
  22.7295494  28.9650669  18.3007336  22.6682377  28.8809509  17.3492088
  21.8205204  29.0210171  18.5953007  37.4659004   3.6112816  18.2862873
  36.8093605   4.0267277  18.8453884  37.4111176   2.6806467  18.5034256
  82.3406982  25.8253307  68.1773911  82.1636505  26.2769260  69.0025864
  81.9460144  24.9603653  68.2882385  85.4206848   6.0296493  31.5947380
  86.3466034   5.9614754  31.3617935  85.0057526   5.2935538  31.1450462
  26.4457035  38.6283417  24.4446545  26.9868279  38.9782257  25.1524658
  27.0731297  38.2550201  23.8256226  85.1578140  25.7706127  68.4591446
  85.5242004  26.6350975  68.2729950  84.2213593  25.8647385  68.2846909
  84.2915573  37.7121506  30.8490601  84.5899658  36.8188744  31.0200577
  84.2399292  38.1172714  31.7147636  42.7049522  47.7518044  44.2450333
  43.3989677  47.1845093  43.9092445  42.4314766  47.3370705  45.0632248
   4.4805417  30.4856148  69.5442657   4.0906610  29.7996902  70.0862350
   4.7458334  30.0353985  68.7422943   7.7340279  70.3627014  82.4189911
   7.6682849  69.8709106  83.2375565   6.8287358  70.5804291  82.1970139
  67.7116470  22.9214611  38.5607834  67.6141586  21.9733067  38.6487045
  68.4660492  23.0320320  37.9820900  78.6886139   1.0949425  64.8047180
  79.4901733   0.7073873  64.4532471  78.1587601   1.2913090  64.0321045
  15.5762558  58.6899986  68.9001770  14.7519197  58.3513107  68.5509033
  15.9044838  59.2735214  68.2160721  60.9697647  71.2353210  28.6671104
  60.2573318  71.3887558  28.0465221  61.2063103  70.3168564  28.5378971
  59.0554695  50.8236160  64.1668777  59.3380432  49.9223213  64.0117874
  59.4268723  51.0475998  65.0201797   0.3214435  56.5045471  37.7468529
   0.0779028  56.3860359  38.6649323   0.7794328  57.3448372  37.7270966
   8.7905216  69.9975662  47.9818726   8.9674978  69.9397430  48.9207916
   9.4350882  70.6251221  47.6548500  59.9394112  50.2218132   3.2087181
  59.2855949  49.6679344   3.6353045  60.7730179  49.9442978   3.5886099
  18.1756153  39.5689278  20.6489315  18.7500172  38.8812485  20.9856701
  18.2418003  40.2733078  21.2936764  70.3559570  58.5920181  61.0952072
  70.3255005  57.9559135  61.8098221  70.3889847  59.4426193  61.5329514
  36.1753731  66.5484238  64.5601730  35.9309921  66.5671463  63.6348877
  36.7353821  65.7767181  64.6444244  61.5396423  51.1380959  12.0707445
  61.7294922  50.6051712  11.2986193  61.4252052  50.5031090  12.7777996
  76.4712982  68.2323761  61.0172005  75.9112854  68.9533997  61.3048592
  77.3601151  68.5234451  61.2209587  70.4485092  31.8669281  27.0854683
  71.0139465  32.4203720  27.6241837  69.7933197  31.5282116  27.6955681
  77.5936356  29.6237221  42.0348320  76.7817230  30.0351620  42.3310623
  78.1231079  30.3493786  41.7042046  34.7515831  37.6003647  12.5614138
  35.3328362  38.1514435  13.0855198  34.6918373  36.7806816  13.0521107
  72.9159775  47.3800201   8.8243151  73.3200378  48.2205696   9.0398054
  73.4177704  46.7374687   9.3258781  31.7496376  63.8785667  85.4742050
  31.9869747  64.5220261  84.8064728  31.9993401  63.0361328  85.0944824
  54.1116714  45.4971771  82.6996689  54.1540108  45.2138977  83.6130142
  53.1774597  45.4946022  82.4911652  11.4579372  65.8140640  26.8988628
  11.6842461  64.9375229  26.5879021  11.2293673  65.6898117  27.8200302
  60.6531067  28.5127468  42.9978256  60.0530968  27.7770653  43.1202698
  61.4225883  28.2835407  43.5189743  74.5505295  64.1881561  32.4791527
  74.1939468  64.1055984  31.5946960  73.8553391  63.8597145  33.0493011
  67.2106628  51.4213333  15.7251806  66.4842300  51.6232643  15.1354780
  66.7920303  51.2326660  16.5650501  18.3729744  68.1426544   7.8571243
  17.7704105  67.4637146   7.5534968  18.5581436  67.9091949   8.7667608
  86.7896271  20.4051571  14.1232700  86.0096207  19.9813366  14.4813108
  86.4682770  20.9017544  13.3707037  45.2298508  25.3973331  24.5069962
  45.1071854  25.1731682  25.4294586  46.0715637  25.8523865  24.4809761
  64.5812988  54.1732254  46.2994766  63.8915672  53.7283554  45.8069382
  65.1050339  53.4639626  46.6721458  27.5227013  41.7942543  41.9997711
  26.8672600  41.1072922  41.8784790  27.4104328  42.3688164  41.2424660
  48.5395012  39.2554245  17.1879997  48.2389183  39.9480324  16.5996342
  47.7372780  38.9055481  17.5756302  46.2221146  45.8354530   1.4798483
  45.3011932  45.5890656   1.3936788  46.6978683  45.1535912   1.0055507
  40.2515984  56.5119896  46.5103073  40.1508331  57.4206924  46.2268677
  41.1455345  56.2802734  46.2584801  41.8242111  12.2082357  63.5364876
  42.1731796  13.0972052  63.6011925  41.4332542  12.1673365  62.6637268
  52.2225838  41.0307884  34.1279488  53.0572357  40.7697716  33.7387695
  51.5625420  40.5677490  33.6120300  33.2611046  54.4330902  15.0121975
  33.7676849  55.1980515  14.7393579  32.5966873  54.3303680  14.3308535
  64.3550262   9.5724640  63.9538918  64.1687469  10.5092468  63.8908768
  64.9665604   9.4011621  63.2377129  26.3984947  71.6810684  41.0278091
  26.2206211  71.9346161  40.1221008  25.7308350  71.0251694  41.2284431
  59.1008377  28.5736427  66.2611084  59.8049431  27.9751549  66.5106735
  58.4844742  28.5365639  66.9925156  52.6744881  46.5758743   7.8276763
  52.9328384  47.4828911   7.6639361  51.7766418  46.5198097   7.5006256
   5.1576648  66.7474670  34.8656960   5.5371327  67.4732971  35.3610802
   4.6149559  67.1697845  34.1998520  41.9591446  61.4809990  12.8454609
  41.2214050  62.0789490  12.7253618  41.5552101  60.6482658  13.0896435
  61.6971970  31.2104168  87.7650070  62.3059616  31.9351025  87.6219482
  61.2082329  31.4596252  88.5492554  48.0984650  63.2028084  40.9764977
  48.4263802  64.0930328  40.8492050  48.7451935  62.6452103  40.5439987
  71.4979248   7.4431672  16.5936050  70.9746323   8.1779289  16.2734165
  71.3222504   6.7356935  15.9732428  36.8682022  54.7889900  62.4199409
  36.3129959  54.4209633  61.7325287  36.3522873  55.5076904  62.7853661
  50.0736237  56.9534988  37.2832642  49.1779022  56.7717667  37.5676651
  50.5254707  56.1134796  37.3634644  56.6006241  20.7060757  75.5831146
  57.2361374  21.4147778  75.4826508  55.7860298  21.1472111  75.8240891
  83.1336594   9.8276386  59.8631401  83.4304123   8.9761267  60.1842308
  82.9874725   9.6928644  58.9268227  17.5386677   5.3480864  39.6463242
  18.4309502   5.3618069  39.9925575  17.1249428   4.6017470  40.0799637
  74.0605316   7.4039679   6.6618838  74.0674210   8.3610954   6.6522965
  73.3520355   7.1755676   7.2636337  36.6647263  32.9503365  83.5966187
  35.9587288  33.2216187  84.1833038  36.2337608  32.4025803  82.9405212
  21.6591663  55.9503784  46.1029282  22.6129818  55.8743095  46.1290016
  21.4578457  56.1247635  45.1835327  62.9275818  29.4853287  18.4912128
  61.9914589  29.3609791  18.3348618  63.3037987  28.6097603  18.4013634
  73.7795868  62.4901543  21.4650860  73.5542984  62.7089958  22.3692913
  74.2195587  63.2722206  21.1318779  80.6661835  43.5740891  16.1584740
  81.4810181  43.8857346  15.7645741  80.5608368  44.1086311  16.9454956
   3.3638747  35.4634171  51.4890518   4.1513963  35.9979095  51.3872719
   3.1018279  35.5941238  52.4003601   7.5451088  29.1784077  58.2473221
   6.8247852  29.2887821  58.8679543   7.2420745  28.4968510  57.6474228
  57.9721832  57.7547569   9.9729815  57.2870560  57.1712418   9.6468697
  57.6128006  58.1170120  10.7828264  71.3624725  63.9936218  82.2994080
  71.5145798  64.7326279  81.7103729  70.9312744  64.3797913  83.0617599
   7.8169832  34.0803185  15.4199352   7.2989311  33.9479752  16.2138748
   8.4985733  34.7003288  15.6792650   5.5466394  36.0736275  16.6359291
   6.4798584  36.0774460  16.4230461   5.1898665  35.3396568  16.1357021
  34.4412079  64.8005600  55.7983360  33.5737457  64.4055939  55.7103271
  34.7829514  64.8295670  54.9046898  58.2080574  51.7266846  87.6295929
  57.5920486  51.0056343  87.7594070  59.0643005  51.3495102  87.8316269
  58.3044014  24.9200840  81.1337738  57.9109879  25.7907600  81.0756226
  57.5608597  24.3183727  81.0974121  20.8941307  67.0609055  86.1271820
  21.5465336  67.3816910  85.5045242  20.4783783  67.8529587  86.4678192
  63.9257164  29.0216370  83.2681885  63.5920143  29.6954384  82.6758423
  64.1296387  28.2807026  82.6975174  65.0539703  21.9733963  87.5430832
  64.5752640  22.6806068  87.1107330  65.9716415  22.2414875  87.4958038
  23.3227711  45.5123215  51.6325722  24.2628746  45.6670837  51.7246971
  23.2060680  44.5942764  51.8771248   4.2854724  26.6060047  16.0881977
   5.1129303  26.3097992  16.4674168   4.0204010  25.8940277  15.5059090
   0.2061901  40.3731842  51.3684959   0.9885451  39.8868446  51.6285477
  -0.4551011  39.6984749  51.2145576  24.3220787  44.1964836  32.1374168
  24.8318844  45.0057220  32.0991364  23.6957531  44.3413010  32.8466225
  64.6354446  56.5862617  31.2523155  63.8096619  56.4397125  31.7136555
  65.1557770  55.8047028  31.4384689  76.8762512  37.7769547   0.1530290
  77.2183151  38.4496880   0.7418028  77.2113953  36.9540939   0.5091316
  53.5800285   8.2702026  12.7890825  54.4033737   8.7505322  12.8763657
  53.8097725   7.4911170  12.2826500  49.8072281  12.5174551  78.0564117
  50.1231537  13.3184242  78.4745865  49.4429703  11.9999628  78.7745743
  62.3245163  36.5835304  21.9182377  61.4533501  36.2099953  21.7849045
  62.7121239  36.6056099  21.0433083  62.9217072  43.2290268  10.9496832
  63.1387062  44.0471382  10.5026531  63.7609329  42.7788658  11.0460777
  43.8016777  27.7409897   3.5010340  43.1602478  27.7198772   4.2112126
  44.5298080  27.2077770   3.8200042  56.3668060  49.4427109  44.4707069
  55.5033035  49.0296898  44.4727554  56.1876602  50.3730164  44.6073532
  14.3445368   4.5260768  58.6053276  14.4927187   3.9016228  59.3154907
  13.6939402   5.1354451  58.9540749  65.1375885  17.7585411  79.8986359
  65.1196136  18.3667068  79.1596909  64.3820114  17.1880302  79.7577362
  39.5163116  70.2216568   4.5432243  40.3226204  69.8372498   4.1992278
  39.3114395  69.6962128   5.3166409   1.7405196   0.5261383  53.9988861
   1.5752265   1.2773675  54.5685921   1.6728380   0.8789184  53.1116447
  52.2402649   6.0793347  18.9494095  52.0241890   6.0085893  19.8792152
  52.4943695   6.9946313  18.8315353  57.2838554  60.4742813   3.9849946
  56.4343910  60.8899536   4.1328373  57.4603195  59.9953537   4.7947593
  47.4819183  51.7882767  57.9826736  47.4650116  52.0552864  57.0636253
  47.9142799  50.9343147  57.9760742  20.0071449  67.7980347  59.0764160
  19.8044910  68.3920364  59.7991333  19.3785896  67.0823669  59.1711540
  72.5064621  42.4184837  54.6597633  71.6946869  42.3794403  55.1654625
  72.2185516  42.4999771  53.7505341  77.4121704  66.5688248  77.8882904
  76.4903030  66.8261108  77.9022980  77.6686783  66.6468658  76.9694061
  53.8166351  66.2608871  45.2444992  54.2038765  66.5994797  46.0517349
  54.5664253  65.9932785  44.7130585  71.7681732  42.4002762  58.2474594
  71.4897232  42.9379425  57.5060959  71.6804123  42.9759445  59.0071564
  33.9731750   0.0686117   1.9447165  33.0273590  -0.0738799   1.9077765
  34.1250877   0.4443894   2.8118641  22.2999611  39.5272713  58.7725563
  21.8143196  39.4291344  59.5915527  23.2054138  39.6725273  59.0469398
  53.8258476  57.9115334  22.3448353  53.5943756  58.8125229  22.1192970
  54.7646217  57.8537636  22.1670837  69.9362869  18.5318356  74.8527069
  70.3567200  17.6751480  74.7781754  69.1480637  18.3675804  75.3703461
  36.0900002  38.6188202  77.0777283  35.4301987  37.9724312  76.8265839
  36.7648201  38.5469551  76.4026794  16.5084362  36.0823517  11.8550291
  16.5179806  35.1290207  11.7696047  15.6846762  36.3510361  11.4482651
  77.8240204  44.3096123  43.5985107  76.9507675  44.0119553  43.8535957
  77.9068527  44.0503769  42.6808128  65.1321106  31.4025345  62.9049149
  64.7906036  30.5706463  63.2328873  64.4171677  32.0246353  63.0393639
  28.7852345   7.1404929  16.2144527  29.2875252   7.8522801  16.6110573
  28.1945343   6.8484077  16.9087086  80.7834702  71.6930084  76.3951721
  80.1906662  70.9773331  76.6245880  81.6581039  71.3094101  76.4592438
  73.7239304  11.6330442  24.6132851  73.7748413  10.6835718  24.5030956
  73.2033691  11.7544403  25.4073296  24.6742249  46.6071281  83.5057755
  25.0584736  46.6888466  84.3786545  23.9780045  45.9586067  83.6103287
   1.8577904  36.0911331  36.4326744   2.2684999  36.7029762  35.8217735
   1.8220454  35.2628021  35.9543190  25.3347950  66.2754517  36.4649429
  24.6820412  66.8983536  36.7845421  25.3250732  66.3850784  35.5140915
  80.9468689  51.1824837  67.4896545  80.0956116  51.4953766  67.7957458
  80.7363586  50.5387764  66.8132248  85.8418274  42.9422989  15.1014528
  85.2054901  42.3632965  15.5210581  85.5756912  43.8227577  15.3664007
  12.2017393  30.5797577  61.6862640  13.0076962  30.4358444  61.1903305
  12.4983692  30.7598190  62.5783539  29.8244171  21.6128941  76.8035202
  29.4376545  20.8489170  77.2312851  29.5385914  22.3555489  77.3354950
  24.3576641  44.9215202  41.9140167  24.1482430  45.2509117  41.0400200
  25.1860542  45.3457375  42.1377182  61.8200760  18.2366562  65.2456589
  61.5935249  17.5947666  65.9186249  61.3366280  17.9515362  64.4702759
  59.2863312  63.5935555  28.9327564  60.1277657  64.0186539  29.0986214
  59.2297592  62.9069328  29.5972710  66.5445862  61.3235970  30.0046463
  65.8752975  60.7367783  29.6526012  66.6736679  61.0266609  30.9054241
  66.5196915   7.3412495  55.2446289  65.9712753   7.5024266  54.4768410
  66.0194321   6.7162366  55.7693481  70.2441330  45.3384933  19.4460773
  70.8237457  46.0779190  19.2629776  69.3699265  45.7254524  19.4935188
  48.1000557  57.9917564  30.2366066  48.7952042  58.6209488  30.4292679
  47.2953300  58.4334030  30.5078964  46.5094376  37.1829185  14.6266422
  46.5564270  36.5937004  15.3795328  47.3975372  37.1865845  14.2695742
  13.6185455   3.3655589  25.8973083  12.7450180   3.6673644  26.1464977
  14.0306921   3.1159348  26.7243843   3.1192365   8.2949858  33.2555809
   3.0843909   8.5032759  32.3219681   3.4322252   9.0995855  33.6689682
  15.5192327  42.7533188  68.5289993  16.4511795  42.5513611  68.6121826
  15.3892231  42.9028931  67.5925446  41.8061028  45.4095612  60.2187309
  42.2121506  44.6864052  60.6966400  41.2743034  44.9836655  59.5463982
  24.4543800  43.0179100  10.7072916  24.2132435  42.0951881  10.6256180
  24.6459122  43.2956085   9.8115053  33.3501625  20.3558044  84.0766830
  33.6105385  20.0111408  83.2224884  34.1338730  20.2683659  84.6192474
  22.4113331  48.8213768  25.1414318  22.5701218  48.6787186  26.0745277
  21.4772453  48.6458435  25.0278530  56.4131241  52.2472000  21.7165489
  57.0122452  51.5928383  22.0758495  56.9383583  53.0451164  21.6558304
  66.4685974  62.4348030  82.0560150  66.3714828  61.7599144  82.7278214
  67.4130325  62.5783081  81.9954453  12.3870153   3.6086614  63.1236382
  11.4724236   3.8224146  62.9390755  12.5446444   2.7958398  62.6433220
  27.1382008  65.4890976  18.1521988  27.9025841  65.1509399  17.6857224
  27.2659836  65.2066574  19.0578079  47.9590187  52.6942902  79.1046448
  48.7707787  52.4585152  79.5537491  47.4684792  53.2048035  79.7488403
  38.5372086  19.6394043  15.8684225  38.6305389  19.3673801  14.9554462
  38.5341034  20.5959873  15.8342018  58.8477898  69.1237869  85.1624146
  59.7882614  69.1030655  85.3393707  58.7518654  69.7567520  84.4508057
  12.0926447  36.2958870  41.0050468  11.4756756  35.8757706  41.6042824
  12.9398918  35.9069061  41.2220726  32.7530708  39.3704681  87.9487839
  33.5051460  39.8587532  88.2837372  33.0464706  38.4594688  87.9335785
  15.1593390   0.6913168  58.1853905  14.4390707   1.1535023  58.6141434
  14.8428192  -0.2066558  58.0869408  20.5807953   9.8045616  23.5525990
  21.3955059  10.0817051  23.9717274  20.2356701   9.1218243  24.1279163
  69.0209579   9.9948587  59.3956680  69.4706497   9.5759077  58.6618500
  68.1612320  10.2302761  59.0468369   1.8268446  30.8056049  80.1169510
   2.1543469  30.9681015  81.0015869   2.5249147  30.3083820  79.6906891
  44.8156700  49.4483566  44.9437447  44.0368881  49.0201607  44.5882378
  45.5259056  49.1734276  44.3639069  18.3660450  56.8176270  84.3648376
  18.3036175  57.2922401  85.1937408  17.5598335  56.3034134  84.3219604
  50.1799393  13.5570621  58.8697166  50.2753258  13.2100410  59.7566833
  49.5147972  14.2406836  58.9502335  50.2235489  29.5770187  74.7088470
  50.8542099  30.1418629  75.1554413  50.6627655  29.3223095  73.8973999
  44.4632721  49.6129379  10.1063805  44.7898102  49.1574402   9.3304138
  45.2501564  49.8252296  10.6083508  36.8124657  20.4886322   3.2367811
  37.3394432  19.7647781   2.8983133  36.6852646  21.0650787   2.4832828
  55.0059891  68.5391922   6.7617784  54.3834229  68.4233398   7.4795680
  54.4585724  68.6217575   5.9809122  48.6797791  46.0348167  79.7229614
  49.4932861  46.4987068  79.5248566  48.2036819  46.6249847  80.3071365
  46.5711937  33.8998642  23.0489712  46.6673279  33.6857414  23.9769478
  45.8572578  33.3386459  22.7463818  21.6379890  67.5153580  54.9369850
  22.2889919  66.8150711  54.9820404  21.3726883  67.5369492  54.0175362
  54.4055519   9.7005186  33.6453438  54.1126671   8.8878355  33.2330399
  53.8609276  10.3802748  33.2484207  21.8601513  18.8683949   2.6571126
  21.2732925  19.5040798   2.2475588  22.1836720  19.3116894   3.4413674
  65.8826904  46.7613869  60.4398727  66.1429062  45.9199562  60.0650177
  64.9783249  46.8829575  60.1507950  73.4577637  33.8698578  13.9574900
  72.7563019  33.2193031  13.9886475  74.2483826  33.3806953  14.1852379
  51.8657379  49.7673149  85.1984406  52.5965881  50.1262512  85.7016830
  51.2704315  49.4139290  85.8594742  78.0145950  36.5679207  53.9661636
  78.8191757  36.0614166  53.8551216  77.3124542  35.9217491  53.8906898
  23.6097202  24.5662842  59.8420982  23.7176838  25.5157585  59.8975258
  23.1933632  24.4217701  58.9923935  82.2895889  42.3222466  75.6405792
  82.5818787  43.2217636  75.7877655  82.4610214  41.8759766  76.4698486
  48.0712624  35.0822029  21.1060486  47.5817909  34.8550797  21.8966579
  48.7755318  34.4351692  21.0662060  19.5262947  61.0151825  38.1059875
  19.8236656  61.4608421  37.3127708  20.1411037  61.2965012  38.7835579
  11.8886766  15.8585892  83.1777573  11.6223087  15.4982090  82.3319473
  11.1242914  16.3486443  83.4807358   9.3951130  56.3320961  46.8358231
   8.7001905  56.3548546  46.1779480   9.4055595  55.4252129  47.1419067
   6.2584467  65.3640442  79.7140656   6.5147681  64.9019775  78.9159317
   5.4001813  65.0024109  79.9350433  77.5645218  58.2920952  20.6310291
  77.1252594  58.1428223  19.7937737  77.6930771  59.2398872  20.6684265
  13.1623268  43.3271141   0.2002352  13.2051401  44.2508430   0.4474689
  14.0270576  42.9801521   0.4195265  38.0852242   0.9008873  86.8624649
  38.7635384   0.5228767  87.4221344  37.2863770   0.8511691  87.3874359
  59.4712791  65.7194214  35.9740257  58.6667442  66.1503143  35.6854248
  60.0743065  66.4387817  36.1613846   8.0285673  46.3512230  70.1698074
   8.3963003  46.9023552  70.8606491   7.3307514  45.8589134  70.6021500
  52.5335197  49.9484367  37.0918045  52.6697693  50.0780411  36.1532593
  51.8095131  49.3245506  37.1448212  76.3244324  16.0514812  31.7179527
  77.0413437  16.5724506  32.0797043  76.3809891  15.2140560  32.1781197
  66.6951828  55.7547569  22.5145683  66.9242477  55.1076736  21.8474522
  66.4010925  55.2342606  23.2621136  77.3858643  18.0667095  69.2597656
  77.3464279  18.1976242  70.2071533  78.2862396  18.2905865  69.0243149
  85.2081757  24.9620667  72.7988663  85.8417282  25.3270226  73.4166412
  84.3658295  25.3185558  73.0810242  49.3922234  61.5453873  30.3256226
  49.5045891  62.4941978  30.2675743  48.9795418  61.4047661  31.1777687
  80.1945038   2.0547552  50.4728279  81.0623169   2.3604977  50.2089157
  79.7673492   1.8090161  49.6522293  82.9654236  37.5506134  37.9283562
  83.1764755  36.9641304  37.2019081  83.3301697  37.1171112  38.6998940
  17.8528023  37.8890877  69.9176559  18.7351608  37.7700615  69.5662231
  17.9713879  37.8898811  70.8674850  67.1166000  61.7751694  65.8379059
  67.0626831  60.8266983  65.7207565  67.3796921  62.1079140  64.9798355
  37.8057938  32.6255035  65.2513657  37.6082306  31.9256458  65.8737793
  38.6955757  32.8995781  65.4736328  53.9969406  39.9572411  32.1555748
  54.1723747  39.3034096  32.8323021  54.8298035  40.4155655  32.0437050
  80.8724518   4.7740135  41.9065552  80.1736679   5.2761374  41.4872627
  81.3460007   4.3694921  41.1796837  12.9129686  68.7520523  12.4670277
  13.2208757  69.5287094  12.9341774  13.7099199  68.3458786  12.1262608
  84.2546768  34.5003090  70.3765106  84.6052704  34.2961731  69.5095444
  84.2470474  35.4567986  70.4126511  58.9366264  58.1388893  60.8585739
  59.6989059  58.7128983  60.7832298  58.8545341  57.7351036  59.9946022
  63.4117966  25.9773617  80.6942291  62.4878197  25.7613850  80.8201599
  63.7931404  25.1858788  80.3142776  18.1923275  14.1923370   7.2485828
  17.5642433  14.6200027   7.8306870  18.9050903  13.9177999   7.8254976
  70.1286240   5.7648048  19.0074406  70.2738113   4.8782969  19.3379822
  70.9761963   6.0287156  18.6493740  22.1092148  31.3310337  87.8560486
  21.5610447  30.7839050  88.4185333  21.5110950  31.9932537  87.5097122
  60.3839836  13.9531231   9.7759733  61.0752983  13.5314980   9.2655392
  60.8147392  14.2200794  10.5880175  15.2758398  41.6107330  10.4754658
  16.0405865  42.1783066  10.3792706  15.0612659  41.6538506  11.4073086
  81.6861038  50.0026360  26.0255470  81.6701431  49.6633606  25.1306343
  81.5132904  49.2379303  26.5747223  22.3435116  66.9085693  13.7651272
  22.6658669  67.2705994  14.5905085  21.4412193  67.2218781  13.7023363
  82.4699860  22.8408909  78.8915558  82.3876114  23.1729012  79.7855453
  83.3768463  23.0281391  78.6491241  52.6657066  34.6321869  23.4705620
  51.7591858  34.7003479  23.1708927  52.9714813  35.5380630  23.5166626
  17.9146633  46.8269844  88.8023529  17.2583122  47.5225487  88.7620468
  18.4608746  47.0563583  89.5541916  36.9415779  69.1112518  84.5512466
  36.1827087  68.6801453  84.9443054  36.5914345  69.5552139  83.7788925
  77.6770630   4.1093540  62.1880264  77.3493729   4.7389174  61.5457649
  78.6280441   4.2156210  62.1639519  12.8003979   6.4177146  27.3716679
  12.4080019   7.1477222  26.8927670  13.7386751   6.6070976  27.3702793
  20.0419903  23.7627144   2.1274002  20.6536026  24.4613438   1.8948514
  20.1144352  23.6878605   3.0789149  49.2709007  69.3417816  29.3979130
  50.0354538  69.8794708  29.1915569  49.1647339  69.4298859  30.3451195
   3.0811703  22.0870914  72.2786255   2.6927669  22.8197365  72.7567444
   3.3275459  21.4606667  72.9591522   2.7790520  19.8216896  52.4443245
   3.1630201  19.1257343  51.9109917   3.2504630  20.6123314  52.1818581
  72.3153839  36.0190353  41.3430748  72.3705444  35.2287750  40.8057899
  71.6923370  36.5798378  40.8809586   1.6874261  52.6680794  65.4143372
   2.1263056  52.8609962  64.5858459   1.7585291  53.4791985  65.9175949
  31.0861645   3.4726458   1.4230758  31.9856281   3.4650073   1.7503918
  31.0663109   4.1938567   0.7940352   0.6274413   5.8485527  54.6298485
   0.3782687   6.2477336  53.7963028  -0.1949051   5.7709074  55.1135292
  24.6343346  37.4613876  79.4127655  24.8082371  36.7205925  79.9934616
  25.1798878  38.1686478  79.7568359  43.6188393  10.5949860  66.6240997
  44.0889778  10.1373787  67.3210983  43.0848846   9.9169197  66.2101593
  58.3266029  47.4605293  39.5973473  59.0264740  47.9554329  39.1713409
  58.1465683  46.7361069  38.9981537  27.1755047  69.5616379  43.8345909
  27.6655006  70.0083160  44.5249672  27.5623474  69.8828735  43.0201035
  15.7892714  61.3012314  36.2833366  16.2747803  61.2687988  37.1076317
  15.4694767  62.2017937  36.2290001  53.8258286  19.0189362  57.0457077
  54.2953682  19.4658489  56.3414116  53.4198799  19.7249928  57.5486183
  81.2735748  34.3472023  61.5211945  82.1082687  34.8094444  61.4447212
  80.6767807  34.9917908  61.9014130   7.8358088  31.9678802  79.6717758
   7.9254928  31.3456554  78.9499588   7.9029956  32.8277092  79.2565460
  29.0480118  59.4115028  29.7655945  28.5528049  59.6257210  28.9749527
  29.2275219  58.4743919  29.6892242  65.8961258  65.4331818  37.0483665
  64.9475784  65.3850174  37.1674042  66.1449966  64.5579224  36.7513542
  33.9951477  43.7657890  52.4910889  34.8373795  43.3182945  52.5725021
  33.3604698  43.1503372  52.8580132  12.3654842  70.1429138   8.9214725
  12.9640245  69.3978882   8.8673677  12.8503780  70.8043518   9.4150400
  69.9075089  53.4257164  51.7956696  69.6501770  53.5808144  50.8868446
  70.4441452  52.6338539  51.7608452  69.8011932  48.7397156  57.3193550
  70.2015915  48.3898582  56.5234146  68.9547729  48.2963867  57.3764687
  51.2456665  25.4493694  71.8145447  50.4491348  24.9185925  71.8078842
  51.8648643  24.9588661  71.2739563  57.8956909  45.2588730  51.0770493
  57.2901344  44.5177307  51.0924492  57.3301735  46.0307732  51.1014137
  75.3555145   1.0338558  48.9095154  75.4022293   0.8222832  49.8418694
  75.5294037   0.2033801  48.4664536  51.5625877  25.5755692   7.2186246
  51.3127975  24.7078934   7.5363936  52.1506042  25.4013596   6.4836946
  44.5260696  60.5561829  74.2794876  43.8154907  60.2193184  74.8252258
  45.2456360  60.7105179  74.8915634  61.7398224   7.6427574  79.9019241
  62.0244598   8.5295525  80.1228485  62.5449753   7.1868935  79.6566849
  20.2749882  37.0553360  12.2645063  19.3584194  36.8406448  12.4378309
  20.3651524  37.9656944  12.5462065  65.8498840  24.6099586  44.0214996
  65.6809616  24.3268261  43.1228714  65.9483109  25.5600166  43.9587822
   7.2515831  43.1439629  46.9139366   8.1912308  43.2389030  46.7581139
   7.1897264  42.5014458  47.6207466  53.1443634   2.1634777  37.8108253
  53.9914780   2.4172881  38.1771622  52.7735100   2.9802163  37.4766998
  77.5540390  40.9270401  26.7234020  77.3435745  39.9940186  26.7609177
  78.4616852  40.9800568  27.0227432  71.6792831  32.9689178  64.0791245
  72.2126007  33.3572273  64.7726746  72.0074234  32.0734253  63.9976044
  44.0215378   7.4932632  68.4128494  44.8510017   7.7473950  68.0083313
  43.7379036   8.2740011  68.8884888  60.5628471  37.9868698  10.2990189
  61.1872215  38.7114944  10.3352299  60.7137756  37.5831490   9.4443493
   8.5939827  47.0362206  67.4000015   8.5457726  46.4885902  68.1835861
   8.5103493  47.9315643  67.7280121  28.1559029  52.0144157  16.1142139
  29.0412502  52.2912178  16.3503838  28.2689877  51.5138855  15.3061848
  10.2128353  63.5848274  35.2346802  10.8170834  64.1354218  35.7326431
   9.3648615  63.7151337  35.6591721  29.7507172   4.2722831  48.1445236
  29.7944450   4.9636006  48.8051300  30.6452827   4.2026286  47.8111610
  32.1107368  10.0691051   6.8973036  32.7788086   9.9112749   6.2302184
  31.5512848   9.2931194   6.8642936  45.0420952  37.4525375  69.8490753
  45.5049438  37.8320961  69.1021194  45.7131844  36.9599342  70.3215332
  45.9555397  44.6132126  84.5060043  45.7778664  44.1812553  83.6704941
  46.5731583  45.3112946  84.2881546  63.6389046  20.0326633  18.8474464
  62.9550819  20.3241482  18.2444077  63.9829826  19.2324181  18.4506454
  66.0698090  68.3608627  13.3787031  66.8579407  68.8901901  13.5007181
  66.3015366  67.7424469  12.6858110  50.7023010   1.6071085  40.5881920
  50.7522774   1.0050967  39.8456879  51.6061325   1.6869537  40.8930588
  54.7425766  59.8947678  43.7605515  55.6644211  60.1337318  43.8571548
  54.2896652  60.7298737  43.6434937  85.0339737  43.1260643  49.8014069
  84.4301682  43.5777359  49.2117882  85.1004715  43.7018204  50.5631905
  50.0342102  60.7512169  35.1420898  49.9933624  59.8646355  34.7835732
  50.3829384  61.2830315  34.4266930  40.6308403  63.1575699  29.0857525
  39.9561005  63.7214584  28.7076149  40.7062187  62.4284172  28.4702129
  64.9526215   4.2688994  28.0949497  64.1524887   4.5502944  27.6512794
  65.6204147   4.2717853  27.4091873  25.4324474  45.2128563  12.4181709
  25.4593277  44.3162193  12.0841770  26.3473015  45.4285736  12.5991087
  60.3629913  51.7105408  66.4456406  61.1355667  52.1270905  66.0637436
  60.0710983  52.3216820  67.1220551  46.2346573  53.6468468  29.6476440
  45.5764160  52.9525833  29.6784077  46.5627289  53.6261864  28.7486591
  74.4219208  26.4626064  41.4050407  75.1099091  26.9691296  40.9733696
  74.4515762  26.7479572  42.3182373  26.3627338  52.6870384  59.2390366
  26.2308998  53.6280670  59.1236343  25.4785957  52.3203049  59.2452278
  79.5347214  24.7397156  30.1217957  78.8322983  24.9531918  29.5075779
  80.2912216  25.2302742  29.8004112  21.8998909  13.9968176  81.9428711
  22.5752773  14.6733646  81.9915390  22.0501270  13.4523726  82.7156830
  49.5729790  24.1933174  18.9232006  49.0446434  23.5125523  18.5064888
  48.9344444  24.8340168  19.2362652  15.6694374  41.4766617  53.3565331
  15.7106304  42.4127350  53.1608238  16.5495338  41.1528893  53.1646118
   5.0926695  42.2326889  76.8089600   4.7478547  42.7967148  77.5012054
   5.4571428  42.8396645  76.1647720  76.2411652  67.5329056  33.3672867
  76.4426956  68.0536728  34.1447334  77.0955582  67.3329239  32.9848709
  62.9347649  42.6135254  88.0781784  63.4787750  41.9465103  87.6593933
  63.4841843  42.9656906  88.7784271  61.1690445  27.2151203  35.0698776
  60.2433510  27.4540386  35.0224991  61.1734009  26.2599888  35.0071449
  66.3736115  10.8116245  11.4234247  66.8412399  11.3226337  10.7628021
  65.5296478  10.6117516  11.0184441  12.1982346  55.7120476  79.5704880
  12.1505127  56.2897606  78.8087769  12.2154713  54.8292656  79.2008514
  38.3037605  12.7814093  68.2291107  37.4816742  12.4249401  68.5657654
  38.7344055  12.0360622  67.8104935  24.0801868  43.3161888  46.4737053
  24.2787628  44.0250702  47.0854950  24.9091244  43.1469765  46.0259781
  37.7815437  41.8210297  55.2383995  37.7372208  41.7332115  56.1905289
  37.6041451  40.9403000  54.9081230  32.2834358  36.1284866  22.1090336
  31.9998131  36.9196587  21.6509495  31.5815163  35.4966927  21.9529114
  44.0383911  32.1390114   1.6688426  44.6627846  32.7758904   1.3213437
  44.5742302  31.3808575   1.9018881  58.3658905  43.7006721   7.8394327
  58.4368820  44.6355095   8.0324917  59.0929413  43.3015404   8.3172560
   1.2043359  26.6832962  74.7515335   1.6962060  25.8657970  74.8289490
   1.4667181  27.0412941  73.9034576   1.7702734  34.7145882  29.9035034
   1.5587832  35.2806473  29.1611557   1.6403366  33.8261223  29.5718746
  84.7468414  56.6400948  16.5445232  84.5535202  55.7133904  16.4028320
  85.4994278  56.6400528  17.1360016   1.9309751  48.4443016   0.7508378
   2.8066065  48.5914497   0.3932797   1.9965795  48.7185631   1.6655546
  68.2645569  29.2273521  57.8139191  68.6706467  30.0932026  57.8542480
  68.8370590  28.6695366  58.3405228   7.0465236  28.6049824  84.0482407
   7.8183727  29.0809612  83.7417755   6.5400805  29.2567024  84.5330200
  60.9591370  28.5139065  73.9201736  61.0492706  27.5616283  73.8844986
  61.3129997  28.8194466  73.0849152  41.1100197  63.2462807  20.8427544
  40.6106758  62.4732895  21.1061344  41.9612923  63.1374016  21.2666779
  62.0960770  19.5663605  23.2518978  62.9805832  19.2090015  23.3304939
  62.1387558  20.1463261  22.4916019  61.3474350  35.1113281  30.3658123
  60.4166145  34.9037361  30.2838936  61.7551460  34.6850624  29.6119556
   1.5806221  14.1433811  86.6165619   1.2004234  13.4681501  87.1784744
   2.4219115  14.3486147  87.0244141  29.8282261  49.6541176  46.8921242
  29.9767685  49.3530846  47.7885323  30.3512344  50.4523430  46.8177605
  11.4787779  47.9281235  78.1393661  11.5096073  48.4141617  77.3153229
  12.3973331  47.7920761  78.3717041  62.6353760  10.9224138  32.1768723
  63.2429428  11.3095150  31.5465965  62.0081367  10.4390631  31.6391182
  81.3803711   5.2150350  57.4947815  80.4861374   4.9123278  57.3368530
  81.4099884   5.3946414  58.4345131  66.6759949  12.4914713  32.9858780
  66.4578171  13.3397579  32.5998154  67.4212799  12.1793385  32.4726982
  78.9995575   7.6195579  21.2828197  79.9445496   7.7627282  21.3350105
  78.6401749   8.4754610  21.0493603  81.8281326  35.9207878  49.9990463
  82.6065140  35.7957573  50.5419350  81.9674835  36.7658119  49.5715599
  53.8646088  25.0001926  33.9977989  54.0632515  25.6391544  33.3133316
  54.2752419  24.1900597  33.6956482  22.3899822  41.5333672  41.3864975
  22.2093849  42.1512871  42.0948715  22.5605793  40.7028694  41.8307953
  38.4330864  36.7276840  72.5108643  37.8195801  37.3076782  72.0598221
  39.2855339  36.9373550  72.1292801   9.6510057  12.2963190  16.3025780
   9.9387264  12.7477732  17.0960751   9.1722641  11.5315971  16.6223259
  83.7856216  54.8252182  55.9332848  84.0725632  55.4172821  55.2380447
  84.5681610  54.3214035  56.1569672  43.6990929   2.7019877  63.6973953
  43.5420952   2.1506829  62.9308128  43.9700661   3.5452654  63.3345070
  76.1140671   5.7820506  57.6568680  76.9806747   5.7153902  57.2558937
  75.5075989   5.5337348  56.9591827  60.5989990  41.1516800  52.4876175
  60.4090462  42.0673828  52.6916695  59.8003502  40.6820526  52.7281113
  52.2084732  35.5747261  56.4259109  51.9488373  34.9343910  55.7634964
  51.8478546  36.4039001  56.1118126  42.9417267  47.1723099  75.3220825
  43.6487694  47.7808380  75.5365829  42.6407509  47.4502182  74.4569702
   8.7388849   5.3853922  26.2823830   8.0449238   4.9922810  25.7531242
   9.2533684   5.8988657  25.6595802  65.7700272  42.4445000  53.8953362
  65.2760315  43.1329079  54.3406372  65.3938065  42.4104118  53.0158310
  67.1733856  64.8811722   1.5757912  67.8152847  64.9629135   0.8704391
  66.3252945  64.9283524   1.1344956  41.4164009  53.3732567  70.7096634
  40.6531792  52.9498253  70.3166885  41.3551064  54.2861595  70.4284515
  55.6825523   6.4680266  39.8548737  56.4968758   6.3819237  39.3591957
  55.9653168   6.6684451  40.7471199  23.0117970  60.3919029   0.7282268
  22.4740067  60.0123329   1.4231672  22.4363003  61.0247307   0.2986144
  14.3804293  63.5161705  53.0699806  14.4999208  62.5985336  53.3147202
  13.5594721  63.5278702  52.5779190  52.8614655  40.7873878  39.2982903
  53.8070564  40.7985077  39.4465103  52.4981041  40.4073639  40.0981522
  58.3492928  37.1801643  54.1913033  59.1353416  36.9181290  54.6705704
  57.6239777  36.9041595  54.7516365  80.2856674  12.4949656  82.4986115
  80.8206177  11.9366570  83.0628357  79.4491730  12.0347433  82.4299774
  81.1661148  11.5473423  15.0294695  80.8316422  10.6794357  15.2555237
  82.1073380  11.4917612  15.1945229   9.0874529  32.0380058  55.0483170
   9.2709179  32.0576286  54.1090698   9.8852091  31.6833839  55.4408226
   2.5890248  16.9232693  34.9056549   2.0820374  16.1195030  34.7909660
   1.9311399  17.6018677  35.0570602  73.4958878  34.7714729  75.4188156
  74.1771927  34.1411057  75.6526794  73.7881393  35.5955467  75.8083267
  82.5550079   9.8099861  35.6886635  82.1248932   9.9152613  34.8400497
  81.8399124   9.8355856  36.3244400  27.2909660  18.0730305  10.8152218
  27.4893780  17.3135796  11.3630352  27.8410587  18.7727089  11.1674719
  84.7978287   9.9527378  85.8497162  85.3175125  10.1350002  86.6326218
  84.3006439  10.7568130  85.6997223   4.1292219  69.3744965  84.0949783
   4.5499301  68.5254211  84.2302933   3.4186134  69.1943207  83.4795074
  52.0771255   3.7334979  78.1740875  52.6215668   3.8982894  78.9439316
  51.2101135   4.0556960  78.4204788   6.2678843  27.2299347  12.1519060
   5.3116446  27.2376556  12.1940670   6.5400615  27.9156609  12.7617674
  16.0781326  55.5479012  46.4055939  16.4746208  54.9899254  47.0746918
  16.8056717  56.0696640  46.0669441  74.6727448  15.6155787  26.8809280
  73.9477692  16.1929150  26.6414928  74.9151306  15.1832323  26.0620518
  73.7657242   9.8831491  29.1169357  74.0406189   9.6476803  30.0030613
  74.4071350  10.5341158  28.8322124   7.8393373  30.5089855  72.5112381
   7.8616500  30.4285755  73.4647903   6.9301577  30.7313919  72.3108368
  73.1512451  51.9404678  76.2216568  73.3274460  52.0637665  75.2889252
  72.9350128  51.0116386  76.3038254   2.3935001   0.5819435  24.0361519
   2.3471899   0.4391815  24.9815121   3.2365696   0.2089318  23.7786102
   0.8002270   9.4390478  52.4668541   0.0717163   9.1941719  53.0374184
   1.3547740   9.9967461  53.0124588  75.5250626  35.9450417  66.7252121
  75.8310852  36.5388145  66.0396347  74.6408615  36.2498779  66.9289474
  80.6050720  20.9883919  48.6327362  81.2417755  20.4078407  48.2158394
  79.7799072  20.7990456  48.1861000  35.0804214  30.7814178  71.0265579
  34.3981667  30.2518463  70.6138611  34.6425476  31.2015858  71.7667999
  17.8983231   3.0534503  13.5388689  18.8153152   2.8657217  13.3385811
  17.7284203   3.8954351  13.1164637  85.7519531  29.2326126  62.4805603
  85.6353073  28.7887115  63.3205490  86.6265640  29.6180573  62.5327721
  71.0010681  36.5524216  78.1680450  70.6153412  36.5537643  77.2920074
  71.0222778  35.6289444  78.4189911  56.1066475  67.6942368  33.0243073
  55.1947975  67.8413162  32.7730522  56.6107674  67.9310303  32.2458305
  64.5707092  67.9950714   6.0588126  65.4019165  68.4692154   6.0815063
  64.2953262  68.0381470   5.1430936   6.9877615  31.5149574   8.7914886
   6.8339496  31.8775444   9.6639013   6.6455455  32.1785812   8.1925535
  28.1281300  32.8017082  88.6537857  27.3280048  32.3569679  88.3740768
  27.8639526  33.7130165  88.7801285  79.9860077  54.2494698  22.7224331
  80.2835464  53.8015900  23.5143299  80.7908554  54.5507545  22.3009129
  85.3761826  34.5682755  48.2267418  84.8911362  35.1212959  48.8392181
  84.7606049  33.8739243  47.9918633  63.0265923  18.3766899  77.3752518
  63.2213135  17.4483013  77.2471390  63.8707962  18.8152905  77.2695160
   5.8067350  38.9019928   4.2964349   5.7334485  39.7632217   3.8851581
   5.8520393  38.2891693   3.5625236  79.0284119  23.7947674  59.2844658
  78.4334488  24.4366474  58.8968506  79.5906448  24.3087463  59.8640785
  80.9872742  43.2879295  72.3103485  81.5391159  43.9236755  71.8547974
  80.4812469  43.8116684  72.9315338  84.0903702  31.2817402  17.5434074
  83.7848969  30.4185390  17.2644863  83.3990021  31.6054020  18.1208916
  53.1406593  20.6981087  59.0056953  52.3996162  21.1943111  58.6580238
  53.7751961  21.3659172  59.2657433  67.5094986   9.4463072   4.6532292
  66.6604996   9.0970144   4.9242201  67.3627777  10.3876829   4.5609426
  85.9895859  31.1598969  44.9036751  86.2285614  30.6949005  45.7054863
  85.8435211  30.4671135  44.2595139  12.6066179  51.6362534  39.6157799
  12.0569401  51.1313629  39.0164719  12.8589973  52.4112816  39.1139145
  13.8996372  32.8533554   2.1002920  13.8872118  33.4844894   2.8198404
  13.6106844  33.3541412   1.3374344  84.1397018  26.4117126  49.6148567
  83.9009933  25.4910469  49.7226715  83.4394836  26.7791176  49.0754700
  39.2815666  36.6046181  35.4083939  38.3373108  36.4619789  35.3430748
  39.3739281  37.5512848  35.5157661  66.0057220  30.7000008  47.6589241
  65.5624161  31.3159447  47.0755463  66.0813828  31.1691933  48.4898071
  66.0722656  66.9971161  60.6491966  66.3708649  67.9053879  60.6951027
  66.8542557  66.4997177  60.4097710  49.6974487  44.4658012  70.4911499
  49.2134056  43.8899879  69.8992233  49.5196877  44.1159096  71.3641968
  56.6871605  18.2610264   8.9285307  56.1775017  17.6864815   9.4998245
  56.3376884  18.0987911   8.0523005  29.7053757  53.4134254  86.7272339
  30.6005230  53.6342049  86.9845200  29.1555748  53.8329926  87.3889847
  59.3043861  35.0578842  84.5449066  60.1792183  34.7443924  84.7743073
  59.4178581  35.9965210  84.3955078  44.2896614  47.7311134  55.7880554
  43.8123703  47.1877785  56.4151192  43.6562347  47.9063339  55.0921402
  30.0347290   7.9347529   1.3276802  30.7160988   7.4582515   1.8019304
  29.4020481   8.1822920   2.0019717   2.0925243  20.4445190  54.8727303
   1.7263415  19.7130718  55.3698502   2.2914169  20.0739803  54.0128632
  57.6445580  48.9821815  17.8507004  57.5347824  49.6451874  18.5323219
  56.7988968  48.9566383  17.4030037  67.1914215  70.3227615  44.9905434
  66.4230270  70.8046188  45.2965012  67.8916931  70.9750900  44.9725380
  79.9730606  65.9833603  16.5833912  80.6899872  65.3800049  16.3879375
  79.9593582  66.0375061  17.5389614  45.1783524  70.5514526  51.1148987
  45.8684692  69.8909454  51.0540428  45.3411942  71.1368332  50.3752747
  50.2822800  47.1669579  54.7183495  50.0104485  46.5903587  55.4324036
  49.4659958  47.4050026  54.2787514  39.6230125  53.5044136  63.7348366
  40.5420837  53.5896873  63.4813271  39.6398888  53.4781075  64.6915283
  30.2180309   3.5672135  10.6781511  30.7190399   3.1738901  11.3926573
  30.4250240   4.5005431  10.7259254  44.9721909  48.4629326  32.5069046
  44.7665062  47.5311432  32.5823441  45.7830238  48.5702515  33.0041656
  59.8886795  48.2032509  63.3651543  60.6949196  47.7541008  63.1112328
  59.3556404  48.2063255  62.5701141  35.6003418  40.6012802  78.9546738
  34.8922157  40.3219223  79.5349731  35.6778221  39.8944473  78.3138809
  27.0513344   3.4301193  85.1769714  26.6507187   2.8856604  85.8546906
  27.0436478   4.3140211  85.5442429  76.6638947  56.7008133  62.7063904
  76.7252502  55.9138794  62.1649055  75.9662704  56.5069504  63.3324661
   3.5579970   8.3832474  20.6060047   4.2109094   8.0659094  21.2298908
   3.1852531   9.1597319  21.0235748  34.2930679  63.6391792  30.9441185
  35.2273865  63.4842606  31.0829620  34.0827408  63.1420975  30.1536121
  53.2218475  12.0282488  35.0509605  53.2808113  11.4835043  35.8358231
  52.5716019  12.6954088  35.2707634  37.6403465  43.1028137  14.1129322
  36.6993942  42.9937668  13.9752769  37.8241653  42.6097374  14.9125061
  80.8260193  24.9834900  44.9422112  81.6392288  25.4760895  45.0529747
  80.2158127  25.3865795  45.5597839  76.0433273  51.4650345  49.5342789
  75.2236404  51.7441750  49.1263275  76.0095978  50.5087433  49.5096893
  56.0811501  21.8809605  43.4970589  56.0875244  21.0146694  43.0899582
  56.4297447  21.7348995  44.3764801  29.7014179  64.1269455  46.6556854
  29.1607208  64.8557739  46.9601364  29.2563267  63.8105812  45.8695297
  65.1464386  67.5995560  73.4450455  64.7306061  68.3601761  73.0391388
  65.8672028  67.3776016  72.8555756  71.5361557  12.9882374  49.9077568
  70.6735001  13.3198957  50.1568832  71.3766937  12.4792385  49.1129456
   0.6419750  34.9587402  57.0256348   1.1848361  35.4388275  56.4002953
  -0.0495308  35.5755882  57.2655220  75.5288162  13.9499884  39.2944527
  75.7275696  14.1988153  38.3917847  75.0390472  13.1314297  39.2149506
  32.9795761  23.6863422  14.2845440  33.2284393  23.2060165  15.0742188
  33.8113937  23.9649811  13.9015608  46.0646439  27.3556538   5.3859406
  46.3009720  26.6268330   5.9597020  46.8968391  27.6463966   5.0129066
  83.5185471  37.5483398  45.5682144  84.1366272  37.1333542  44.9665565
  82.7131653  37.0399818  45.4725266   9.6180391  55.5962105   0.8521120
   9.2309952  56.3531189   0.4122019   9.2664480  55.6305771   1.7417380
  47.9004555  45.6565666   5.5236168  47.4648819  46.1490593   4.8279486
  47.2754097  45.6622353   6.2485418  56.5813026  49.6481781  88.2181091
  56.9987831  49.7297745  89.0755920  56.8635597  48.7926140  87.8947372
  46.3135529  58.7292900  14.8714733  45.6966858  58.2823753  14.2918386
  45.8572388  59.5277290  15.1370039  43.4422989   1.0367631  23.2579784
  43.5060730   1.8697240  23.7252483  42.7481804   0.5595999  23.7126751
  33.6112823  37.1833687  27.6469994  33.2143669  36.3246956  27.7931938
  32.8785172  37.7973213  27.6954136  84.5168152   3.1373014  17.5586681
  84.5481339   2.1806495  17.5669556  84.2111664   3.3593264  16.6791725
  43.0181084  29.9716053   7.0452409  42.1115150  30.1592388   6.8021069
  43.1649742  29.0737667   6.7476645  24.1621723  37.9331360  25.6992016
  24.7418861  38.2387047  26.3969078  24.7375698  37.8179321  24.9429760
  48.9590454  70.0039825  52.3304214  49.5943947  69.3031769  52.4767990
  49.4850273  70.7453156  52.0304146  47.4618454  60.2063370  21.3861732
  47.8987045  61.0158386  21.6509323  46.5469894  60.4580765  21.2600918
  50.6253929  66.5342026  77.1223068  50.0215111  66.2097244  77.7903442
  50.3923759  66.0471573  76.3319168  49.6356697   3.1394906  20.2712002
  49.3377228   4.0320635  20.0957775  50.4682922   3.0688128  19.8043194
  63.8932343  11.3165388  86.0550003  63.6692772  10.6507912  85.4047241
  64.3465118  11.9959679  85.5558548  70.4079590  56.1155853  77.5998230
  69.8803635  55.5054817  78.1152267  69.7733383  56.7332153  77.2364731
  84.1416931   5.1663189  15.2149210  83.4117508   5.4138737  15.7824898
  84.6618729   5.9654856  15.1314173  27.9535275  66.0122681   0.5624076
  27.8959198  66.2476578   1.4884231  28.1918507  66.8281708   0.1222562
   6.4524965   2.0244501  59.7041092   5.9624319   2.8395233  59.5958290
   6.6345620   1.7339195  58.8104210  15.1343346  69.7925262  55.1527405
  15.9813843  69.3538589  55.0733032  14.8498964  69.6039734  56.0470390
  76.4736023  64.9016876  67.4026642  76.8376160  64.8368988  66.5197525
  76.8526688  64.1592331  67.8730927  66.4756927  35.5704155  62.5339317
  66.6520157  36.0298386  61.7129135  65.7217484  35.0135918  62.3396721
  60.8053780  63.5174599  63.2559853  61.4149933  63.2037354  62.5880203
  61.1886940  64.3389969  63.5631866  51.9807472  42.1850586  58.3026237
  51.4840355  42.5621414  57.5764580  51.3201027  41.7599182  58.8494682
  38.0125160  46.3395996   7.5104494  38.8766441  45.9544029   7.6558347
  37.9255180  46.9993134   8.1985188  36.9310722  40.0913544   9.2737541
  36.9981155  40.4349976  10.1646214  36.9887085  40.8653297   8.7135153
  19.2756462  62.3478737  63.5405884  19.3696117  61.4569092  63.2035599
  18.8820915  62.8370094  62.8180275  60.9903488   5.9181099  47.1487312
  60.6017494   6.7783313  47.3076134  60.2492409   5.3127179  47.1708717
  49.8816605  71.0549927  62.2158203  50.5897026  70.4883499  62.5221291
  50.2945633  71.6247025  61.5668411  30.7088089   6.6159844  19.0179615
  29.7537231   6.5592856  18.9891911  30.9053898   7.5021911  18.7142735
   8.8729420  66.4086990  83.7062302   8.3943615  65.6625824  83.3449860
   8.3078547  66.7406540  84.4038773  14.0929661  25.6521683  59.8916588
  14.2760925  26.3793106  60.4866028  13.3563881  25.1925869  60.2947311
   4.4727054  18.8937073  13.3273754   4.5953236  18.9137592  14.2764778
   5.0362306  19.5939426  12.9982214  86.1294937  55.5149994  14.2118006
  85.3362885  56.0497627  14.1787977  86.8465652  56.1488152  14.1941004
  82.9661255  10.4398127  76.2170868  82.6768646   9.9681950  75.4359741
  83.4599686  11.1860085  75.8771744  69.2908173   7.0872836  87.9774933
  69.7251434   7.8669829  87.6315765  69.8329391   6.8206563  88.7199478
  70.8494034  38.2298050  16.6242008  70.2952499  37.4605141  16.4925404
  71.1925201  38.1287079  17.5120544  60.8681679  26.9016876   2.5612071
  61.5083313  27.5469265   2.2610631  61.0831337  26.1063919   2.0738409
  24.1021671   4.4198475  77.3530197  23.9875832   5.3681993  77.4141083
  24.7995872   4.2221031  77.9781113  65.7607803  11.2593851  27.1005630
  66.4297104  11.0113773  26.4623966  66.2361069  11.3374052  27.9277325
  12.5290766   2.0688131  85.6330261  11.9218426   2.4800899  86.2481232
  12.1311626   2.2089221  84.7738037  74.7263412   2.3438137   8.6182394
  75.6411057   2.4915390   8.3782167  74.4405746   1.6316873   8.0460110
  21.3008556  63.3117256  33.3111649  20.9347706  63.4944534  32.4458199
  22.1032715  62.8211784  33.1330490  35.4708138  38.1520805   5.0343924
  34.9169044  38.8822670   5.3105063  35.4154778  37.5238419   5.7544546
  49.3234825  33.4173584  24.5738354  48.5298195  33.5208359  25.0988369
  49.3703918  34.2173805  24.0503845  24.7211876  66.9882736  68.7269974
  24.2272568  66.1834412  68.5704575  24.1874123  67.6775742  68.3317947
  55.2321014  45.8956528  22.2641907  55.5468521  46.6531029  21.7708015
  54.4756393  46.2239189  22.7502365  15.5247841  61.0845871  50.2714272
  15.7716427  62.0089874  50.2993507  14.8699589  60.9905510  50.9632301
  69.2658310  36.4289093  46.8689957  70.1918030  36.1976700  46.7959747
  69.2097015  37.3113480  46.5024071   2.3432853  33.2089386   5.5670948
   2.4607129  34.0187492   5.0704565   1.3978907  33.1464729   5.7033253
  46.5798645  66.6636353  88.7517014  47.0129471  67.4876709  88.9745102
  46.9866371  66.0159988  89.3273163  62.9320641  66.0969086  11.1479273
  63.6817474  65.5319748  10.9607067  62.2166901  65.4902039  11.3386574
  63.0737457  27.7298012  46.9852066  62.9954262  28.2167072  47.8055840
  63.0456200  26.8100777  47.2489319  34.6382370  25.2537498  78.4495544
  34.5443916  24.3931026  78.8578568  35.5586624  25.2967911  78.1903381
  34.6913223  44.9066734  86.4475250  33.8049850  45.2595482  86.3693085
  34.5764275  43.9576340  86.3989792  29.1832123  24.0429153  16.6061745
  28.2698097  23.7579765  16.5790195  29.6167774  23.4037800  17.1716480
  64.3111649  20.5734882  58.6696243  64.8205032  21.3401661  58.4069290
  63.4148865  20.8987808  58.7539253  43.1696510  65.1812363  64.7770081
  43.2614594  65.2729492  65.7253723  43.3501892  64.2566833  64.6072006
   9.2789373   0.2556845  26.1355553   9.9852781   0.0157838  26.7353573
   9.7107430   0.7615035  25.4471340   3.4618955   5.5315151  80.0912552
   4.4062777   5.4268017  79.9754562   3.1923392   6.0933595  79.3646851
   5.7265058  23.7953587  80.0453644   5.1585712  24.5623989  80.1183853
   5.3574481  23.1643791  80.6633377  37.7431107  47.1692734  82.5686035
  38.5164146  47.4296074  83.0690536  37.8430595  47.6119080  81.7257996
  72.1733780  47.7497101  86.2705688  72.2370987  48.5256271  85.7136841
  73.0358047  47.3390656  86.2087784  27.8414001  30.4868946  85.7167206
  27.1776066  29.8328819  85.4979172  27.4607086  31.3183975  85.4340439
  67.5898972  54.6047859  74.2349243  67.6216507  54.7859421  75.1742859
  68.1311111  53.8232079  74.1232986  51.2795677  23.8549023  63.6537285
  52.1481400  23.8306732  64.0552597  50.8059807  23.1310177  64.0635300
   4.2985353   4.1725025  59.8420372   3.8326654   3.6794984  59.1666527
   4.0569811   5.0848188  59.6821556  10.0310307  56.6367378  13.7778893
  10.8420591  57.1117096  13.9591770   9.9912138  55.9629784  14.4566364
   9.6389570  38.1249428  23.3890800   9.7653055  38.5029297  24.2593613
   9.9969730  38.7794800  22.7893829  16.9996357   9.4738998   6.4977722
  17.2457638  10.3897667   6.3680072  16.7724419   9.1605930   5.6222987
  20.4631329  70.0223236  38.6984978  20.9338722  70.0945663  39.5288124
  21.1081619  70.2679977  38.0353165  30.9338875  61.5881500  38.7754440
  30.3446121  61.0229836  38.2758713  30.5244217  61.6584854  39.6377792
  66.2524033  42.3710747  71.0553589  65.9569473  41.7477837  71.7190170
  66.0021439  41.9708633  70.2226334   2.3750417  56.3706741  88.8240814
   1.5375720  56.2618790  89.2746811   2.3547833  57.2691422  88.4945755
  39.5912285  71.2224350  67.9645691  40.4770622  71.2664871  67.6045761
  39.6965141  71.4499817  68.8883514  81.5240631   2.5179756   5.9729781
  81.3070374   2.2487168   6.8655195  82.4072418   2.8808563   6.0403404
  85.0414200  70.4553299  45.1543922  84.6699982  71.3270569  45.0188637
  85.8009796  70.4255219  44.5726547  36.5081367  26.2879639   7.5351772
  36.1789360  25.4096508   7.3443179  36.6550713  26.6808777   6.6747937
  68.3990631  58.3182220  34.4496727  68.7943954  58.3002243  33.5781097
  67.7587585  57.6068344  34.4369736  76.2270737  24.1521416  12.8553743
  75.6336288  23.8660107  12.1609764  75.7665176  23.9389610  13.6669655
  19.0834732  47.9333916  47.2015495  18.9077415  47.4696541  46.3828316
  19.8747883  48.4417686  47.0237656  11.4465923  29.1386204   1.3694874
  11.8276510  28.7941265   0.5618055  10.6756411  29.6272469   1.0811983
  32.1706390  34.9603806  27.6589737  32.5802040  34.1869011  28.0465546
  31.2351875  34.8451195  27.8259487  71.4339218  70.2768936  74.6675110
  71.1178970  71.1557999  74.4580307  71.4895630  69.8342133  73.8206482
  64.0895691  66.5442352  67.2811279  63.9597702  67.4117737  66.8980408
  65.0152817  66.5256729  67.5239029  52.5931892  50.5251350  34.4467926
  51.9129601  50.2313957  33.8407936  52.8501091  51.3869705  34.1189728
  83.0437469  52.5990219  65.9350815  83.4129333  51.8133163  65.5318451
  82.6339264  52.2846489  66.7409668  28.1026840  68.6126099  46.8614388
  27.4502335  69.2686539  47.1066818  28.5043182  68.9602509  46.0651550
  65.1777039  18.6589508  56.9917297  64.8412247  19.3764400  57.5285912
  65.8427277  18.2415943  57.5392685  44.7276649  42.9870949  36.6789360
  44.6889343  42.0620461  36.4359970  44.0047340  43.1032829  37.2954597
  16.0007114  47.8262024  70.3574524  15.1789570  47.9766197  70.8247070
  15.8338251  47.0496407  69.8232880  64.0024948   9.4186430  83.9883499
  64.0695190   8.5077028  84.2745743  64.5495071   9.4641666  83.2041626
   5.5056376  22.5363083  22.6504784   4.5796165  22.7717552  22.7077656
   5.5029163  21.6153545  22.3895855  79.2180252  30.8982315  28.8494873
  78.9870071  31.4441147  29.6010685  80.0652390  31.2362747  28.5593395
  65.8608704  19.2545681  76.9755325  66.2976379  18.4399834  76.7266998
  66.5154266  19.9350357  76.8181992  65.2908325  70.1452560  21.0640736
  64.6641235  69.9003830  21.7448845  66.1072006  69.7194138  21.3256550
  66.3329391  64.1010056  40.1516762  65.6887817  63.4769249  39.8172836
  66.1723404  64.9016876  39.6523323  31.5690746  26.0618973  17.2248249
  31.8375931  26.5924015  16.4746952  30.7933750  25.5912094  16.9199028
  74.2330322   3.6194525  16.6227226  75.0173645   3.0766103  16.7026463
  73.6579437   3.3141682  17.3243637  61.7585106  10.8993111  70.8220520
  62.2368126  11.7209969  70.7112045  62.2072029  10.2812710  70.2450485
  67.9934006  65.0182571  80.3225861  68.0390930  64.8070755  81.2550735
  68.6197662  65.7329254  80.2078857  42.9805412  67.9391556  85.9025116
  43.8181648  67.4759598  85.9108429  42.3241196  67.2487411  85.9956512
  73.5613327  70.7976837  39.8800354  72.6776047  70.7750397  39.5129547
  73.4919281  70.3115311  40.7016640  46.7742043  56.7825203  21.1407356
  47.3603783  56.1648293  20.7035980  46.2158890  56.2339325  21.6917057
   7.3008442  63.8631516  58.7638931   7.7394891  63.4835281  58.0025063
   6.3715715  63.6859741  58.6179733  82.9965286  46.5739937  85.6171951
  82.8498840  47.5198898  85.6199036  83.9085770  46.4722404  85.8893280
  69.0930862  14.3709316  70.0161896  69.1803894  14.5984173  69.0905151
  69.7620392  14.8956928  70.4559097  69.2064285   5.2300582  16.2517338
  69.3515778   5.4770122  17.1650677  68.5291824   4.5547557  16.2909355
  80.3780823  32.2668114  69.6701279  79.8846893  32.2403183  68.8503113
  81.0415192  32.9421501  69.5286713  83.5253448   9.5296535  81.7602539
  83.7471619  10.0579033  82.5270538  82.9222031  10.0777149  81.2581787
  22.1507511  63.8526497  38.8075256  22.6077824  63.1517677  39.2724075
  22.1705055  64.5940247  39.4126740  22.1013107  65.9015503  45.8477440
  22.2213287  65.1740265  46.4580994  22.5386620  66.6417847  46.2684669
  85.0848999  52.5121346  43.2657700  85.1096420  52.7642555  44.1888390
  84.1546936  52.5200424  43.0401726  65.0199585  45.2416000  76.6914215
  65.5501099  45.6818466  77.3557663  65.3021164  45.6304207  75.8635101
  85.2501678  10.9083099  70.6035995  85.6977844  11.6803503  70.2574387
  85.9537125  10.2857628  70.7871628  75.7553329  43.9704437  88.8453140
  75.1761169  43.8973732  88.0867615  76.6375885  43.9010239  88.4805603
   6.3369894  26.7612381   4.0720716   6.4802828  25.8206730   3.9670269
   6.5729823  27.1357250   3.2233670  83.7511292  32.9845848  59.6997948
  83.1678467  33.3086548  59.0135002  83.8180618  32.0444069  59.5330124
  19.6205807  58.6150856  19.7045288  20.2486477  58.2222710  19.0983448
  20.1535473  58.9137383  20.4414062  20.2425804  10.9359436  48.5494614
  19.6851177  10.1931896  48.3175468  20.6367970  10.6876507  49.3856316
  79.6707077   4.6007042  74.8668137  78.8613968   4.7540579  75.3543930
  79.4058380   4.0497437  74.1302567  65.5090027  58.8704224  26.1706905
  64.7347870  59.0898247  25.6523438  65.1905441  58.8324013  27.0725574
  39.9009438   4.8827534  51.7385445  39.1998863   4.4953856  51.2144279
  39.5010796   5.0412836  52.5936546  31.6242256  42.5918312  72.0770950
  32.4437370  42.7920265  71.6248169  30.9475803  42.7107430  71.4105759
  39.4139595  23.8917866  83.4450760  39.6722603  24.2519665  84.2934799
  38.6560936  23.3404198  83.6396637   0.5690742   1.9039648  47.7439613
  -0.0822163   1.2105073  47.6382790   0.7483415   2.2021067  46.8522186
  39.5982170  52.1645966  68.6210785  38.8852158  51.5439835  68.4703903
  40.3901138  51.6815948  68.3847809  64.6691742   8.0724144  26.7461987
  63.9739342   8.7117004  26.9017181  65.4787140   8.5503569  26.9263535
  70.4842072   2.3515563  14.0787373  70.4050446   2.4939871  13.1355095
  71.1099854   3.0149672  14.3694525  56.9804382  22.4386921  70.2507935
  56.5445557  23.2800941  70.1155853  56.2649918  21.8062897  70.3174057
  22.7118988  57.1874809  25.6677017  22.0600338  57.8866730  25.7170181
  23.4368210  57.4971428  26.2106838  25.9622345  39.4939003  54.9667473
  26.8261795  39.3920250  55.3660660  25.6688004  38.5983582  54.7990150
  75.0426254  58.2061119  46.3093948  74.8023148  57.9385452  45.4223289
  75.5193863  59.0276260  46.1908913  50.0564232  23.3460560  86.3374710
  49.4517517  22.8148079  86.8555222  49.7385216  23.2627563  85.4384537
   0.3569227  65.5442047  20.9193382   0.8236679  66.3286438  20.6311779
   1.0243185  65.0155029  21.3567066  31.7474346  45.1087074  46.9145203
  32.5942841  44.7970963  46.5951920  31.3412571  45.5215645  46.1524162
  43.8716354  30.7871838  85.8463593  44.3569145  30.6968536  86.6664658
  44.3250656  30.2071781  85.2346191   8.7177906   7.2637076  69.3236084
   8.5955677   7.8689952  70.0549850   9.6342659   6.9946136  69.3860016
  77.5919571  48.4196587   4.8227916  77.7664871  48.7690315   5.6966968
  77.1903915  49.1482544   4.3493700  73.1915283  19.1427174  62.2989731
  72.6889191  18.5052338  62.8061523  73.7111969  19.6119175  62.9516830
  17.0322075  28.0638123   0.1556241  17.2505074  28.6529770   0.8777472
  17.2759418  27.1945267   0.4736929  83.3727036  57.2640877  13.2983313
  82.5183640  57.0321846  13.6624098  83.6745758  57.9925308  13.8409863
  36.0041733  15.1179428  82.4769745  35.6761627  15.1765680  81.5796432
  35.2373505  14.8777237  82.9970779  78.1544495  12.4871731  35.8548851
  77.9907150  11.9731302  36.6455727  79.0566254  12.7924891  35.9502525
  25.5178928  40.6691513  70.0924759  25.2428303  41.5625420  70.2984543
  26.0098648  40.3862801  70.8633118   5.9905372  68.0986176  24.8545799
   5.8192735  68.0829239  23.9129562   6.5600271  68.8573761  24.9818268
  66.5166397  35.0906677  69.5210876  66.6290741  34.7584877  70.4117279
  67.3711166  34.9641953  69.1086426   5.3175240  54.2347298  63.3072586
   5.4126787  53.3059464  63.5182953   5.6553545  54.6912537  64.0777664
  61.3838387  38.8663139  51.4768410  61.0765381  39.7546310  51.6576576
  61.9434891  38.6500206  52.2226562  61.4483528  37.0696602  74.1544037
  60.8253860  37.1559067  73.4328003  61.6597443  37.9710579  74.3973541
  60.4476013  48.1757202  36.2706413  61.3903160  48.2561798  36.1255646
  60.3694000  47.8751144  37.1760445  43.4535904  21.3853340  65.0972137
  44.0262909  21.8976479  65.6679840  42.6597290  21.9141521  65.0174255
   6.8064265  60.7988167  25.7832851   7.0633774  60.5400810  26.6683064
   5.8517509  60.7293854  25.7811146  31.6125088  63.5898972   2.4913795
  30.9284573  64.2577591   2.4437263  31.3704529  62.9508667   1.8210957
  47.7131310  36.9941025  86.1765137  46.8149414  37.3020287  86.0554047
  48.2248192  37.7927475  86.3052521  38.3134537  39.8718910  66.0565872
  37.4383278  40.2497940  66.1436310  38.4226074  39.3369102  66.8427887
  19.7369194   0.7936145  72.4547729  19.1592941   0.7482242  71.6928558
  19.3987293   1.5271579  72.9683609  52.8413811  59.5644913  67.5243759
  53.5458069  59.2924385  68.1125946  52.8353729  58.9006615  66.8347931
  49.4796066  15.6538496  65.7040405  49.4945602  14.9802485  66.3839417
  48.8081398  16.2715340  65.9935684  28.7422886  25.7379436  71.1147919
  29.5317745  26.2550316  70.9549026  28.6337757  25.2146950  70.3206482
  54.6777534  41.9714737  19.6042824  54.1477280  41.9940758  18.8075428
  54.7552414  41.0407677  19.8140793  59.8983498  24.3947239  45.0119438
  59.8541183  24.4821644  44.0597725  59.2014503  23.7752094  45.2282028
  53.4589348  66.1078262  59.9366989  54.2251053  66.6810913  59.9124641
  53.7141075  65.3914413  60.5179977  24.1837749  71.4410172  81.0896225
  24.2337341  70.9127884  80.2929382  24.3014297  70.8122406  81.8016739
  75.0545883  62.3036385  52.9072113  75.1762543  62.1115761  51.9774055
  75.9242554  62.1909027  53.2908707  72.4851761  24.6284332  72.4270096
  73.3781509  24.3925648  72.1756363  72.5212402  24.7224636  73.3788986
  75.3543777  10.4867954   2.7667656  75.4227295  10.7272215   3.6907544
  76.0253448  11.0131598   2.3320494  78.0026321  28.8729057  30.2401524
  77.4790497  29.6626568  30.3757324  78.5748215  29.0883923  29.5036774
  42.8546371  51.1196861  64.8077240  42.5542374  51.0484314  63.9016838
  43.4470253  50.3766747  64.9227905  54.4659920  42.5691299  61.9572754
  53.5197296  42.4278908  61.9278183  54.5805054  43.2979164  62.5671883
  44.8765488  25.3885727   0.8887394  45.2516937  24.5120831   0.8035185
  45.5393753  25.9700546   0.5162219  11.6288776  19.6106358  78.3978119
  12.5648928  19.6359215  78.1991425  11.2092180  19.4453430  77.5535355
  23.9013939  12.3968277   1.4215246  23.1797409  13.0150700   1.5365233
  23.9579468  12.2681303   0.4747033  49.8839607  25.0551205  61.8703461
  50.2978668  24.6848202  61.0907364  50.3198051  24.6194210  62.6027641
  21.6436424  41.8109741  72.1935577  22.5799370  41.6327591  72.2820129
  21.5822029  42.4022293  71.4433060  36.3468475  32.9700356  11.3490810
  35.8237000  33.2013817  12.1165600  37.2119331  33.3380814  11.5291004
  29.4831028   9.6136103  70.2809219  30.1256142  10.2991409  70.4638367
  28.6811085   9.9174109  70.7060623  70.0446014  27.2740822  78.2739563
  70.8434677  26.9002495  78.6458282  69.8389053  26.7078590  77.5301056
   2.1882684  12.6688681  68.5192566   2.8715229  13.2082357  68.1211624
   2.3693597  12.7075491  69.4583740  38.8738518  36.2770233  82.7173386
  39.4406509  35.9458275  83.4139557  39.4788208  36.6003227  82.0497131
  10.3877363  32.3586807  60.1209488  10.2577391  31.6306038  59.5132980
  10.4993124  31.9409256  60.9749184  31.6037445   3.3253772  74.5220642
  32.3591232   2.9321644  74.9591217  31.9345112   4.1512599  74.1688690
  70.7294464   4.8336473  24.5565395  70.0783539   4.7640862  23.8583469
  71.0500412   3.9395471  24.6750145  65.5816879  12.1930094  36.5134926
  64.7883987  12.3137093  37.0353661  65.2683640  11.8464069  35.6780739
   9.7960110  30.5636406  27.6490498  10.5746317  31.0502357  27.3784828
   9.9992418  30.2590466  28.5334435  78.7630234  17.5481777  71.5531006
  78.1411133  17.5184155  72.2801285  78.6103745  16.7337799  71.0738449
  38.3682861  68.1402664  43.8326836  37.5383606  67.7552109  43.5512962
  38.1688042  68.5507431  44.6740799   3.1167810  11.6532793   7.4428506
   3.1815844  11.3542395   8.3498278   2.8176830  10.8841543   6.9578571
  75.6654892  38.1536217  19.5161762  75.6819229  37.8572006  18.6061783
  75.9365005  39.0707016  19.4742775  50.1737022  66.3480148  58.9063072
  50.9367523  66.8442917  59.2024345  49.5148811  66.4939270  59.5852013
  11.2880993   2.4117904   7.7967916  11.5560217   2.2567108   6.8910327
  10.7888107   3.2277362   7.7625146   4.2394147  36.9803505  85.3546982
   4.4319501  36.0859146  85.0733719   4.9985166  37.2351036  85.8791962
  31.7110081  65.6566772  15.5307913  32.3700294  65.0859756  15.1355343
  31.4101105  66.2100830  14.8100786  11.8033400  69.2841492  62.0775681
  11.0270119  69.8196793  62.2411270  11.5741768  68.4196625  62.4187012
   7.6054091   5.6529303  60.5897026   6.8103523   5.7301483  61.1171036
   8.2701359   5.3394537  61.2029724  35.9618797  41.7936859  15.9401436
  35.0323105  41.5709419  15.9903364  36.0961838  42.4222870  16.6494064
  72.3544846  33.5526314  87.4855347  71.9618759  33.6529465  88.3527298
  72.1423111  34.3677673  87.0308151  64.8525543  65.7228394  62.6707153
  65.3447342  66.1399536  61.9636002  65.4837952  65.6401291  63.3855095
   2.1269913  46.5258980  61.1542778   2.6280174  46.0759850  60.4739952
   1.8477336  47.3444977  60.7442245   2.8771448  47.6572227  78.3398590
   3.0170412  47.3130226  77.4577103   2.3673687  48.4564285  78.2070694
  49.2966843  63.1707306  59.2666435  50.0900993  63.7061348  59.2751694
  49.5868988  62.3176041  58.9438705  59.9753876   0.4410738  20.7115955
  59.3506813  -0.2335023  20.9779148  60.0517044   0.3358604  19.7632618
  63.9621429  10.3107090  57.7999344  63.5863876   9.5141191  57.4251213
  63.5555038  10.3840675  58.6633530  18.7103672  20.3183346  15.9763689
  18.1318092  19.7827778  15.4335232  19.3782711  19.7080574  16.2889366
  44.3614960   2.7522259  57.4580040  43.7782784   2.0534856  57.1616096
  45.1143608   2.7017696  56.8690414  80.5011597  54.8222275   7.8611736
  80.9833527  53.9977036   7.7988553  80.7961731  55.3299408   7.1052446
  27.4101295  59.7952614   3.8823922  27.7548122  60.3203049   3.1600668
  26.4634285  59.9323158   3.8476570  70.4497452  25.9709644  83.5139160
  69.5830536  26.1801624  83.1656113  70.9240494  26.8020744  83.4910889
  73.0508652  33.6897507  39.9881783  73.1944962  33.6977539  39.0418510
  72.9169388  32.7664719  40.2023087  83.9177628  43.2700424  79.0792999
  83.3750305  43.6789818  79.7534256  84.7386169  43.7619095  79.1016998
  86.4093094  22.2607517  26.7750301  87.0868835  21.9612331  27.3811722
  86.7355576  23.0983181  26.4459782  61.5984535  10.9457970  55.1147385
  61.0772362  10.8297071  55.9091454  61.5002403  10.1198626  54.6410103
  25.5052490  57.7003288  82.9275589  25.7287292  56.8090553  83.1957321
  25.9942513  58.2613068  83.5295715  14.1130676   0.5063143  83.8781891
  14.3537130   1.3484714  83.4920578  13.7175913   0.7330025  84.7198792
  14.5678425  57.3854332  76.3759155  14.7346182  56.5587502  76.8286972
  14.5946226  58.0468483  77.0673218  67.7948456  33.7981148  64.0635910
  67.4321594  33.8663864  64.9467773  67.3034821  34.4412308  63.5525131
   4.6717958  44.3573608  65.1874084   5.3906260  44.2696304  64.5614548
   4.1061425  45.0308571  64.8096924  57.3810921  64.2421112   4.0714588
  56.9108162  65.0246124   4.3591490  58.0071106  64.5638504   3.4227576
  69.4891357  21.4586277  31.4611969  69.0469208  21.1927967  32.2674294
  70.3446960  21.7756081  31.7506256  40.8498001  40.2782097  86.9702148
  40.7367592  40.0150299  87.8835526  40.5566864  39.5202026  86.4645004
  62.9826012  43.8707771  75.3542557  63.6922760  44.2999763  75.8321533
  62.3225327  44.5546036  75.2405853  11.7747498  57.7424965  55.1265411
  12.5213089  57.1476326  55.0557289  11.9179049  58.3897514  54.4360352
  59.6847343  39.0520363  60.0283737  59.6167259  39.9500542  60.3526726
  58.7946320  38.8271599  59.7574768  11.0778160  61.9205856  68.0080032
  11.4674730  61.2275314  67.4750137  10.3538637  61.4927254  68.4652328
  74.4912643  59.4210968  57.7605057  73.5736771  59.2565041  57.9777031
  74.9847107  58.9212112  58.4107857  40.2078781  13.7259579  72.5125427
  40.5661125  14.0734224  73.3293457  40.9160576  13.1959734  72.1467209
  23.8351650  51.4860725  60.2873497  23.0736351  51.8584671  59.8427963
  23.6398773  50.5514259  60.3546562  28.2884922  31.2766495  75.0439835
  27.7935638  30.7697067  75.6876297  28.9666100  31.7171593  75.5561676
  67.3587952  12.4162798   9.4872007  66.9332275  13.1208363   9.9757977
  66.8079605  12.2944212   8.7139225   4.2000155   6.8122878  60.7608490
   3.3495300   6.9302731  61.1839180   4.0622573   7.1056728  59.8601952
  16.7900105  49.7311287  32.8132210  16.8733253  48.9750595  32.2321434
  17.4878635  49.6156197  33.4581184  62.0068588  67.4703903  28.7366676
  62.5926666  67.9889984  29.2881355  62.1439018  67.8127975  27.8533726
  67.4062653  47.7360725  88.9383774  68.1484146  48.3200455  88.7820816
  66.7762451  48.2728386  89.4191895  85.6413040  65.5266190  68.5312958
  85.6849823  65.2411652  69.4439011  86.4934158  65.9298859  68.3654404
  66.2634201  26.0109787  60.3118515  66.2583160  25.0538960  60.3259468
  67.1797028  26.2434196  60.1614380  40.5228119  29.9046879  45.8848076
  40.8262024  29.4381771  45.1059914  41.1835899  30.5815926  46.0311203
  83.2563095  65.4389572  46.4407234  82.7521057  65.9475479  45.8056297
  83.8945770  66.0597305  46.7921181  79.5550995  17.1928654  51.1406631
  79.7342987  18.1259212  51.0243530  80.3816833  16.8277645  51.4564095
  21.6317520   6.0184722   1.3226334  20.7256603   5.7581983   1.1568352
  22.0735531   5.2053657   1.5673782  11.9254045  63.3770714  51.9301682
  11.6047468  62.5380936  51.5992203  12.0789728  63.9016151  51.1443558
  86.0343552  31.0617104  72.3905716  85.4206314  31.7442379  72.1190414
  85.6822281  30.7392216  73.2201767  85.7836533  43.0263367  53.9032745
  85.8661118  43.9076653  54.2675400  85.0438232  42.6412888  54.3729706
  11.0341396  54.3305130  84.6654358  10.3114033  54.0138397  84.1235809
  10.6124697  54.8635101  85.3394852  42.7156143  52.2361832  37.1067390
  42.3440781  51.3845634  36.8766556  43.1636581  52.0850716  37.9389954
   3.2074246  57.2111130  12.8018789   3.7519987  57.7575073  12.2352009
   3.5205860  57.3973961  13.6870117  60.7826118  28.7964306  61.1564484
  60.4084587  28.8194923  60.2757072  61.3799629  28.0486107  61.1434059
  78.6136703  53.4654274  45.6416435  78.3567200  53.6274986  46.5493507
  77.8148193  53.6155052  45.1361351  18.9688816   9.8457260  72.9170532
  19.1821556   8.9147940  72.8529434  18.9260445  10.1447353  72.0087662
  70.9657059  32.9447517  43.8832016  71.4016647  33.5944328  44.4346390
  70.8288879  33.3923683  43.0482483  73.2992706  56.7869987  80.8603668
  73.2440033  56.4198608  79.9781036  73.9315414  57.5015068  80.7832794
  39.8068695  32.2524033   8.7826061  39.7918129  31.5066700   9.3825150
  39.1179771  32.0616226   8.1460037  33.3350182  54.8895073  10.3947477
  33.6339989  55.7920876  10.5051470  32.8477173  54.8976860   9.5709143
  71.7032852  47.8189316  12.7999668  72.5109634  47.5057106  12.3928061
  71.5093460  47.1706772  13.4770107  81.6287384  46.2026482  58.3367996
  81.5849991  46.9217415  57.7065468  82.3023529  45.6189537  57.9878387
  83.6319733  70.7485809  76.3538513  84.1584625  71.4747772  76.6880264
  83.9379578  69.9854736  76.8440323  74.0865936  16.0338726  35.0971146
  73.4011765  16.6468220  35.3630638  74.2391663  15.4939604  35.8726463
  28.2242031  51.2772446  11.0266848  28.9226913  50.6441460  10.8607540
  27.4168758  50.7965279  10.8440247  68.0923767  64.9412384  71.9334259
  67.7275543  64.1697922  71.4998322  67.3930206  65.5933685  71.8903351
  29.0574207  69.6315155  51.0297890  28.2091999  70.0708771  51.0906906
  29.3296719  69.5092468  51.9392738  55.6181793  19.6061134  50.6829758
  55.4307823  18.7940731  50.2121201  55.8569031  20.2305698  49.9979248
  23.9653606  59.0285683   9.8568106  23.3224144  58.4262009  10.2309790
  23.7506294  59.8779182  10.2424631  57.5431671  11.9060783  73.2573090
  58.2664146  12.5280914  73.1782837  57.3650398  11.8639755  74.1968460
   3.3287590  40.5133553  78.1467819   4.0865574  40.9738007  77.7862778
   3.7052376  39.8305359  78.7019882  12.4021797  61.0389404   4.4721828
  12.7847481  61.7617912   4.9695354  12.5733929  61.2608871   3.5569460
  17.7173328   3.5571856  70.1374435  18.6660366   3.5423563  70.0110703
  17.4673653   2.6343412  70.1833420  73.2460556  53.6910057  83.9110184
  73.3559647  52.8709412  84.3923187  72.3693237  53.6304283  83.5316772
  19.3606052  64.7438354  80.2449112  20.2916927  64.9351196  80.1321335
  19.0803394  65.3259277  80.9512024  63.0448341  52.1891747   3.3922458
  62.7778320  51.2972374   3.1700132  62.8508453  52.2716446   4.3259478
  43.2448311   1.0664593  59.6657829  43.6444931   0.8654293  58.8195610
  43.8369827   0.6767029  60.3089638   0.5955501  35.5278435  51.4096069
   1.4746494  35.6018562  51.0382080   0.7398005  35.2394867  52.3108711
  46.7784195  39.3954506  56.6849823  47.0278473  39.1746483  55.7876167
  47.4808884  39.0331154  57.2248726  24.1504612  10.7785816  82.7956696
  24.6846542  11.3996849  82.3005981  24.5820332   9.9342270  82.6651306
  24.3631916  45.3840523  39.0509529  23.7426395  46.0609016  38.7807350
  25.2240810  45.7721825  38.8945656  81.1023178  20.7905216  58.4523087
  81.9520721  20.3573093  58.5327339  81.1715393  21.5603447  59.0169411
   0.0002164   2.9321430  10.1810741  -0.6624254   2.5230141  10.7376270
   0.8228412   2.8019018  10.6528349  68.3200912  16.8254051  72.5861511
  67.4943237  17.1189594  72.9710770  68.4283142  17.3706570  71.8069077
  54.9607658  31.2935028  33.4648056  54.1750221  30.7468967  33.4569511
  55.5786285  30.8167896  34.0190811  11.8751564  61.1294365  81.0378952
  12.2777061  61.9559937  80.7714615  12.5514259  60.6884727  81.5521393
  42.0032578  34.5164452  10.0313005  42.1102448  33.8491859   9.3534002
  42.1829300  34.0560303  10.8510370  55.6070328  10.2103500  41.1732674
  54.8383865   9.7434549  40.8455086  56.3022423   9.9927683  40.5523186
  24.9750080  12.6300278   9.7202196  24.2185516  12.2534170   9.2705879
  25.0856400  13.4930086   9.3211479  29.6663055  30.1951752   4.1184368
  28.9828548  30.5292358   3.5374627  30.0398846  30.9778099   4.5235944
  74.9155121  47.0153618  29.7974434  74.6771469  46.8251228  28.8901253
  75.6804352  47.5867538  29.7293644  55.4394646   3.5905447  24.8319473
  55.0915909   3.2709217  23.9994488  54.6997566   4.0354381  25.2456303
  74.9975510  19.1487103   9.8714790  75.4598923  18.7406273  10.6035595
  74.2206650  19.5425091  10.2684679   1.8209724  33.4942322  34.4212418
   1.0246674  33.3101425  34.9194794   1.5229356  33.5771790  33.5154114
   2.7158625  53.9351692  77.1857758   1.8475331  54.2417793  77.4469757
   3.1520426  54.7150536  76.8426208  63.1038780  68.9381104  12.6470757
  64.0440979  68.8018417  12.7638941  62.7812080  68.1032562  12.3077574
   1.1161221  17.2618713  40.2168007   1.0639644  18.2060680  40.3651390
   0.8259787  16.8733749  41.0421028  62.9299049  37.9764061  53.5639915
  62.7702141  38.5604172  54.3053856  62.6098404  37.1234589  53.8577118
  27.6075554  69.1067886  32.1743927  27.4772587  70.0121918  31.8924389
  26.9054890  68.9491196  32.8056412  56.5088844   5.8911018  29.4872360
  56.6867638   5.3485518  30.2554989  56.5211487   5.2775149  28.7526665
  30.0956764  54.1725807  56.0720863  30.1136360  54.9677925  56.6045761
  29.1650200  54.0036545  55.9252052  23.0696583  17.0243607  78.8808517
  22.6973133  17.8925438  79.0352859  23.5221977  17.1037464  78.0411301
  23.5744362  28.0352325   6.4042048  22.9458504  27.3150520   6.4537110
  23.2890110  28.6492062   7.0808144  34.4948921  71.2602768  13.4669571
  35.3341293  71.3472748  13.0149126  33.9241104  70.8284912  12.8313475
  33.5031433  17.7831974   7.5353155  32.7336960  18.2580242   7.2211099
  33.1445045  17.0525246   8.0390291  28.7545376  45.9667397  63.0529442
  28.8545227  45.0649605  62.7479362  28.7916260  46.4948158  62.2554550
  64.8245468   3.2035863  19.0586376  63.9373436   2.9259140  18.8305969
  64.9943619   2.7911141  19.9055500  39.1334457  50.4357796  52.6395950
  39.5668182  50.3964462  51.7870255  39.4909210  51.2210999  53.0539818
  66.5670166  49.8045425  20.4887981  66.6930389  49.6503983  19.5525360
  65.6555557  49.5613251  20.6510220  62.8397141  43.0609894  63.6788483
  63.3755646  42.4200897  63.2115822  62.5131950  42.5877533  64.4441376
  58.5229340  54.3105545  21.7124176  58.5093536  55.1764984  21.3047562
  58.9637070  53.7514954  21.0725727  72.0581589  32.0347824  80.9435120
  72.5745392  31.3202286  80.5706940  72.0464935  31.8565407  81.8839035
  84.0485077  45.4981918  19.1322861  84.9160995  45.5536156  19.5328445
  83.5185013  45.0246239  19.7734241  48.9494400  39.1683846  77.1616135
  48.0878334  39.3977470  76.8134003  49.5200920  39.1462593  76.3934326
  61.7423286  16.4247704   8.2657938  61.9843597  17.1606464   8.8280563
  62.3225784  15.7140141   8.5384951  52.1258888  26.7351894  61.5053062
  51.3616295  26.1715794  61.6256599  51.8183823  27.4362259  60.9306564
  48.4200592  49.8644714  34.8873405  47.9908562  50.7063370  34.7347603
  48.4754295  49.7930870  35.8402672  67.7625351  36.7133713   2.7182310
  68.2217102  37.4663353   3.0902996  67.1213913  36.4699135   3.3859870
  46.9375229  38.9390602  54.0492821  46.6761627  38.0824738  54.3871880
  47.1930389  38.7709427  53.1422653  67.8705597  13.8294382  58.1615906
  68.4318695  13.9449911  57.3949013  67.5968857  14.7167521  58.3939857
  80.0987625  69.3539658  45.8024864  79.5764999  69.4664154  46.5967331
  79.5593338  69.7285233  45.1060982  58.4944344  49.7335739  35.3812408
  58.3117256  50.2542191  36.1634026  59.1052399  49.0596046  35.6794357
  66.1788940  46.9564514  64.3670273  65.6725998  46.7890968  65.1619339
  66.2085876  46.1108322  63.9194946   8.3685732  49.4306412  64.8568039
   8.7673922  48.5730324  64.7095490   7.4268136  49.2594414  64.8601303
  57.7394714  30.3513050  86.3691406  57.9713364  31.1681709  86.8109589
  58.2872849  29.6880760  86.7889786   9.9729595  35.4222908   0.5282449
   9.1282148  35.5716629   0.1035962   9.9745712  36.0206223   1.2753907
  50.4110603  58.0804100  26.0811119  50.5720482  58.0937462  27.0245819
  49.8066177  58.8072777  25.9309769  50.8012047   8.6890936  43.5159988
  51.4081497   8.3408995  42.8628426  50.3016968   7.9269857  43.8091125
   5.3137565  55.8968201  79.0897598   6.1884561  55.7162857  78.7454605
   4.8470774  55.0652962  79.0060425  81.6906967  57.7287941  59.0738373
  80.9296875  57.6843719  59.6527405  82.1198883  58.5524979  59.3052216
  35.9828682  70.6068268  58.6251335  35.1211662  70.8866425  58.9340057
  35.9117050  70.6218872  57.6707001   4.8860497  42.7823219  16.4992390
   4.3151832  43.5162811  16.2719746   5.5819545  42.8078804  15.8425074
  15.9421778  23.8444405  83.8311005  15.9306135  24.5236053  83.1566925
  15.8676176  24.3245564  84.6558228  63.3776550  43.3927040  82.4924011
  64.0882721  43.4281235  81.8520889  62.7949486  44.1101379  82.2434540
  60.1279793  20.1056137  89.1410141  60.6068726  19.7385654  88.3979340
  59.2102089  19.9055710  88.9568787  23.7457352  26.5552387  23.4487133
  23.4373360  26.7629204  24.3307495  23.5288525  27.3302422  22.9304790
  70.2498627  22.2255516  37.2851028  70.2588577  21.4878750  37.8950081
  70.1493759  21.8222218  36.4228630  21.0832977  34.4925499   4.4046559
  21.2734013  35.4215164   4.5354791  20.3778210  34.4812202   3.7578149
  17.5940914   6.0811439  63.0467110  17.5399933   5.1367869  62.9000969
  18.5328941   6.2659950  63.0733719  57.6816216  12.3289251  41.0799942
  57.6022263  12.2475672  40.1295700  56.8832664  11.9268436  41.4223213
  34.9724426  70.5298843  31.8648796  34.1832390  71.0201111  31.6345234
  34.6492271  69.7674942  32.3450089  17.3425045  44.6191254  43.2498360
  17.3768501  45.4717064  42.8160629  16.4104862  44.4031105  43.2799950
  77.4664993  41.6672325  49.3895721  76.5648270  41.5191078  49.6746674
  77.8535538  40.7924576  49.3550529  26.0910969  21.9944210  78.0491714
  25.7612247  21.0988865  78.1228867  25.3036633  22.5365639  78.0016251
  45.7632217  43.7727776  22.3350964  45.6721764  43.9161644  23.2771072
  45.9388809  42.8355675  22.2513542  83.0632172  42.5551567  83.0422592
  83.6183853  42.2683029  82.3171844  83.4032440  43.4185219  83.2772369
  83.6557159  12.6637669  45.2753601  83.3038712  12.6990786  44.3858719
  84.5817184  12.4514608  45.1583900  75.9198074  31.6207848  65.4995193
  75.5735779  31.3548698  66.3513641  76.7678070  32.0175018  65.6988831
  14.7943001  50.4909058  65.8361130  15.3176937  49.7593155  66.1633224
  13.8913965  50.1754112  65.8743210  48.1395798  16.5257759  17.3739319
  48.1982803  15.7034245  17.8602676  47.3660736  16.4216290  16.8197899
  79.4699936  24.3431396  88.4425278  79.9717789  23.6412678  88.8570328
  78.9791794  24.7429142  89.1605148  11.1548758   1.1147721  19.6884956
  10.6204910   0.7288525  20.3825645  11.3287573   0.3893445  19.0887032
  78.2040024  15.9224768   7.8606343  77.3147354  16.2227783   8.0483847
  78.3804245  16.2360401   6.9736257  40.8828201  30.2697048  70.3625031
  40.8899307  31.0673122  69.8333435  41.4442558  29.6597805  69.8839493
  24.0989380  59.3252869  70.2150955  24.1423416  58.9148865  69.3514252
  23.3270302  59.8897858  70.1735077  71.7189026  26.3330822  47.8499985
  71.2145081  27.0763550  48.1807022  72.5744705  26.4180336  48.2707329
  16.2286949  47.0394936  14.3109837  15.4701872  47.4828262  14.6909275
  15.9332361  46.1405487  14.1666555   3.6061053  67.0826645  11.4410458
   3.0443957  67.5600891  12.0516014   4.4082265  67.6031036  11.3965435
  31.6749744  21.7707748  82.3780212  32.5271301  21.3354435  82.4014969
  31.7895813  22.5510025  82.9205627  26.6676579  58.3515968  57.0255890
  27.2672901  57.7216530  57.4253883  26.2797718  57.8789215  56.2891426
  23.0000381  42.8543968  52.6563263  22.0932446  42.5518227  52.7053909
  23.4637489  42.3279800  53.3075485  18.4095917   8.9666491  66.9848785
  17.8089924   8.3319235  66.5941925  17.9488487   9.8032188  66.9208603
  46.5050468  71.1647720  43.4072533  45.6137619  70.8569107  43.2427330
  46.7222710  71.6915817  42.6381569   8.2549477  60.1932106  38.4480438
   8.1835270  60.3270798  37.5029449   7.5218878  59.6169777  38.6643982
  32.3415527   7.5354619  87.9042892  32.1750946   6.6276059  88.1579056
  32.5607681   7.4878454  86.9737473  59.1723442   6.3297858  24.7655144
  58.9049835   6.8900619  24.0369263  58.7270088   5.4980297  24.6039867
  32.6635895  46.8734055  88.0800400  31.9908619  46.2736473  88.4024658
  32.2449532  47.3344345  87.3531113  46.0567207   4.3030167   9.0201626
  45.5371056   3.5236318   8.8232079  46.9445229   3.9713402   9.1544552
  48.7466812  36.8387070  46.0150452  48.0302887  36.5930634  45.4296608
  48.3998451  37.5717659  46.5235367  67.5660706  65.6991043  85.9194489
  66.8666458  66.3235855  85.7269440  67.9656906  65.5173569  85.0688629
  64.0729904  25.6833649   8.3378563  64.8178940  25.7309170   8.9370956
  64.2213898  26.3943405   7.7143784  81.2364044  53.0792313  39.7672577
  80.9665375  52.1969757  39.5122528  80.4154816  53.5405807  39.9389267
  76.4551544  24.7342491  72.7767105  76.4742813  24.1911945  73.5647202
  77.1239014  25.4018097  72.9295959  40.2925339  33.6436615   5.0235519
  41.0341454  33.6060486   4.4195442  40.3554192  34.5096817   5.4264026
  60.2740631  56.8060112  68.9118423  59.4891357  56.9238930  69.4468384
  60.4364471  57.6692009  68.5313568  72.6230469  32.0342979  83.5417633
  71.7961426  32.1135483  84.0173416  72.8602982  32.9352341  83.3220825
  16.4221706   4.3729739  66.0065079  16.1048431   4.6556225  66.8642044
  15.7592268   4.6856418  65.3908997  14.3764544  48.0823059  37.3551521
  14.4130116  49.0356483  37.2774467  13.4416943  47.8766479  37.3425980
  38.2609978  19.6178055   6.0415726  38.1028976  18.6796246   5.9364519
  37.6417122  19.8906841   6.7185178  15.2047653   0.4851683   1.1498916
  15.4143591   0.2267613   0.2523794  16.0519924   0.5160820   1.5942818
  26.5314178  49.4684258  30.0479565  26.8550282  48.6018219  29.8019867
  27.0431442  50.0757370  29.5135937  84.7671204  26.0741005  76.3491058
  85.4017105  25.3725872  76.2027740  84.9626846  26.7195053  75.6698074
  84.2033997  65.1461487   4.0942197  83.6491623  64.4762573   3.6938481
  83.7250824  65.9643402   3.9600105  33.6545868  54.1101151  53.9781647
  32.9662437  53.4527626  53.8766289  34.4680481  53.6057014  53.9869804
   4.6335855  17.3888855   5.9149704   4.0447564  17.5202465   6.6581101
   4.9402752  16.4870262   6.0088911  33.2064209  65.9867401  53.4551315
  32.6740036  66.1444321  52.6754532  32.6473808  65.4573441  54.0238571
  14.0078535  51.7428017  69.5435867  14.4266434  50.9601707  69.1853485
  13.7754946  52.2633705  68.7746658  80.9413986  53.3326302  57.3862686
  81.2550049  53.8968430  58.0930519  81.6721039  52.7396774  57.2110214
  77.7400894  20.9994812  23.2259541  78.0919113  21.4457035  23.9962406
  78.0121613  21.5450573  22.4880123  76.1212082  55.7113762  42.7845039
  75.8875809  56.5238609  42.3355942  77.0726166  55.6540794  42.6963615
  44.1091080  37.6634064  31.4871311  44.3775101  38.5651321  31.6634426
  44.4505539  37.1626663  32.2280121  15.0798035  59.8744469  12.4835062
  14.8955421  60.0934753  11.5701027  14.5739384  59.0781708  12.6456108
  10.7063580  61.1660385  85.2807236  11.0380440  61.5992775  86.0671844
   9.7773037  61.3950043  85.2549133  28.6234379  51.1789703  85.5433655
  29.4088917  50.7083778  85.8223648  28.7277985  52.0572815  85.9093018
  41.1107254  29.8761826  25.0522900  41.0436401  29.6833420  24.1171188
  41.0839462  29.0184078  25.4762459  25.0661106  15.2100601  19.4976711
  25.3231354  14.7519751  20.2978745  25.8790722  15.5951138  19.1704731
  15.2312326   1.6496905  12.8886986  16.0863914   2.0651758  12.7777548
  14.6220264   2.2298436  12.4320564  55.5825424  40.4980431   3.6329234
  56.0911636  40.0209618   4.2886152  55.1134758  39.8166466   3.1513536
  59.9939651  35.9382324  20.3089390  59.5736732  36.7230644  20.6605377
  59.3126068  35.2667160  20.3413486  57.6823006  66.1437531  39.7725792
  57.5388680  65.7917938  40.6510925  57.4519730  65.4236526  39.1855202
  38.3685570   2.0087502  79.0834274  37.8907509   1.5179905  79.7520676
  38.5409126   2.8590481  79.4878006  73.3297424  17.3648224  44.4951172
  73.3998795  18.3017960  44.3123779  72.5030136  17.1029949  44.0899086
  56.4242783  26.3150749   7.8385029  57.1288414  26.4024143   8.4805260
  55.6522217  26.6681652   8.2806425  46.0123444  54.8541145  55.3742027
  45.0789413  55.0597878  55.3223648  46.2183228  54.9093895  56.3073387
  35.5703468  41.7012596  69.0135345  34.8513565  42.3330727  69.0035629
  36.3234901  42.2004433  69.3294830  77.0058212  60.7155304   4.3603992
  77.0646286  59.8196259   4.6922541  77.4720383  60.6924896   3.5247343
  48.4222069  11.6260796  64.5051651  47.9071846  10.8381443  64.6787720
  48.5153122  12.0447359  65.3609009  51.9468613  27.0463657  36.0241203
  52.7162323  26.5687065  36.3341866  51.2075386  26.4815693  36.2491570
  84.1342239  14.2743549  80.9795074  84.7089615  13.6077271  81.3556900
  83.6283188  14.6017694  81.7232056  59.6291809  30.1385632  36.5120850
  60.3309364  30.3274860  37.1350441  59.1062622  29.4599018  36.9389420
  79.3701935  38.7620125  51.9258499  78.5898132  38.4713135  52.3978004
  79.0974121  38.7942619  51.0089035  68.0401077  14.2749863  43.7843857
  68.7987518  14.2283926  43.2025719  67.3256073  14.5753975  43.2227097
  81.2521744  12.5555258  46.5483131  81.9580383  12.6692142  45.9118690
  81.2822952  13.3484993  47.0835876  79.0090332  64.7634125  22.0509644
  79.9155655  64.6771927  21.7560120  78.5246277  65.0169754  21.2652893
  12.6975565  55.0466957   1.7179219  12.1321230  55.8080559   1.8477361
  13.3641319  55.3460426   1.0996159  44.1357956  37.5260544  55.8022537
  44.2472687  36.8923912  55.0935364  44.9466782  37.4656563  56.3072853
  33.3754349  10.8994722  86.0755386  33.8947716  10.8231335  85.2751083
  32.8189011  10.1206913  86.0751495  81.1888962  42.3748436  35.0950699
  81.4658203  41.6235466  35.6195641  81.4433746  42.1491661  34.2003365
   4.3516359  22.3076019  19.4453411   3.7988741  21.9289589  20.1289463
   4.1058564  23.2324505  19.4234982  63.5493889  15.6502886  78.6214600
  63.1531067  15.3565607  77.8011475  63.0184097  15.2403078  79.3042526
  66.0964355  23.5445461  58.7399979  67.0419540  23.4342880  58.6396942
  65.7176285  23.0107956  58.0415344  69.5999527  49.9860306  27.0508728
  69.2128906  49.2317886  26.6064224  68.9305191  50.6677361  26.9928226
  24.2392559  58.1879349   5.8109779  23.3653221  58.2721252   6.1922717
  24.3071499  58.9239731   5.2028074  65.1335220   8.2954445   5.2488513
  64.9030380   8.1492414   6.1663122  64.5125809   7.7578197   4.7572999
  43.5936012  40.4490547   7.2393980  42.6804924  40.5484657   7.5088034
  43.7040558  41.0814743   6.5294156  78.7503662  16.6392879  82.4605179
  78.0835724  15.9798508  82.6522369  79.1011200  16.3841991  81.6072159
  13.5421038  25.8526134  57.1461792  13.2607498  26.7472782  56.9547501
  13.8516054  25.8873596  58.0512962  25.9869175  69.3033676   7.6259618
  25.3418808  68.6836090   7.2852907  26.7711372  69.1461334   7.1001229
  38.8927383  45.3102646  55.6503029  39.4031677  44.8680840  54.9719429
  39.0246887  46.2428436  55.4796638  61.3153915  27.8501263  14.6355972
  61.9541016  28.3446178  14.1220198  60.5860596  27.7030659  14.0333691
  78.5108643  51.1458397  27.9092903  77.6495132  50.7631302  28.0761414
  78.4242172  51.5670853  27.0541439  74.3607864  58.5953636  50.4106331
  74.6834793  57.8886375  49.8514862  74.8639526  58.5089149  51.2203102
  58.1350060  47.6559525  65.4974670  58.2758942  46.7364693  65.7231522
  58.9667854  47.9396248  65.1181183  49.2390213  30.9353752  78.1728592
  48.7290840  31.6404457  78.5717010  50.0356789  30.8874607  78.7013168
  12.5836945  16.7560272   3.5545032  12.8236961  15.8299789   3.5218444
  12.6519136  17.0532742   2.6471872  69.6052399  41.0538254  55.6602859
  69.4314957  41.9661102  55.4283791  69.3093109  40.5529366  54.9001732
  66.8170471  37.3325844  60.2153702  66.1231155  37.9556618  60.4309273
  67.1883774  37.6614151  59.3967018  80.4663773   0.9930017  47.1066208
  80.5865250   0.2467692  47.6939316  79.5914917   1.3218905  47.3131218
  29.7832909  46.2634315  51.6372337  30.4437447  46.5000648  50.9860535
  30.2302608  45.6489296  52.2193336  73.9916382  28.2414627  82.1606903
  73.6532593  28.4204731  83.0380096  74.8814545  27.9208870  82.3079834
  47.2910347  61.4843140  38.0232925  47.3998032  62.4264336  37.8936310
  46.3665886  61.3218575  37.8355713   0.0592075  47.2141647  36.1671486
   0.9903602  47.1918297  35.9464951  -0.3231625  47.8189621  35.5313454
  24.2586765  39.6513786  88.9277191  24.6499863  38.9580116  88.3963470
  23.4909878  39.9309692  88.4290009  57.9600143  52.5385704  16.0667305
  58.5397873  53.0609627  16.6209831  58.0599709  52.9160080  15.1927853
  83.0076294  37.0458603  57.3263092  82.2418747  37.0814667  57.8995323
  82.6839371  36.6467514  56.5187416  48.2392769  68.9478149   0.2381152
  48.9074020  69.2582474  -0.3730083  48.5181122  69.2850876   1.0894274
  53.8247528  28.7084141  79.6959915  54.1543274  27.8181000  79.5737076
  54.1524162  28.9689865  80.5567856  46.1925430  17.6069946  19.8546181
  46.1055489  17.1408176  20.6860886  46.8078995  17.0781631  19.3467751
  83.5216980  49.5261345  41.7528419  83.9610825  49.1904678  42.5341873
  83.7980881  48.9369774  41.0508957  81.0873642   3.0900450  20.3329449
  80.1677475   3.2595189  20.1284275  81.4264069   3.9346955  20.6293316
  25.0691166   2.5610700  18.0151844  24.2422028   2.2268248  17.6677322
  25.2604942   1.9956633  18.7634640  65.8491211  11.8149252   7.4160466
  66.0559540  10.9263258   7.1264863  65.8969498  12.3436117   6.6195321
  35.6716919  43.6589775  35.5278168  35.9656830  43.8163185  36.4250603
  34.9050293  43.0937576  35.6226234  32.3316841  23.9332294   9.2847223
  31.4095421  24.1864452   9.3267794  32.7542992  24.6463699   8.8061237
  47.9040947  42.3073692  30.5747662  48.6458626  42.5857811  30.0376396
  47.2615738  41.9806786  29.9449463  43.4751740   4.6824818  24.3729630
  44.1414948   4.8523846  23.7070942  42.6671295   5.0328450  23.9980698
  69.1303940   3.6193109  65.2185745  68.4246368   4.2387118  65.0328827
  68.7440186   2.7593298  65.0531082  42.0143700  50.6200638  57.6197815
  41.2930794  49.9963989  57.7035332  41.6006966  51.4783897  57.7113342
  66.9174042  38.7437935  15.8339224  66.0830383  38.2853203  15.7346039
  66.9052887  39.4139404  15.1505556  70.4674606  63.8213463  16.3994179
  70.8273697  62.9820786  16.1124802  70.1708145  63.6610184  17.2952557
  19.9745884   9.1690750   4.2931070  20.8246250   9.0402555   4.7139111
  19.8291435  10.1143818   4.3314786  38.6702118  18.1251144  71.8827591
  39.1239853  18.1952991  71.0428772  37.7413940  18.1052704  71.6522369
  79.5478058  16.0993042  10.1139479  79.2706223  16.8782959  10.5962067
  78.9478149  16.0523167   9.3696108  54.5684586  35.2883759   2.9315231
  54.8899384  35.6852150   3.7410901  54.6535606  34.3460464   3.0764592
  16.0087662  24.4898014   2.8918738  15.6272154  24.2030334   2.0621665
  15.5029182  25.2659626   3.1325469  60.1728287  46.5648232  53.6843605
  59.9830894  46.8854790  54.5660706  59.5386620  47.0131454  53.1248322
  82.6291962  13.9389791  32.5479927  82.8462219  14.7437401  33.0186234
  83.3689804  13.8004560  31.9565830  21.7166443  16.2639141  20.2074528
  21.0970364  15.6892462  19.7579269  21.4897938  17.1435146  19.9056664
   9.8425751  60.9800835  88.7479782   9.0398827  61.1185150  88.2452316
  10.4291210  61.6796074  88.4601288   4.1758571  14.0740299  87.5354004
   4.9898405  13.6258373  87.3056488   4.4403901  14.9776793  87.7076645
  78.5381165  29.9060097  74.7959213  78.6868057  30.7370224  75.2470779
  78.8006363  29.2388515  75.4301300  81.5300598   7.3920097  32.0457115
  81.8864288   6.7274942  32.6353302  81.6990356   8.2224693  32.4907036
  53.0335770  66.6805267  42.7663651  53.3731766  65.8519669  42.4281387
  53.3177567  66.7006683  43.6801834  15.7625494  28.0757198  12.1762772
  15.1568375  27.3660107  11.9626017  15.1977968  28.8298321  12.3453932
  63.7303467  13.5012197  24.6682491  63.6315880  12.9443512  23.8959961
  63.8477249  14.3828297  24.3143864  58.2272034   3.0280142   9.9473658
  57.9887161   2.7036128  10.8157663  58.1994247   2.2530377   9.3862314
  81.4739304  22.5037136  23.5085354  81.7783432  21.7300034  23.9828091
  80.9632874  22.9940319  24.1527901  61.5160980  17.6504040  49.5629349
  60.8261299  16.9877834  49.5296173  61.1803055  18.3158493  50.1634827
   1.7044930  67.5368881  33.8101807   1.7787330  67.2825623  34.7299843
   2.2346396  68.3305511  33.7375908  50.0289726  40.3008232  19.2234726
  49.3279419  39.8399506  18.7626209  50.3621597  40.9306259  18.5842800
  47.7523918  28.4740486  20.1103134  48.4853401  28.8151512  19.5978050
  47.7338104  29.0213928  20.8953609  57.2597389  69.1068649  30.3363800
  56.8631516  69.6302185  29.6399269  58.1221313  68.8691025  29.9958153
  43.6055222  49.7653618  77.5296249  44.3167038  49.3602180  77.0333328
  43.3905258  50.5573654  77.0369339  51.2854385   2.7490814  10.9031391
  52.1449547   2.3363049  10.9872904  51.4092407   3.4268103  10.2386189
  33.9878349  48.7864609  32.2660713  34.7760277  48.7785835  32.8091316
  33.6532974  49.6800461  32.3424110   5.0621967  64.6425552  71.5815659
   5.2902622  65.5403061  71.8229141   4.2284489  64.4803391  72.0229111
  74.5665970  21.3436146  31.2326508  74.7613983  20.4071007  31.1976280
  74.1433792  21.4686184  32.0820580  80.9556580  16.1617031  85.0178299
  81.2911835  16.8552074  85.5859070  80.5752563  16.6259518  84.2721786
  32.9242210  18.3773212  14.0261135  33.3902092  17.9146156  13.3297024
  33.4515152  18.2238617  14.8101063   9.3810015  51.8877487  70.8657150
   9.4638309  51.0217361  71.2649536   8.6955605  51.7827377  70.2058868
  69.6090317   9.3327789  15.5781088  69.1518173   8.6653414  16.0896893
  68.9105530   9.8185711  15.1395102  49.6004028  23.0506935  12.0168076
  50.4257698  23.3290615  11.6199303  48.9270935  23.5165958  11.5210009
  20.7673111  71.3986282  10.3359375  20.9768124  71.4484329   9.4032745
  21.4937687  71.8470154  10.7688770  71.2206726  19.9040375   3.2658505
  70.3324432  19.8278637   3.6143820  71.1452179  19.6222878   2.3541741
  29.9849663  24.1753769  40.5153656  30.5252018  24.4141922  41.2685890
  30.2322826  23.2715130  40.3201866  34.8635674  46.3746452  15.6115437
  34.1813774  46.9534798  15.9518404  35.6626282  46.9005775  15.6451130
  17.5363693  63.1206512  40.2546463  17.7866955  63.5474968  41.0740166
  18.1350880  63.4844551  39.6024094  51.3155289   4.7927179   4.4286985
  50.9477768   4.4476628   5.2422895  51.9073410   5.4903507   4.7102909
  25.4078159  25.3378696  88.5763397  25.2162628  24.6675205  87.9204636
  25.3008518  24.8895988  89.4152908  44.5765572  32.7057877  81.3905029
  43.7991486  33.0200119  81.8521576  45.3098297  33.1139450  81.8508835
  66.8138733  23.4619999  62.7563171  66.5870743  24.1356544  63.3973999
  66.0235748  23.3603554  62.2259216  41.4687195  53.5331535   9.7597275
  41.6939087  53.9106026   8.9094019  41.5821724  52.5901680   9.6408091
  32.8982582  57.0844421  40.8696442  32.3662224  57.8795929  40.8395500
  33.6732712  57.3337364  41.3730774  46.6414566  22.4357300  82.8444061
  47.5605278  22.3869457  83.1073837  46.1593094  22.4970436  83.6690292
  74.6089783  61.2464905  82.7665024  74.3780899  61.3011971  83.6938248
  75.5582962  61.3677406  82.7484894  20.7756805  28.8171234  87.1783752
  20.5928288  29.1625633  88.0521469  21.3415413  28.0608196  87.3334122
  15.8010187  37.1467667  34.2894707  15.5972271  36.3346672  33.8255806
  15.7557821  36.9111099  35.2161026   6.0642157  48.3501663  68.6751022
   6.5872750  49.0581741  68.2991180   6.7030520  47.6736107  68.8995895
  36.2553215  16.6845837  84.6792679  35.3471985  16.8305702  84.9442825
  36.1918755  16.3277493  83.7933350  69.4897690  25.7362041  44.3150826
  68.7272873  25.3822956  44.7729111  69.1236954  26.1929131  43.5576935
  12.7608519  69.8769760  68.8731918  13.2075329  70.7014465  69.0654373
  11.8599806  70.0192261  69.1637573  60.6276054   2.5182328  49.2081757
  59.8582230   2.8584368  48.7515106  61.1631088   3.2918260  49.3843117
   2.4591286   6.4703074  69.2507019   1.5957799   6.3465962  68.8562927
   2.3027940   6.4099741  70.1931152  48.8671951  39.7542076  62.6282120
  49.5814247  39.7071152  61.9926872  49.2596817  40.1626930  63.3997841
  76.9627457  71.3283691  68.0078506  77.0077362  71.4207840  67.0561905
  76.1580276  71.7839966  68.2549591  39.0301208  42.4174461  25.2869835
  39.3510132  41.5410118  25.4994068  38.7625504  42.7852020  26.1292381
  33.7447395  70.1378479  77.9319229  32.9051399  70.5937729  77.8732758
  34.3125496  70.6014633  77.3163910  33.8033142  51.0956993  75.8055649
  33.2273979  50.3950691  75.4995041  33.6619835  51.1257439  76.7517929
  12.5951004  62.2591743  35.2578011  12.9045916  63.1565666  35.3808174
  11.6827765  62.3557739  34.9847336   7.6821108   1.9277112  81.3333664
   6.7534404   2.0228126  81.5449295   8.1060457   1.7772075  82.1782684
  25.4666462  34.5184593  86.0246811  25.5282650  35.4631500  86.1660995
  24.9801006  34.1940689  86.7824936  59.5057640  54.4432945  17.6659451
  60.3413429  54.7707558  17.3330631  59.7487679  53.7984924  18.3303337
  50.7692490  51.4413376  30.6924076  50.0311356  51.8502007  30.2404652
  50.4321213  51.2358513  31.5643883  39.8088188  45.4320946  18.3135777
  40.6742859  45.0243187  18.3438358  39.4804115  45.2322578  17.4369678
   7.5897303  40.3242226  63.7734146   7.5551043  41.2339211  64.0691833
   7.9716783  39.8472023  64.5101624  78.2680054  40.4452248  44.2159920
  77.5960236  40.5716286  43.5461502  78.8448563  39.7732544  43.8527565
  67.2415619  63.3678436  67.9944839  67.1499176  62.8141975  67.2190475
  68.1273651  63.1914139  68.3114243  64.0064392  44.4584618   7.2983046
  64.2627029  45.3781700   7.3668728  63.0667152  44.4844666   7.1180844
  43.1203766  49.3687134  24.9498367  43.1613235  48.4447174  25.1963825
  42.3732986  49.4247551  24.3540497   4.4406161  55.3141518   9.8370304
   5.3222437  55.2541924  10.2049570   4.4783659  54.7887115   9.0378294
  40.0090332   1.9243244  49.2099648  40.5324554   1.1715392  49.4848785
  40.6461983   2.5390120  48.8460808  66.6804962  40.6605721  31.2568321
  66.5519257  41.1525269  30.4458542  66.1612320  39.8650970  31.1392994
  81.2955017  31.2858295  64.9061661  81.5892105  32.1154366  65.2826157
  81.7526398  30.6165562  65.4154053  42.9811897  31.9035244  66.7102585
  42.0265808  31.9738979  66.7119598  43.1519432  30.9634037  66.6532440
  83.1122742  54.1888962  10.8464956  83.6390610  53.6436195  10.2622023
  82.4675751  53.5873604  11.2189875  40.5842857  42.2920532  20.2187405
  41.5105133  42.3699417  20.4473515  40.1777229  43.0714302  20.5975723
  51.5274582  41.0755310   9.0344057  51.2519493  41.8442497   8.5350046
  52.4830437  41.0840988   8.9794874  79.4360580  20.9360981  28.2891674
  79.1645584  20.5113106  29.1028481  79.1082077  20.3610039  27.5977840
  44.7983131  34.6787109  40.3143005  44.1936150  34.8380051  41.0390053
  44.6686134  33.7566643  40.0923958  78.2457199  35.7024918  31.0746784
  78.5349960  35.5793152  30.1705894  77.2909393  35.6514702  31.0297108
  40.2529793  50.3401527  36.9485054  39.5132904  49.8422241  36.6004333
  39.9938278  50.5600357  37.8433380  72.1718445  62.9252625  23.8316250
  71.9913025  61.9909134  23.7285156  72.3572006  63.0318527  24.7646370
  83.0793076  26.2207489   1.7783122  82.3222275  26.7523117   2.0242810
  83.8340988  26.7812767   1.9581064  81.1291275  38.5787239  67.4821167
  80.3748703  38.6811523  68.0624924  81.7567596  38.0675240  67.9929810
  66.5988235  11.5379868  83.6405945  66.4230423  11.2632904  82.7406616
  67.5537262  11.5460005  83.7063828  33.0427513  19.9512043  70.0909882
  32.8960342  19.1136703  69.6513977  32.1703987  20.2334957  70.3658447
  38.7304993  54.8250351  83.9906540  38.8779869  54.4549866  84.8610306
  37.7902718  55.0021667  83.9618912  57.7412987  17.4397678  74.1965866
  58.5705109  16.9968414  74.3767395  57.8402367  18.3045635  74.5947876
  31.1571217   0.3127657  16.5422287  31.1840191   0.0597535  17.4649925
  30.3194752   0.7650667  16.4422112   4.7970910  66.7546921  31.9472103
   4.6867967  66.0701981  31.2872562   5.6002922  66.5147018  32.4092751
  38.2572517  66.3290405  11.7836409  39.0421486  65.8568649  11.5057516
  37.7112312  65.6620102  12.1997814  31.3064518  52.7114525  69.3103333
  31.0670300  53.0764923  70.1621933  30.5707378  52.1453018  69.0770340
  52.6791534   5.1072359  72.7416458  52.8618927   5.7247596  73.4498138
  52.3502350   4.3251352  73.1847763  52.0078697  23.3857441  10.1120348
  52.6358490  22.6935692   9.9052296  51.2352409  23.1723080   9.5888481
  68.2841797  14.7399292  81.5405960  68.9679565  14.1457233  81.2313843
  68.3456955  15.4985781  80.9601593  72.8784561  39.6824150  24.4750614
  72.7759628  38.9605598  23.8548584  72.1940308  39.5361443  25.1280594
  14.1694889  49.9233742  52.5769920  13.8016167  50.0575104  51.7035446
  14.9512434  50.4754333  52.5949936  50.4854507  10.3499966  62.9309464
  50.2204475  11.1366110  63.4076462  50.0019341   9.6398640  63.3530273
  60.4091339  42.2419739  10.0538568  60.8073425  41.3946495   9.8546038
  61.1409988  42.7897568  10.3376455  77.3981705   3.4917657   7.6427841
  78.1870880   3.7138600   8.1372690  76.9248047   4.3198376   7.5624490
  20.1138077  12.4554253   3.8940060  20.2075024  13.2606173   3.3849697
  21.0080528  12.1282082   3.9913967   3.0467298  19.3712521  33.4463959
   2.8443148  20.1179810  34.0100060   2.9246635  18.6065140  34.0089874
  77.2545471  50.1758194  39.4828224  77.8261337  50.3084793  38.7265663
  77.3194427  49.2394981  39.6707764  78.0200806   7.2063084  79.2784882
  78.1410751   7.8751717  78.6045303  78.2954025   6.3911295  78.8590622
  42.1712494  43.1658936  13.6637163  42.5823364  42.5020714  13.1100187
  41.7300224  42.6654892  14.3501158  66.2008667  46.4342613  34.1254311
  65.7562637  46.9978676  33.4922600  65.5651855  46.3195953  34.8318214
  30.6156006  10.8120670   9.2817316  31.5067501  11.1522694   9.2020550
  30.4739780  10.3197737   8.4731388  55.0764313   7.1418977  78.5085754
  55.3939896   6.9390817  77.6286621  55.2433357   6.3456326  79.0128937
  45.8696251  45.5219574  20.3635921  45.6690407  44.8281898  20.9918308
  46.0353966  45.0602074  19.5416794  44.2735405  65.5300980   2.7621224
  44.1511230  65.2210464   1.8644954  43.4081764  65.8404541   3.0286908
  44.7779350  31.3631268  12.9006004  45.1499748  30.6278744  13.3876572
  45.3611069  32.0974083  13.0928955  54.3854408  48.5161743  68.8974838
  54.4251251  48.6851044  67.9561462  53.4500580  48.5107155  69.1006165
  63.9492226  48.7165794  49.9353371  63.8229027  47.9509201  49.3749504
  63.5486908  48.4715843  50.7694740  24.5998325  63.9704857  37.4159431
  24.8144779  64.7438202  36.8943024  23.6757507  64.0813599  37.6395721
  25.9409790  11.0768785  39.0335732  26.6995468  11.2750015  38.4844322
  25.7501755  11.8994904  39.4842796  58.6357765  50.0891724  76.5323868
  58.0804863  49.6709671  75.8743668  59.4503479  49.5868607  76.5126419
  17.9121323  68.4890137  80.0538177  18.6301880  67.9214554  79.7736282
  18.2334824  69.3769226  79.8970337   2.7133663  27.9033966  20.9498119
   3.3327329  27.6528816  21.6352730   1.9979352  27.2727242  21.0313034
  75.6915207  40.0847130  42.5147171  75.0161819  40.2167473  41.8493462
  75.5988922  39.1671867  42.7712250  84.9679871  39.7940331  84.1163406
  85.4267197  39.0216293  83.7859116  84.6519547  40.2394485  83.3302383
   2.1136355  58.8128319  38.5343895   2.0614448  59.1239929  37.6306839
   2.9702837  59.1101418  38.8409729  69.5047607  48.8874512  49.5611610
  68.6118774  48.6133881  49.3516846  69.5337830  49.8134270  49.3204155
   3.5492449  30.3393002  20.9861851   3.2696393  29.4305820  20.8753510
   4.1509457  30.3157005  21.7302494  51.4440308  61.0805893  69.0590744
  52.0076103  60.5961838  68.4557800  51.0422134  60.4054337  69.6058273
  54.7376060  68.9647064  56.4873581  55.0464249  69.8523865  56.3060265
  55.2260361  68.4119110  55.8773727  83.7555771   8.4950094  26.9571781
  83.0781021   8.3428373  27.6160450  84.5698090   8.5448685  27.4579544
   7.6992497  23.4074059  82.3660812   8.1963644  23.4321499  83.1837006
   6.9523034  23.9852352  82.5223465  82.9376297  71.4999237   8.9322443
  83.0874557  71.2126846   9.8329535  83.3492050  70.8240433   8.3937063
  41.3606949   4.8568001  49.6435661  42.0683784   5.4571209  49.8781548
  40.9322281   4.6549520  50.4753761  43.6738091  64.1359253  48.0832596
  44.3159103  64.8198090  48.2736130  44.1772156  63.3220749  48.1046906
  43.7484131   4.2674704  60.9173317  44.5617447   3.9347436  60.5378342
  44.0051346   5.0738235  61.3646774  85.7474976  43.8258286  24.2583885
  86.0614548  43.2072639  24.9179630  85.8986893  43.3828812  23.4234219
   4.5005093  33.5854378  44.1373863   4.0447388  32.7728767  44.3570480
   4.2859731  34.1818275  44.8546906  29.7036400  40.0899315  52.8834572
  29.0539894  40.0343895  52.1826706  29.2233620  39.8472328  53.6750755
  36.8998222  63.5254631  60.8082619  36.8789864  62.7142334  61.3159103
  36.5063057  63.2920456  59.9674950  77.8910828   2.5062656  81.5534973
  77.3833771   3.3047731  81.6978912  78.6877670   2.6325095  82.0688629
  67.6430054  62.8889732  52.2180901  67.6552200  62.6201859  53.1366920
  68.5419769  62.7556801  51.9175606  20.3323326  34.5205078  85.2294464
  20.4984303  33.7031326  84.7598267  19.8001461  34.2607651  85.9814758
  11.3245926  43.0614738   6.5186982  10.4121962  43.2837639   6.3333564
  11.8023596  43.8801689   6.3856173  12.9130497   5.8549061   7.0919900
  12.3026066   5.5544910   6.4186831  13.7488928   5.4539614   6.8535776
  24.1472645  57.9000626  77.9024277  24.9034348  57.7725754  78.4753036
  24.1570644  57.1403427  77.3202286  36.0478401  23.8549652  85.8770523
  35.1843109  23.6440487  86.2321014  36.1014252  24.8092747  85.9285660
  22.6966171  45.0730476  11.4823256  22.2590103  44.2252998  11.4045038
  23.6254749  44.8565559  11.5634794  71.4380951  11.4417877  15.2435713
  70.8943939  12.0216818  14.7103310  70.8837357  10.6793118  15.4095554
  63.5067482   0.8876519  30.5879517  64.1204910   1.6213514  30.6230392
  62.6530838   1.2805778  30.7698841  27.2719707  48.3189812  77.8004379
  27.5760574  47.6056442  78.3616104  26.8002434  47.8816490  77.0916061
  41.2435722  22.6205959  17.1032791  40.7104073  23.3708687  16.8404903
  41.5361824  22.2339020  16.2780037  28.5342102  50.9888077  51.7007027
  28.1313248  50.1932640  51.3528137  29.3300858  50.6835175  52.1361465
  78.1729736  19.7303581  77.9251556  77.8313675  20.0164642  78.7723160
  77.6111526  20.1626854  77.2819748  57.0863571  47.3238182  74.1318207
  56.5347214  48.1060753  74.1309586  57.3480148  47.2142487  73.2176208
  48.0284958  65.7805557  61.3166924  47.1512604  65.9669418  61.6512833
  47.8824539  65.1904449  60.5773201  80.4039001  35.7056236  52.4590454
  80.8307114  35.8092537  51.6085625  81.1196747  35.5113487  53.0641479
  81.6882706  25.6052647  28.6140671  81.9135513  26.5354977  28.6262550
  82.5218964  25.1588688  28.4656353  51.6378822  41.1716576  67.3106995
  52.5428467  41.2020836  67.0003052  51.5902824  41.8565826  67.9776611
  35.4862442  63.8545990  38.8752785  34.8650513  63.2978592  38.4058189
  36.1306610  63.2446327  39.2343025  79.3069229  17.1793060  79.4777908
  79.4915161  18.0935154  79.2624283  80.1543808  16.7402763  79.4050217
  20.1584301  53.9287567   1.8695583  19.9955215  54.5024033   1.1208118
  20.4262943  54.5216255   2.5716910  16.9551659  31.3135414   7.1529746
  17.8040066  31.7103405   7.3485575  16.6040821  31.0652905   8.0081606
  45.6846924  55.9057808  17.1241608  45.4331360  55.5167770  17.9617939
  45.0531616  56.6122513  16.9888897  28.2244511  26.1591854   7.6977444
  28.9846287  26.5720425   7.2879753  27.5166245  26.2787285   7.0645595
  47.9189835  15.9534731   2.1280296  47.9559479  15.0070410   2.2663469
  48.7431145  16.1637192   1.6888952  59.0257797  35.5452881  88.4233170
  59.0039825  34.9357758  87.6855850  59.4864197  35.0689201  89.1140518
  82.5247421  58.6047058  35.0318298  82.0460892  57.9570160  35.5491524
  82.4953156  59.4023743  35.5601234  68.4908524  34.1841774  81.7714233
  67.6919250  34.5103073  82.1856461  69.1751480  34.7862778  82.0637436
  78.7918243  62.0417595  50.4057922  79.4275360  62.6598167  50.0450897
  77.9687881  62.2630768  49.9700623   3.3659115  46.0254364   0.5604529
   2.7261133  46.7287102   0.4495823   2.8951232  45.3475952   1.0453471
  50.6424789  52.5049477  45.7444534  51.0937653  52.5534706  44.9017105
  49.8331604  52.9984741  45.6115265   3.5381997  24.0191879  66.2493439
   2.8332431  24.6663094  66.2269211   4.3365712  24.5380363  66.3474808
  75.8288879  40.3462029  72.8981705  75.8079147  39.5619850  72.3497238
  75.4952393  41.0428391  72.3328323  72.2318954  36.7982101  18.7854042
  72.5440063  36.1397934  18.1646729  72.3177567  36.3796120  19.6419277
  78.8614349  57.6107292  84.1383896  78.3237228  57.6403008  83.3470383
  79.5394516  58.2703552  83.9920425  50.2229462  12.9771891  72.3595886
  50.1602478  12.3383198  73.0696182  49.6704636  13.7055550  72.6432800
  17.5379963  15.3152847  17.0220451  16.8817673  16.0028210  16.9085064
  17.0728683  14.6129465  17.4765892  84.4494476  14.1471825  12.6432562
  85.0513535  13.7734489  13.2868862  84.3147659  15.0484076  12.9363174
  80.5669785  22.2164211  44.9753647  79.6117859  22.1545773  44.9799500
  80.7531357  23.0762444  45.3525658  79.0941620  11.3963041  18.0294209
  78.2353745  11.5906181  17.6539745  79.7115631  11.5742149  17.3199120
  71.9766846  36.0854912  12.4363775  71.2179337  35.5312729  12.6190510
  72.7292938  35.5549812  12.6978626  -0.1139633  27.1008492  45.6576462
  -0.5381060  26.4549904  46.2226257   0.8207168  26.9093208  45.7346001
  44.8271294  31.5265522  78.8927155  44.6732407  32.0970917  79.6457367
  43.9818420  31.4872284  78.4453125  35.4924889   4.3610663   5.2810764
  35.0165024   4.9888062   4.7373729  36.3774490   4.3510375   4.9164228
  25.4878159   8.2153883  83.6529007  26.1245403   8.2640629  82.9398422
  25.7461472   7.4406734  84.1522141  32.9989777  20.4903889  87.7377625
  32.6913452  19.5846367  87.7725143  32.2448997  21.0102901  88.0158005
  56.4533844  26.5229015  76.5056229  56.3764229  25.5692539  76.4762039
  57.3690796  26.6823540  76.7343292  44.9104424  12.0675955  62.9226837
  44.1967735  11.7015486  62.4002686  44.4794083  12.6722813  63.5266685
  44.0353851  28.6205292   0.7558556  43.8046227  28.1480675   1.5557060
  43.6367989  28.1087856   0.0519517  33.3620033  49.9901276  80.8765030
  33.7123489  50.1193352  81.7578583  32.4143486  49.9377251  81.0007629
  33.7047157  64.4514694   8.8011265  33.5215225  64.0848541   7.9361048
  33.2602081  65.2992020   8.8010111  62.9789162  64.4304123   2.3900886
  62.0999184  64.0723343   2.5140660  63.2639809  64.6756592   3.2703283
  32.2008972  67.3008881  47.0562019  31.5815105  67.3975372  47.7795601
  31.7469654  67.6742249  46.3006935  77.3908615  60.4392090  79.9927139
  78.1993332  59.9267654  79.9904861  76.9173126  60.1428642  79.2154312
  44.2727432  65.3416748  73.2289581  44.7598534  65.2367172  72.4116745
  44.7751389  64.8426285  73.8729935   6.2470932  49.8898506  31.5215969
   6.9140511  49.4602089  32.0571404   6.1978025  50.7803154  31.8692741
  22.4558334  65.1045456  58.1022224  21.8826885  64.6220016  57.5064926
  22.3775139  64.6423569  58.9367790  64.4294052   6.6812572  78.8234863
  64.1033478   6.4178200  77.9629517  65.0749588   6.0118694  79.0502243
  32.1367722  14.5589705  77.6559143  31.9965057  14.4958124  78.6006699
  32.1253624  15.4987297  77.4743729  24.6213684  23.4278603  83.4546967
  24.2014256  24.2761822  83.5969315  24.1326027  23.0371017  82.7303696
  25.5761814   9.2382746  75.1015778  24.6345901   9.2008305  75.2696228
  25.6644344   9.0000372  74.1787109  30.8482132  61.7621651  29.8044147
  30.1529808  62.4172173  29.7427979  30.4097767  60.9778900  30.1344337
  82.7415619  60.9780045  65.8924866  81.8091507  60.9736786  66.1088638
  82.7788620  61.3234863  65.0005875  79.1407623  58.1105537  27.4166451
  79.0767365  57.4594727  26.7179127  80.0227127  58.4717026  27.3274269
  76.0342407  26.6931686  47.7277985  75.9726639  27.5996418  47.4265594
  75.1996078  26.5294933  48.1669273  46.2171593  60.9171791  10.4637737
  45.4463387  61.4815903  10.5229912  46.9268646  61.5069275  10.2093248
  66.0392609  39.1258125  80.2122421  65.2679214  39.4826355  79.7718430
  66.2372971  39.7608757  80.9005127  18.3369293  57.5049057  72.4365158
  18.9745064  57.7413368  71.7628479  17.7972145  58.2884979  72.5410385
  68.2429276   7.7518034  42.3600998  68.2655945   8.1201515  41.4769020
  68.1860886   6.8060651  42.2237892   5.2439499  64.3479309   4.0102086
   4.4676962  64.2891159   4.5671682   5.9722114  64.1251221   4.5900569
  50.5028381  41.7899818  38.5164223  51.2047005  41.2530365  38.8842659
  50.9568672  42.4634857  38.0099831  65.1468811  71.1058044  79.6408234
  64.9214172  71.8653259  80.1779785  64.8614578  71.3432083  78.7585449
  72.0950241  11.1257629  10.7567863  72.2109909  11.3105402  11.6887951
  71.1736984  10.8796234  10.6742430  30.4720249   5.5430393  77.9447174
  31.3980961   5.4283319  77.7314835  30.0951443   5.9495964  77.1643982
  63.7160645  68.7565231   0.6599198  63.2625656  68.4733810  -0.1340578
  63.3649216  69.6289749   0.8381031  17.4363899   3.0453770   8.4054813
  16.8819523   2.4314322   8.8870440  18.2157822   3.1439059   8.9523563
  75.2403641  64.6785278  85.6570206  75.8982697  64.3888245  85.0249863
  74.6028976  63.9649582  85.6832657   6.3236904  61.3411598   0.9725507
   6.9879975  61.4493065   1.6531626   5.8051147  60.5901604   1.2611876
  81.0084305  44.8980827  84.1682129  81.7469788  45.3855553  84.5331116
  81.0894318  45.0137367  83.2214813   9.3067112  39.6378975  25.7792015
   9.5174007  39.2708969  26.6377773   8.3723879  39.4629440  25.6666698
  48.5408974  45.9499779  16.2487831  47.9786339  46.6240883  15.8671236
  47.9424210  45.3917885  16.7452526  34.4325676  68.2000046  85.1399689
  34.6161537  67.9565964  86.0473175  34.3656502  67.3649902  84.6768265
   5.1272078  57.9780884  42.7068214   6.0737410  58.1152992  42.6683502
   4.7897692  58.7583542  43.1467667  60.0082397  19.5153790   5.0012612
  60.7319374  20.0016270   4.6062169  59.5489540  20.1624165   5.5366411
  70.5139008   9.3773203  19.5523911  70.9733124   9.8566294  18.8628712
  71.2019119   9.1260376  20.1686134  21.2097816  56.6845856  71.5426254
  21.6289177  57.2552910  72.1867218  21.9356556  56.3263702  71.0317307
  24.1160240  34.3474083  70.9515228  23.6584034  33.5331726  70.7421570
  24.0527859  34.8700714  70.1521149  29.0788975  61.4337158  21.6654739
  29.1824436  61.4289970  20.7139034  29.8018990  61.9750748  21.9823914
   9.3475733  42.9096375  27.7513199   8.9241962  42.3547478  28.4063625
   8.6861715  43.5648460  27.5288696  14.7524567   3.0271018  33.5510139
  14.1414051   3.3516190  34.2124786  15.5804176   3.4613907  33.7562141
  70.0981979  60.4956551  20.3514309  70.8566513  59.9133072  20.3083935
  70.4628830  61.3729286  20.2346725  19.9578819  11.9975653  74.7860107
  19.6043358  11.5553980  74.0141830  19.5762234  11.5273285  75.5272598
  59.5424347  63.0240288  42.5762482  59.2130623  62.1439476  42.7584610
  59.8345184  63.3513565  43.4269981  25.8315334  66.9276810  56.1723366
  26.2079372  67.0282669  55.2980194  24.9025974  66.7585373  56.0151787
  69.6070557   5.6053743  32.2173195  69.0089493   5.2856369  32.8927994
  69.0434494   6.0703969  31.5989895  25.0777702  25.5735874  64.4326172
  25.7947559  25.2157459  63.9090614  25.5122051  26.0377445  65.1482010
  67.7685013   0.8357164   2.0741136  67.9914017   1.6492454   1.6216580
  67.2767029   0.3291724   1.4277514  34.6568680  48.2560043  27.2687397
  35.0108299  48.8675957  26.6230621  34.2777672  47.5491180  26.7464180
  50.6649742   0.2545531  17.7615204  50.3418503  -0.5368853  18.1921558
  50.1075745   0.3517039  16.9894466  52.4096947   5.3719029  21.6929054
  52.5744247   5.9179730  22.4616070  51.6974144   4.7909203  21.9600201
  41.8461876  41.9222450   2.1689589  41.1092072  42.5115128   2.3297622
  41.9248657  41.8917770   1.2154846  12.6446381  29.9198265  76.4607315
  12.5454664  29.2613869  77.1483765  11.9670277  29.7017536  75.8207932
  13.1399117  49.5629501  46.1480217  12.8291445  48.6682281  46.0097160
  13.6798973  49.5097389  46.9365730  57.3574295  39.0350647  59.3433609
  57.2918434  39.7221375  58.6801414  56.4523773  38.8703346  59.6078873
  22.2208328  58.2187920  20.6545525  22.6838665  57.7448769  19.9637280
  22.2856407  57.6488495  21.4208412  83.5984879  65.5278854  77.9388657
  83.4350586  64.7562943  77.3964844  83.1831055  66.2472839  77.4633102
   4.8550773   1.0207610  37.9592857   4.1838717   1.6085666  38.3059845
   4.8486538   1.1800840  37.0154610  19.6089382   1.6530284   4.2811217
  19.5392189   2.6070135   4.2452917  20.4261417   1.4552498   3.8236334
   1.4681113  38.4050255  19.3537273   0.7294336  38.6369629  18.7908840
   2.1758027  38.1932335  18.7449989  60.0646896  14.5653152  67.8462677
  59.6110725  13.7952032  67.5036469  60.3418465  15.0466051  67.0666656
  62.1829758  28.1437111  22.7902527  62.8157959  27.5349922  22.4091568
  62.0405235  27.8162441  23.6783428  57.5974007   8.9672461  39.2633743
  57.3927574   9.0489521  38.3318825  58.5316467   9.1672487  39.3217888
  72.9373474  57.0871201  88.1948318  73.5680771  57.8030357  88.2714920
  72.6203156  57.1427231  87.2933655  83.0899353  46.7540550   2.7518945
  82.8044662  47.6146736   3.0586166  82.3564911  46.1727562   2.9528558
  11.1142397  58.4016838  30.9045734  10.6704836  58.4285583  30.0568771
  11.1431150  59.3152351  31.1888714  81.0973740  45.0733566  18.4692554
  81.7842865  45.7175713  18.6406288  80.9477310  44.6519127  19.3155556
   6.1778507  23.3433037   6.6694903   6.1206069  23.4636307   5.7216101
   5.6270266  22.5810661   6.8478618   2.7138860  65.2771454  23.5442333
   1.7974001  65.0045853  23.4995327   3.0894837  64.7408142  24.2424507
  25.0360985   4.4190164  20.7727127  24.2000637   3.9737561  20.6347980
  25.6143875   3.7402885  21.1207657  10.0185823  68.3898773  58.9731712
   9.4440317  68.2056961  58.2300720  10.4875937  67.5689316  59.1225395
  74.1209641  27.8634377  27.7797127  73.8383942  28.5661526  28.3650169
  75.0054398  28.1145611  27.5135155  33.8454361  17.4769135  86.1002655
  34.4952621  18.1356258  85.8552017  34.1423874  17.1521797  86.9503250
  56.3347626  30.8183041  40.2916412  55.9917374  30.9899769  39.4146614
  55.5555458  30.6947250  40.8336563   3.9237103   8.3059740  76.5905533
   3.7473817   8.7925358  75.7853241   4.8608899   8.1146097  76.5544128
  26.5349941  38.9168205  46.2796669  27.3655491  39.0174599  45.8146019
  25.8668270  39.0264893  45.6030884  60.2388382  69.2572937  39.7755432
  59.8559380  69.2499084  40.6527901  60.7394714  70.0723419  39.7395782
  36.2734070  13.7637196   8.8544846  36.6886940  12.9310045   8.6300898
  35.3592949  13.6536951   8.5927105  53.9040565  18.2974834  35.9059181
  53.3334045  17.7252350  35.3929634  54.5903435  17.7176895  36.2361946
  58.9150734  55.9122734  51.5638084  59.6948853  55.5925636  51.1100388
  58.7035675  55.2217789  52.1920700  85.0759506  26.2820320  57.2951698
  84.4529953  26.0673847  56.6008453  85.5639572  27.0322151  56.9556007
  72.0286636  60.1500664  54.7549171  72.4227066  60.9856148  54.5042725
  71.4091797  60.3759651  55.4487724  49.3406868  37.3539810  10.4744062
  48.4818344  37.4706726  10.0682192  49.9602051  37.4192581   9.7476559
  59.1203117  66.9868851  65.1535034  59.2369385  67.0121155  66.1032410
  58.2489548  66.6107330  65.0291061  27.5610313  44.2140274  58.1646423
  27.0756817  43.8350105  58.8974571  27.4865913  45.1598358  58.2916756
  84.4903564  59.1567726   1.3697785  84.3830566  58.2056656   1.3591639
  83.8664246  59.4608498   2.0289299  43.3230286  46.8550758  79.3637695
  42.5320549  46.9003983  79.9009323  43.3289223  47.6787415  78.8761520
  38.6311531  25.1550236   9.3060122  37.8374290  25.5373459   8.9317656
  38.4407768  24.2188683   9.3660145  26.3226051  45.8116570  35.8029289
  25.4603748  45.5747147  36.1444664  26.5554218  46.6115303  36.2743416
  10.8715248  32.4357071  14.7169504  11.1017914  33.3647041  14.7301521
  10.8127279  32.1903763  15.6403065  39.0509338  56.7466202  21.7108040
  38.8083649  56.3530617  22.5489597  38.6697617  56.1643944  21.0535736
  49.8739433  60.5950241  76.3297348  49.3569145  60.5992584  75.5241928
  50.7768402  60.7150536  76.0354538  83.9137497  40.3030815  39.7847328
  83.8484879  39.6910858  40.5178337  84.1762314  41.1311951  40.1866837
  19.8765812  20.0151863  31.2684174  19.3801479  20.3128185  32.0307846
  20.0441990  20.8122807  30.7656498  84.3726349  32.0093231  62.6598129
  84.3735962  32.4145508  61.7926178  84.7703247  31.1494942  62.5228386
  73.0578384  62.6086502  58.5869408  73.0761185  61.9614105  59.2919083
  72.1486206  62.6112404  58.2876892  69.3109131  67.2352524  68.0484543
  70.2032852  67.0524979  67.7543335  69.2032471  68.1771164  67.9160309
  58.4781418   0.2338322  41.0941734  57.8536110   0.9307848  41.2952919
  59.2361107   0.4246445  41.6467133  52.9702187  47.4052849  62.6277771
  53.8570747  47.1284256  62.3974152  53.0799789  48.2853661  62.9878349
  58.3905754  11.9867563  76.2401428  57.5495644  11.5575209  76.0829926
  58.6098747  11.7603054  77.1439438  59.4436111  63.4160728   7.1079760
  58.8984299  64.1593094   6.8498874  59.6711884  62.9879532   6.2826562
  16.4168301  24.9588890  86.2704010  16.8686428  25.7859554  86.4379044
  15.4867725  25.1797676  86.3197784  11.4732075  34.9984283  14.3175650
  12.0908537  35.6846924  14.5701189  10.9016485  35.4159126  13.6731606
  66.4365845  35.8000526  53.0546913  67.2525330  36.2904205  52.9547424
  65.7652969  36.3744278  52.6862984   8.4384460  62.9991989  85.9308929
   7.8400559  63.1242752  86.6674500   8.2018156  63.6885071  85.3103333
  86.7875366  35.9028969   2.0267432  86.9727707  34.9845428   2.2230651
  86.1936798  35.8724022   1.2766504  43.8044930  48.1285553  62.3881569
  44.1265717  48.1094513  61.4869728  43.2119102  48.8797989  62.4148445
  20.6965618  13.3292484   8.5020294  21.4876041  12.7941704   8.4374113
  20.0888939  12.7973032   9.0158415  76.0393600  58.3504524  18.4170341
  75.1992035  58.8068085  18.4628887  76.6226807  58.9665146  17.9738159
  33.9563026  58.4396896  69.6718292  34.2026520  59.2467422  70.1237183
  33.9243202  57.7783318  70.3630676  22.7449207  68.5251236  34.2981491
  22.4263992  67.6225128  34.2897720  22.8942471  68.7178345  35.2237816
  48.7809830  54.1820221  22.8900700  48.6971893  54.8849258  22.2457561
  49.0888634  54.6199379  23.6835899  49.3371544  32.9325523  36.6669159
  48.5652351  33.4212341  36.3813248  50.0715599  33.3743820  36.2406845
  65.1005936  37.1270981  21.7674046  64.1764450  36.8796806  21.7363033
  65.4341049  36.9176636  20.8949718  17.1046162  67.4339218  35.4855042
  16.9745522  68.3753204  35.3711205  17.7437744  67.3648682  36.1946869
  66.7519379  43.3773117  61.2513580  66.7643814  43.6801567  60.3434143
  67.6679001  43.4100800  61.5273476  72.8876190  12.1518431  21.9030209
  73.1704025  12.9833498  21.5224113  73.2930984  12.1350431  22.7699318
  68.8349533  16.3031044  37.7763901  68.1968842  16.8298702  37.2951241
  68.7254028  15.4178858  37.4290848  68.5670471  34.9363403  67.9756393
  68.5274658  35.4984894  67.2019119  68.7399979  34.0616074  67.6275635
  48.0137939  30.8150463  67.6708755  48.5268135  30.6079102  68.4519882
  47.6800690  29.9690762  67.3722153  38.0244446  54.8305321  56.7969093
  38.2046356  55.7247543  56.5068588  38.5458260  54.2796898  56.2129860
  42.1949463  39.0155830  56.9160347  42.8296051  38.4323769  56.4997292
  42.6755638  39.4135933  57.6418610  66.6946106  65.2947769  54.3230591
  66.4063950  66.0248260  54.8709602  65.9885788  64.6519012  54.3898163
  75.3408661  35.2398071  80.2533035  75.9118500  34.6429520  79.7695999
  75.4916458  36.0948143  79.8502426  27.5806179  -0.0850162  84.8248215
  28.2220211   0.1927506  84.1708527  26.7639256   0.3330728  84.5519791
  82.9861145   8.0263529  84.7330322  83.7451630   8.5341330  85.0198135
  83.3396149   7.1597242  84.5324631  45.5990982  22.7304611  16.3408661
  44.7600517  22.2764034  16.2629929  45.6848488  23.2174778  15.5212984
  69.2117538  13.6332655  60.6467590  68.3477936  13.8035069  61.0220222
  69.0308075  13.1656237  59.8314056  15.9588423  44.4183998  76.9123840
  15.8728771  45.0467529  77.6293335  15.0574236  44.1973305  76.6782761
   0.4308189  33.5305252  31.9606800   0.7402619  33.9342346  31.1498184
   0.3081782  32.6078796  31.7372513  12.3731880  43.6631508  13.6036472
  11.7750740  43.2961006  12.9526739  11.8224659  43.8276634  14.3690701
  61.5468330  11.8405390  73.5970459  61.7674446  11.2289476  72.8945389
  61.1208725  12.5730839  73.1518860  43.7871399  31.9091282  75.7575378
  43.2773552  31.7953835  74.9554062  43.2408447  31.5274887  76.4446640
  79.9419174  53.3389244  86.9432297  80.0339279  52.9195709  87.7987518
  79.6579666  54.2309341  87.1430283  72.5630188  23.3879910  13.0128164
  73.3613281  23.7348099  13.4111366  71.9644318  24.1344872  12.9869499
  33.0903053  58.2120705  23.7142906  32.1780167  57.9279137  23.7710266
  33.5951004  57.4600525  24.0239410  48.1058617  56.7327232  16.0053692
  48.0474243  57.5851974  15.5739708  47.2117920  56.5481071  16.2931004
   5.4713764  13.4673548   1.9842267   5.3455067  12.5187559   2.0076766
   4.5856032  13.8250732   1.9236054  44.9690056  28.6728001  20.4321461
  45.8290329  29.0033798  20.1727276  44.4873695  29.4514389  20.7114010
  10.6206388  53.8840141  36.8545837  10.4403801  53.3019142  36.1164131
  11.4946747  53.6307259  37.1514664  49.0308075  53.2843475  73.8518906
  48.8479004  52.5709038  73.2405243  49.2936020  52.8451614  74.6607742
   0.1779221  18.7117653  28.8854523  -0.0856073  19.4350834  29.4543076
   0.8975893  18.2886963  29.3537712  54.6851273  16.5289783  21.4955997
  54.5546837  17.1164036  20.7511883  54.0213699  16.7967453  22.1311798
  65.9576416  60.5993233  32.6714058  65.8685150  59.6515503  32.7714577
  65.3719559  60.9662056  33.3336792  32.0861282  54.9950905  58.3137054
  32.4107056  55.2997894  57.4663353  32.5053825  54.1437187  58.4387169
  10.1472015  51.6689758  87.1380005  10.5744543  52.2678108  87.7504425
   9.2635975  52.0222397  87.0346680  43.2397766  15.9350471  21.5831375
  43.0807610  15.1786451  21.0185108  42.4241219  16.0447578  22.0719147
  40.2422295  53.1918297  39.2918015  40.3779373  53.7038574  38.4945259
  41.0191498  52.6362610  39.3548012   2.9360170  46.4087639  51.4189873
   3.2956984  47.2764091  51.2344589   2.5266767  46.1393471  50.5967407
   4.1667509  60.1893158  56.3857956   4.2362127  60.3480492  55.4444046
   4.5734801  59.3324928  56.5148659  77.4704056   5.2965903   2.7099221
  77.7082291   4.4222112   3.0183597  78.0542374   5.8860064   3.1873736
   7.0364051  52.8683472   3.6741264   7.9725213  52.6755829   3.6215920
   6.9059911  53.5915222   3.0607390  56.8164940  17.6698875  59.9050331
  56.0111656  17.1637001  59.7980232  56.5892754  18.3503284  60.5387573
  57.5965614  31.8616505  15.8815212  58.1664543  31.0934505  15.9178839
  57.2906189  31.9757156  16.7813110  10.0168848  69.3377228  77.5793839
   9.3276520  69.6956329  78.1389313   9.7564430  68.4287872  77.4302597
  59.6754379  51.8855286  71.6043930  58.8928642  51.6795731  71.0931244
  59.9045258  52.7773628  71.3428955  37.7053909  60.0381432  43.7163506
  38.0447578  59.8244781  44.5854950  36.7671204  60.1708336  43.8515511
  49.6762085  21.5832825  43.2090073  49.2116470  21.5572376  44.0455093
  49.8051643  22.5157681  43.0355911  72.9948196  32.6611938  34.1032715
  73.3601456  31.8562469  33.7360840  72.0915985  32.4348869  34.3251190
  16.7458210  59.6065712  41.2640266  16.8968010  59.1888695  40.4161110
  15.7946939  59.6987495  41.3196373  44.4381866  61.6341972  38.3610878
  43.9977036  60.7855186  38.3168907  43.9175262  62.1421700  38.9832687
  29.1646805  67.8694382  27.4190083  28.3461018  67.5141678  27.7653408
  29.8347149  67.2475281  27.7027569  56.7459831  37.9221992  77.7331161
  57.2694817  37.2737236  78.2039185  57.0770683  38.7661095  78.0404053
  85.3554459  31.4855671  83.4450607  85.4475174  31.9039345  82.5890656
  84.7785110  30.7385750  83.2857361  19.0350761  62.0028000  80.4204483
  19.0547504  62.9426880  80.6005936  19.3885231  61.9212608  79.5346375
  59.6577377   8.1307077  17.6468334  60.0690956   8.9496040  17.9232864
  59.5132790   8.2405920  16.7070007  85.7953568  34.7639923  60.9211922
  85.0893097  34.3078537  60.4633026  85.6989975  35.6794014  60.6585579
  61.0331612   3.2888429  31.7499619  60.8190689   3.2532103  32.6822319
  60.8281326   4.1873369  31.4913044  19.6648579  56.1996078  48.3775902
  20.3155556  56.6969872  48.8730049  19.8362064  56.4252090  47.4632759
  60.7983742  69.4127655  31.9783020  60.1644859  70.1128311  31.8223667
  60.2938423  68.7252884  32.4131088  58.4357758  17.8524628  88.9052734
  58.3919792  17.1683273  89.5733109  57.5509338  17.8895721  88.5420761
  12.6788778  15.3633337  15.6655178  12.9413643  14.7537727  16.3552761
  11.8929482  14.9708548  15.2853785  33.4909821  24.4755630  82.2019196
  33.8518448  23.8088531  81.6175308  34.1835899  25.1324863  82.2724609
  35.4405670  48.7181473  22.7023888  36.2823219  48.2747078  22.5973358
  34.8144531  48.1542168  22.2483025  53.4235649  55.3945122  39.0363426
  53.1086578  54.8764954  38.2955818  54.3309174  55.1141777  39.1561470
  32.8371353  50.9733353  10.5072441  32.3166809  51.3022118  11.2401819
  32.2206116  50.4565315   9.9885511  15.6372776  52.4844627  79.5159302
  15.7051983  53.1489029  80.2015915  14.7208853  52.2089462  79.5393295
  35.8033447  69.9233322  29.2953835  35.2003136  69.2195206  29.0561562
  35.4325638  70.2946472  30.0959320  37.0485649   9.4423990   0.7696120
  36.4074135   9.5831947   0.0729513  37.5521851   8.6811466   0.4813556
  30.7764931  35.2054482  67.0016861  30.3486996  34.8973160  67.8006058
  30.6736908  36.1567879  67.0265884  38.2127151  13.6129408   3.4702020
  37.8167267  13.4498711   2.6141458  37.4696159  13.7803669   4.0498586
  59.7621689  13.5232754  72.5672760  59.5611038  13.1552181  71.7068405
  59.5620728  14.4554119  72.4817505  64.9945374  41.3677216  11.3251324
  64.8582993  40.8050842  10.5628252  65.9402084  41.5139160  11.3489742
  69.8224030  68.9059143  37.1179123  68.8975220  68.6938705  36.9919205
  70.0624924  68.4579620  37.9290390   4.5479331  69.6012039  31.5390015
   5.3666263  69.5921631  31.0431271   4.4016747  68.6855621  31.7765617
  60.6559601  31.5960751  34.3787651  60.3249702  31.1812706  35.1753922
  59.8723984  31.9177856  33.9329300  33.9488220  12.3096075  12.3614588
  34.7591591  12.6559305  12.7351532  33.2631683  12.8838253  12.7026081
  74.2997513  16.1448498  80.0646439  73.3860397  16.3049946  79.8285828
  74.2776108  15.9752045  81.0064316  81.3810654  49.4298210  71.5429230
  81.4308853  50.3651009  71.7404251  81.1408310  49.3930016  70.6170959
  64.7029572  12.5525589  56.4665756  64.3565445  11.8081121  56.9585419
  65.3628845  12.1709070  55.8877258  63.8064575  58.9190331  19.8412418
  64.6291275  58.4332619  19.7823582  63.3102531  58.6441040  19.0702496
  70.3523941  24.4327602   7.3438592  70.3729782  25.2598877   7.8251801
  70.7597351  23.8007507   7.9361987  29.0592937   7.6773348   5.6644540
  28.2706261   8.0487814   6.0597558  29.2302170   6.8835716   6.1713634
  13.5399284  48.4591026  22.0735474  14.2738256  47.8649101  21.9168282
  13.8160000  48.9886093  22.8216381  49.7960815  36.4878654  88.5309753
  49.7200623  35.5565681  88.3232803  49.6762772  36.5322571  89.4796066
  60.8490677  48.0014954  26.2641945  60.4194107  47.5303535  26.9780941
  61.0818481  47.3201332  25.6334858   1.3078691   6.3091841  31.3197708
   1.7699914   5.6169701  31.7925434   1.9698598   6.9860301  31.1787758
  57.0633888  66.7740784  84.8983002  57.6600227  66.0473862  85.0776749
  57.6367989  67.5316544  84.7820740  26.8775234  52.9461708  30.2350807
  27.7829800  53.2406197  30.1366844  26.8601398  52.5047951  31.0842667
   2.7116103  37.3054276  58.4657745   2.5901041  36.3624611  58.3549576
   3.2350397  37.5700111  57.7093048  56.4557533   6.0686355  21.4240742
  56.0010490   5.5336328  20.7734985  56.8422318   5.4344063  22.0279121
  85.7518311  38.5836792  28.2083912  85.0235672  37.9801407  28.3553982
  85.5411835  39.3482666  28.7443619  46.9339104  52.9700966  24.3854141
  46.7104645  52.2194023  23.8351746  47.7480965  53.3071442  24.0116043
  36.2289314  56.2604599  47.9476967  36.0375824  56.0121307  47.0432892
  35.4500084  56.7367477  48.2352104  69.0539246  38.7603111  24.5384941
  68.3048935  39.1267433  24.0684776  69.8175125  39.0741463  24.0540657
   0.2089569  31.3725891  88.4616547   0.7485388  32.0623665  88.8480377
   0.6238518  30.5575027  88.7440109  81.9860153  31.8673325  39.5087090
  81.8738632  32.6064262  38.9108887  82.7726822  32.0820084  40.0100174
  13.0016613  37.0838280  22.4443626  12.7618341  37.6439476  23.1825905
  13.6063976  37.6155281  21.9268494   3.9144042  52.6146469  13.5450459
   3.3751924  53.1163940  12.9337120   4.6884327  53.1600952  13.6850271
  83.3208618  53.2931061   0.4922179  83.7093811  53.1392746  -0.3689551
  83.9706116  53.8199997   0.9574545  57.3415527  13.9268961  88.6259766
  56.9925156  13.0479593  88.4780731  58.2220383  13.7799406  88.9714966
  20.7090816  40.1819458  25.9209824  20.1074963  40.7437859  26.4095097
  20.1433449  39.6730652  25.3402767  64.6642532   6.4526796  59.9056625
  64.1568146   5.9497700  60.5427055  64.9295959   7.2409463  60.3794327
  16.8141499  68.6091919  62.2186050  16.4974709  68.3512268  63.0842857
  16.0463257  68.5375900  61.6515541  75.2642365  56.3556252  65.0206833
  74.8191299  55.8741531  65.7180328  75.7148514  57.0692520  65.4722595
  71.3794479   1.3097872  17.0722332  70.9350586   0.4762141  17.2268562
  72.0710373   1.0997208  16.4446983   9.1367121  26.3248062  80.3435059
   9.1424408  26.1064034  79.4115753   8.3461199  26.8514347  80.4612350
  58.6635666   7.0201297  59.9679604  58.3812752   6.4461045  60.6800232
  57.9870453   6.9212275  59.2980614   2.5482640  49.5691338   3.2936747
   2.5761652  49.0066223   4.0676455   3.4570630  49.8385429   3.1605034
  52.1250954  20.9927483  28.6973286  53.0526085  20.7588291  28.7323933
  52.0959816  21.9020138  28.9950199  61.6485481  24.6752911   1.3470747
  62.3702049  24.3678398   1.8956324  62.0449829  24.8180084   0.4875969
   7.0148225  13.0793056  69.8299789   6.2541151  13.1417770  70.4076080
   7.4792013  13.9069052  69.9551315   2.0573688   7.4533777  86.1384048
   1.8118883   6.7336507  85.5570602   1.4048353   7.4291549  86.8382950
   0.2869838  40.0853462  21.2424011   0.5231390  39.4014091  20.6157513
  -0.0456529  39.6088181  22.0029945  24.8026619  26.3547535  13.0178671
  24.6091690  25.8581295  12.2227850  25.2523746  27.1401539  12.7061968
  50.0369797   8.0014887  49.4883270  50.7364616   8.2768173  48.8957443
  50.3723717   8.1989174  50.3628349  80.1596069  11.9088316  57.2951622
  80.6941452  12.5767565  56.8657799  80.5236588  11.8416986  58.1778793
   8.0316925  44.9919777  26.4963074   7.3126073  45.3970833  26.0114994
   8.7719469  45.0143013  25.8898773  15.9451246   7.9379678  61.2879105
  16.2417545   7.4390349  60.5267868  16.3504028   7.4982419  62.0353203
  55.9108238  26.3410034  16.8476696  55.0742378  26.6365509  17.2068501
  55.9255867  25.3993111  17.0186310  75.7784424  19.3645744  52.4888802
  76.6492691  19.0201607  52.2907295  75.1812439  18.8074360  51.9897003
   2.1531606  36.0848236  45.9192047   1.2841085  35.6963348  46.0194893
   2.1376653  36.4852180  45.0499077  60.8292656  51.3619080  82.9615707
  61.5326347  51.6734047  82.3919449  60.0861778  51.9294930  82.7568741
  81.8715210  19.5950966  85.6776428  80.9899979  19.5103626  86.0409164
  81.7454681  20.0557575  84.8481064  23.4728050  35.4957085  24.5084972
  22.6146984  35.5618134  24.0895500  23.5318947  36.2772255  25.0580158
  19.8200779  46.4246254  33.2775764  19.3128643  45.8720970  33.8722801
  19.5438480  46.1515160  32.4027367  63.1732521  17.3496304  42.1097984
  63.8462029  17.0568523  42.7243347  62.4311943  17.5908298  42.6642380
  52.7389259  60.2859459  54.1959496  52.2474213  59.7715416  54.8362961
  52.1955833  60.2700119  53.4080696  82.5638657  41.7511559  50.8995285
  83.2917404  42.3575783  50.7628136  81.8786774  42.2859116  51.3005028
  18.3431931  40.0639191  61.9439240  17.9626579  39.6973076  61.1457863
  19.1112309  40.5489922  61.6421700  74.9431229  42.6224518  14.9993429
  75.6084290  42.7710724  15.6712866  75.2303162  41.8278236  14.5495472
  68.1950150  38.4470406  18.3691463  68.2144089  38.5689583  17.4199409
  67.2900009  38.6366997  18.6165466  46.1682167  52.1470413  44.6376953
  45.6682053  51.4168091  45.0023537  45.5182724  52.8353500  44.4961433
  51.6085167   7.7804279   2.6671660  52.4252472   7.9260955   2.1897104
  51.3094788   6.9199429   2.3732748  16.0679779  39.9598656  16.7306538
  16.1032734  39.3310776  17.4514961  16.9223251  40.3912048  16.7470322
  33.9223518  66.7841339  36.3173676  33.5995941  67.1484528  37.1415825
  33.5395317  67.3439255  35.6418610  26.8362865  57.2848778  28.3530407
  27.7401066  57.1268768  28.0803204  26.4057198  56.4351654  28.2590313
  79.1089249   9.0633526  31.1458149  79.1574097   9.4704370  32.0107803
  79.9467010   9.2751684  30.7341137  16.6102543  34.3829231  81.6695023
  17.1814365  33.7609444  81.2188110  16.8608704  34.3141327  82.5907516
  50.6177826  71.5841751  73.7874527  49.8768921  71.1084518  74.1629562
  50.8521538  71.0840149  73.0056915  85.7937546   7.5291405  48.7295609
  85.5327072   8.3844204  49.0710030  85.7069244   7.6136456  47.7800598
  76.4500809  43.7979584   6.4185305  76.5138702  44.2905388   5.6002831
  76.2321014  44.4564667   7.0781388   1.3945217  36.6007271   9.0754871
   1.6120385  35.8272552   8.5552397   2.2396731  37.0100632   9.2609491
  63.8591270  32.6649246  20.6173000  64.0938873  31.7392883  20.5516090
  63.3483467  32.7257690  21.4245377  23.9638367  40.1075554  34.1546745
  23.5311775  40.5719566  33.4381752  23.4133205  40.2795982  34.9185867
   3.0035968  50.3845749  12.1847477   3.8984942  50.2923050  11.8578281
   3.0473521  51.1174202  12.7989597  75.8247833  71.6621094  29.8950214
  75.3590698  71.6053314  30.7293625  75.3993988  71.0098267  29.3384132
  33.5262947   5.4198370  18.5594406  32.7801704   6.0045400  18.4265900
  34.1678352   5.9530473  19.0288525  66.9854584  41.2973976  14.6495962
  66.2877274  41.8016167  14.2310648  67.7814941  41.5612068  14.1881227
  23.3819199  51.8129539  52.0838165  22.6971931  52.2728996  52.5694389
  23.7321930  52.4704895  51.4828300  38.8231888  45.1153984  86.4700165
  37.9937935  45.4318390  86.1119690  38.8291435  44.1794815  86.2693710
   9.1760063   4.4418530  62.7393036   8.7493591   3.5885942  62.6608543
   8.8743324   4.7840152  63.5808220  35.1207542  14.3585129  87.8386078
  34.2325706  14.0293446  87.9764786  35.0475922  15.3047085  87.9634857
  57.3886757   2.2441747  12.4857349  56.5133438   2.6292245  12.4437780
  57.4710464   1.9342958  13.3876343  31.0191956   0.7125514  46.8973312
  31.4573574   1.5606668  46.8269997  31.0028629   0.5285600  47.8365402
  43.4454651  33.5375557  84.9313431  43.5551758  33.9738655  85.7762299
  43.9732399  32.7421532  85.0022125  27.6616077  54.8816261  32.5779419
  28.2973061  54.7037125  31.8847847  27.7415924  54.1364059  33.1733246
  43.8323784  42.4443092  26.8274326  43.0307350  42.9580154  26.7289047
  44.4848061  42.9170189  26.3106041  66.7589111  41.6775856  25.5521088
  65.9404831  42.1307907  25.7546272  66.6545410  40.8093262  25.9412975
  59.9564476  33.9788475  24.2241135  60.3817520  33.8021393  25.0632324
  59.3714867  34.7152214  24.4024525  83.7023544  54.8474770  75.9035339
  83.7172318  54.0389481  75.3913956  83.9188156  54.5709763  76.7939987
  47.0436935  51.1179428  31.5668335  47.3083038  50.5042114  30.8816013
  46.1925850  51.4471321  31.2779007  41.0886765  36.2197342  81.0582962
  41.8572960  35.7967033  80.6755371  40.6341057  36.6108170  80.3122025
  72.3399658  39.9315147  48.7983170  71.5682144  40.4412804  49.0448380
  72.7218399  40.4143715  48.0653419  74.9335022  20.5563450   1.7126266
  75.4144363  21.3337135   1.4286605  75.5803452  20.0348701   2.1879146
  58.0889320  37.3292809  45.0606537  57.4828453  37.9132156  45.5166321
  58.1471863  37.6884689  44.1753159  18.5813637  41.9338951  57.7425346
  18.8372421  42.2143936  56.8638573  17.8532486  41.3294716  57.5984688
   5.3741283  33.3565712  73.5600891   6.2261939  33.5392303  73.1640396
   4.7873087  34.0087204  73.1772385  39.4955635  51.9965973  83.5868073
  39.4671478  52.9533730  83.5855789  38.5809364  51.7299385  83.6794662
   7.2795014  54.5111198  26.8651295   6.6333942  54.0029755  26.3746548
   7.0812497  54.3279533  27.7834854  31.5679493  46.9672279  19.4722500
  30.6247692  46.8791809  19.3348026  31.7426491  47.8995934  19.3441563
  74.3929825  16.2787724  17.2123890  74.9870071  16.5475807  17.9131756
  74.9471893  16.2321682  16.4333401  62.1245003  30.7495613  15.6039686
  61.9072647  31.4783955  16.1852112  62.9960938  30.4708252  15.8848009
  36.4514694  62.6075630  48.5559502  35.6091385  63.0245705  48.7370987
  36.9176903  63.2380180  48.0069466  15.2654047  52.4265099  84.0607986
  15.0441332  51.4952812  84.0515900  14.7028427  52.8130074  83.3896942
  81.1338730  71.8743439  34.2121887  80.6240845  71.1264191  34.5235672
  81.9896622  71.7707825  34.6282692  42.7902489  61.4225159  10.0658207
  42.8077965  61.6276321  11.0006208  42.0358429  61.9056969   9.7287102
  11.9493122  23.9883747   1.3498460  12.3798180  24.8054276   1.6014791
  12.6622486  23.3534088   1.2807662  80.6117630   3.8264008  46.5038223
  79.8315048   3.3314009  46.2540207  81.2967148   3.1639786  46.5947723
   6.0399370   7.0508571  25.3399582   6.9150915   7.1707153  25.7087002
   5.5650597   6.5545530  26.0065975  29.7501869  34.7355156  69.4946518
  28.8379364  34.9884567  69.3530579  29.7002678  33.9682922  70.0648422
  62.0091782   7.2453389  67.2403564  61.9259109   7.8131752  66.4742889
  61.4740829   6.4799361  67.0304489  41.0289917  39.6868706  77.0684509
  40.9830551  38.7600708  76.8335876  40.3927879  40.1115875  76.4930420
  69.9512558  67.1875839  64.6241074  69.0990524  67.2787704  65.0503311
  70.5602417  67.0119781  65.3414154   7.2703323  23.3841419  64.5764160
   7.6808629  24.0391388  65.1409302   7.5782557  23.5998058  63.6961327
  56.3529434   7.6015139   9.6715364  55.4266701   7.4394321   9.4927177
  56.7166481   7.8687558   8.8274202  41.1208725   6.6176343  20.5406036
  41.1077881   5.6619692  20.5931816  40.3272591   6.8416538  20.0545712
  34.6851540  39.6961670  35.7785034  34.7641373  38.7426987  35.8083229
  35.4696274  40.0155487  36.2244034  59.5851059  31.1769829   0.9118565
  58.9111786  31.2756348   1.5844029  59.7627831  30.2367477   0.8869302
   5.0743465  42.8992424  79.6266174   5.9170685  42.6111069  79.2758560
   5.3029199  43.4785728  80.3535004  53.5154076   1.3642553  81.8143005
  53.2663307   1.3427731  82.7382812  54.3581200   1.8180835  81.8039017
  39.5134163  57.3768539  82.3673859  39.2091408  56.4693108  82.3641815
  40.3769379  57.3385048  82.7785950   5.9106760  57.7914085  33.5977364
   5.5224319  58.6551208  33.4580917   6.0286875  57.7322998  34.5457954
  73.1984482  30.4566860   0.8374672  73.3565369  30.8068924  -0.0392290
  73.2886734  31.2129021   1.4173203  47.6402435  71.4812164  54.4387894
  47.4545898  70.8805542  55.1605759  47.7905960  70.9106827  53.6850510
  81.2481079   6.5970535  45.9419327  81.0942078   5.6618729  45.8078270
  80.9059448   6.7728224  46.8184357  74.2684097  43.5502739  86.6670380
  73.3958282  43.9091568  86.8284073  74.3685608  43.5827560  85.7156525
  42.9740753  44.2311897  51.4324303  42.4399147  43.4942093  51.1361809
  42.7619286  44.3226357  52.3613358  50.4067154  41.6796341  11.3437319
  50.3866081  41.4472771  10.4153795  51.0853691  41.1170654  11.7167940
  85.3166733   9.8538027  54.3562927  85.3735886   9.8564091  55.3117981
  84.6458817  10.5061588  54.1545372  46.9414558  32.3905983  28.2670441
  47.4232864  32.9831810  28.8440323  47.4747696  31.5961857  28.2402287
  67.7414551  29.2591686   5.7724361  68.6288071  29.1082420   6.0981150
  67.8117142  30.0556030   5.2461410  32.3790588  48.2029572  36.0336838
  32.0658798  48.3323212  35.1384659  31.5854340  48.2122612  36.5687599
  51.7008057  21.7947216  71.5714874  52.4173508  22.3871956  71.7990112
  52.1331940  20.9701729  71.3492432  47.1432724  34.9163399   3.0202835
  46.8101921  35.0697670   3.9044497  47.9664459  34.4461365   3.1526833
  61.3378487  65.3614578  43.7296448  62.0795631  65.4549484  43.1318588
  61.4785385  64.5158157  44.1554718  15.7704487   4.9766259  68.5394287
  14.8476562   4.8515258  68.7608719  16.2366905   4.3504810  69.0933228
  52.6393280  26.1886730  74.0621338  51.9931335  26.5047531  74.6936035
  52.1515846  26.1026535  73.2430191  85.2275925   3.2191281  42.1492958
  84.9543457   2.6714814  41.4133263  84.4523315   3.7387094  42.3620071
  34.6538010  60.4838867  65.1073837  35.1528320  61.2967606  65.0271606
  35.1037331  59.9935303  65.7953873   5.8299794  20.2600975  25.1472893
   6.4819551  19.7023067  25.5715904   6.0910144  21.1516666  25.3779278
  86.6199951  63.7341576  19.0574169  86.2679596  64.0764160  18.2357368
  86.6312943  64.4889374  19.6459827  41.2652969  35.8723755   3.1612346
  41.2621651  35.4928780   2.2824838  42.1269302  35.6511345   3.5146065
  84.4608002  24.5558548  10.0809851  84.8738403  23.7121334   9.8972273
  84.9504395  25.1831398   9.5490122  28.8835087  68.6581116  10.3100910
  28.2349854  69.0956879   9.7585716  28.3979549  68.4034958  11.0947199
  12.9708481  61.3337593  29.5437241  12.7468834  62.0898018  30.0863781
  12.2432404  61.2580681  28.9264011  19.0239105  30.7308311  67.2257004
  19.9810181  30.7422428  67.2325745  18.7840023  30.2760525  68.0330811
  53.1954765  54.2586937  78.4895935  52.4459763  54.6851006  78.9051056
  53.7695084  54.0205879  79.2176208  52.9023209   9.9910440  56.5492630
  52.0430984  10.4124756  56.5684204  52.8633003   9.4017267  55.7959938
  24.4981480  20.6077137  59.7336121  23.9121132  19.8686428  59.8966103
  25.3755207  20.2549095  59.8818550  74.8608398  12.8885851  57.2312775
  75.3990555  13.6560574  57.4250412  75.4258499  12.3278379  56.6997108
  82.8330765  26.1433258  16.6454697  82.8005905  25.4922447  15.9445648
  83.6431656  25.9479980  17.1164608  79.1232986  15.8893576  59.2079887
  78.7381210  16.7620354  59.2873917  78.8255615  15.4241066  59.9897346
  16.7671909  13.6429806  12.1158638  17.6641026  13.9242105  12.2966700
  16.2390766  14.0843973  12.7810555   1.9816817  49.5019836  24.8212299
   1.0339534  49.4712868  24.9519997   2.2569885  50.3106346  25.2531109
  34.4814568  41.1831932  13.3181353  34.5077209  40.8027000  14.1960678
  34.7569351  42.0914345  13.4423895   9.5217152  70.7953568  62.4376678
   9.1254702  71.6637192  62.3658066   8.9315996  70.2216263  61.9489708
  34.2555161  63.9725723  66.9650726  35.1905785  64.0725479  67.1436539
  34.2174110  63.6326561  66.0710754  27.0994415  16.3600044  69.2749786
  27.1604843  17.2248535  68.8693390  26.3708000  15.9344101  68.8231125
  84.8273010  31.9491234  34.0492783  84.7612534  31.0776901  33.6588020
  85.1318970  32.5090866  33.3352089  71.2576752  14.7060547  26.6836967
  71.6193161  15.2788019  26.0073776  70.5344467  14.2519016  26.2513523
  26.6291409  10.5699244  70.7324600  25.7246456  10.7335234  70.9995804
  26.6856842  10.9277830  69.8464737  37.0683174  67.4441986  78.2851105
  37.2291222  67.0416031  77.4317169  37.6955986  67.0212250  78.8714981
  77.2679062  14.3427334  82.0607681  77.4562149  13.4484520  82.3454285
  77.6203461  14.3904362  81.1720886  47.2807617  65.7905502  45.1467094
  46.6304550  66.3649826  45.5508957  47.6841431  66.3278275  44.4649162
  17.9841728  64.8950119  69.0176849  18.4451714  64.1777191  68.5827255
  17.3109970  65.1616440  68.3916092  60.5556679  43.0768547  48.8713036
  61.2696648  42.6848640  48.3685303  60.0417862  42.3304100  49.1794968
  36.7433548  47.1366310  79.0227127  37.5904846  47.4984627  79.2828674
  36.1125908  47.8226318  79.2412720  59.0998955  41.0338936  55.8765182
  58.9526024  40.7919540  54.9621849  58.2899437  40.7872124  56.3230133
  72.1298294  51.5938797  51.4222832  72.0777054  50.7630615  51.8947868
  73.0585480  51.8245277  51.4450836  75.1032562  51.4851494  51.9697647
  75.4816742  51.6052933  51.0987892  75.7405624  50.9434052  52.4351501
  56.0029106  44.7295074  63.3154564  56.2266121  45.6299477  63.0800858
  56.8329086  44.3409157  63.5917397  63.8491669  13.9249916  21.4746895
  64.0852585  13.0546532  21.7956314  63.9769897  14.5010176  22.2284050
  35.7480812   8.6178026  15.8006220  36.0019302   7.8316755  16.2841473
  35.2754288   8.2870111  15.0368109  54.6850014  62.4453545  56.6208229
  53.8489571  62.1654129  56.9935074  55.0313950  61.6616898  56.1940727
  43.5849648  64.6939087  21.4746666  43.2047348  65.3077850  20.8463192
  44.3656387  64.3553238  21.0363350  42.4209671  22.3805637   2.0095692
  43.0693321  22.8297977   2.5518262  42.6685486  21.4570923   2.0558069
  72.9601517  47.7958374  27.1703091  72.5150757  48.4439545  26.6243362
  72.3514557  47.0582199  27.2108116  35.3002625  63.2697487  64.5535431
  34.8822823  63.5178833  63.7289505  36.1592445  63.6909866  64.5229263
  74.3251801  32.1621552  21.7600880  73.3691254  32.1154518  21.7573948
  74.6055832  31.3113842  22.0974216  35.1063347  69.9731903  36.7386131
  35.1404953  69.2772446  37.3949089  35.8088722  70.5731888  36.9889679
  64.6031799   1.2033406  56.7070732  65.2845459   1.8518612  56.8842430
  64.9284058   0.3981367  57.1096992  62.1083260  22.8876934  78.5145187
  62.5891266  22.3218327  77.9104843  62.7269402  23.0610180  79.2240982
  81.2815170  51.5514145  33.2173576  82.1675186  51.2226677  33.0651703
  80.7276993  50.7713890  33.1845436   6.1896758  17.9822502  75.8276978
   5.5698881  18.2931938  75.1678467   7.0315948  17.9580212  75.3729324
   6.1630621  15.0873480  13.9718962   5.8474450  14.1857090  14.0324383
   5.7721210  15.5290852  14.7257290  57.9385757  38.7512627  64.6738663
  57.4420700  38.9426613  63.8782043  57.2968445  38.3641930  65.2693481
  19.3864059  53.8302650  65.9588776  18.4324284  53.9042206  65.9850616
  19.6037407  53.8636551  65.0272751  66.9311066  48.7278214  72.4418106
  67.7522888  49.2042503  72.3197098  66.3836365  49.3218307  72.9552917
  15.1590815  64.8211517  32.0931358  15.6601849  64.1422653  32.5450668
  14.8543339  65.3994064  32.7924080  52.0036812  54.6852913  67.3306656
  51.4461594  53.9644737  67.0377121  51.4800339  55.4714012  67.1755676
  26.2017612  61.5709953  32.3620338  26.7876225  60.8245811  32.4879837
  26.0240650  61.5799713  31.4215164  72.6397552  46.0551987  34.3263054
  71.9006958  46.6483269  34.1912956  72.2721024  45.3233261  34.8217087
  47.1541481  14.0833311  23.1610699  47.1515312  13.1415339  22.9900646
  47.7110214  14.1850624  23.9329357  32.3278122  46.9912758  62.0090866
  31.6119747  47.4022141  62.4937935  32.2529564  47.3472939  61.1237144
   2.9796605  23.3371887   0.8213511   3.1685653  24.2136364   0.4861137
   2.0531914  23.1997585   0.6238668  59.6060371  31.5949574  20.5205383
  59.5092888  31.0482368  19.7408161  59.6477890  30.9720688  21.2461395
  55.4364319  56.5633507  78.3752899  54.5609055  56.1789017  78.4187393
  55.5350304  57.0290108  79.2057495  20.5422459  43.9106407  22.1658916
  20.4540100  44.6680832  22.7444458  21.4496803  43.9448738  21.8632011
  79.2201843   9.1740932  43.5931892  79.6560135   9.2617884  44.4408875
  79.0418701  10.0743723  43.3212814  65.3423843  67.8971176   3.1934092
  66.2936249  67.7905350   3.1959369  65.1075592  67.9303513   2.2660553
  48.6751556  41.5220337  40.5632439  48.3905106  41.9869194  41.3500671
  49.3041344  42.1134834  40.1499596  34.3538704  14.1074190  80.2634659
  34.3631554  13.4180698  79.5994263  33.6375694  14.6848001  79.9993057
  29.0663128  10.0642166  82.5638123  28.3173943   9.5874882  82.2059250
  28.6834583  10.6706400  83.1977692  21.1402378  32.3665237  64.1343842
  22.0425434  32.0604248  64.0428467  21.1167812  33.1914024  63.6493568
  81.5502396  42.0798378  44.6212196  82.4808350  42.2592049  44.4868584
  81.1798553  42.0622635  43.7387581  68.0711288  41.5577583  57.9568214
  67.4063416  42.0983772  57.5301781  68.6675720  41.3096848  57.2504654
  40.7753296  56.6463127  85.7633514  40.3291626  56.4329300  84.9438248
  41.6666718  56.8736420  85.4986496  41.3221512  38.4988594  68.9597092
  40.8492622  38.2671814  68.1603775  41.8003159  39.2963295  68.7325058
  81.9618530  14.6057768  40.9659042  82.3283920  13.8702669  40.4750824
  81.1281662  14.7906141  40.5334244  24.2589054  61.2852554  36.3528519
  25.1920471  61.0826836  36.4195061  24.1718464  62.1487999  36.7565117
  70.9777756  63.0961571   1.8865755  70.8138275  63.9014893   2.3772769
  70.8532104  63.3442802   0.9705249  83.8264465  58.1736794  56.2548561
  84.4046021  58.8274040  56.6480637  83.7232971  58.4600639  55.3473434
  83.1293869  35.6332436  24.8614101  82.2193527  35.3435173  24.7970963
  83.0839310  36.5857506  24.7783508   4.4117231  36.1276741  62.5354233
   4.1154475  36.8361626  61.9640236   3.7727802  35.4278793  62.4002609
  21.9558334  51.1444092   5.8415961  21.9169502  51.2088013   6.7958360
  22.8018188  51.5276604   5.6099524  78.0147095  14.2984018  47.4612312
  78.1817398  13.5075922  46.9484444  77.0670776  14.3006258  47.5962181
  11.9924326  42.5938797  21.1597881  12.5272198  43.1471062  21.7291527
  11.9197168  43.0893288  20.3440208  57.4596977  16.1814766  56.7908745
  58.1904068  16.2857819  57.4003143  56.7542191  15.8141489  57.3234177
  26.0709915  12.2794151  74.7862625  26.4596939  12.4890919  75.6354828
  26.2179909  11.3394346  74.6810989  55.7835770  50.7469521  59.8804893
  56.1663170  51.2225952  60.6177177  55.0511589  50.2629700  60.2620087
  39.6500206  24.6566563  20.3342896  39.9105377  24.4533310  21.2326336
  40.2416153  25.3599682  20.0667057  77.8033371  28.7658920  79.6675873
  77.7122650  29.0565319  80.5750351  78.7475128  28.6758137  79.5385590
  17.2166615  49.3543243  76.8016205  17.7034969  49.7156143  76.0608826
  17.7443523  48.6118813  77.0958176  77.6954651  28.2508507  21.0983410
  77.2754135  28.0828571  21.9418850  77.5578156  29.1854649  20.9441433
  42.6953735  52.5413284   3.6691008  43.4958916  52.3832016   4.1694965
  42.8027153  53.4255714   3.3186419  44.6140938  19.6008301   6.1270695
  43.9375534  19.6221390   6.8038783  45.0764542  20.4332962   6.2242970
   1.5353096  31.5437660  47.6332855   1.6734990  32.4761696  47.4666634
   0.9557457  31.5198460  48.3947067  10.2856255  45.9159889  25.2446423
  11.0329475  46.2046928  25.7684669  10.2781076  46.5071793  24.4918690
  71.5949478  66.2484360  41.4496002  72.3969727  66.5422287  41.8816566
  71.0110550  66.0054321  42.1681023   8.1582584  46.3732948  85.9405670
   8.6965027  46.8110275  85.2810898   7.5242224  47.0372658  86.2114410
  35.4010811  69.2635269   6.9367943  35.4021530  69.1318741   5.9886913
  34.5265083  68.9919052   7.2153296  44.7064476   1.8978024  45.7432137
  45.5046043   1.3704087  45.7753448  45.0155830   2.8028104  45.7835617
   2.9113665  38.2412224  40.2377892   2.5637627  38.9133873  39.6516190
   2.4178896  38.3534775  41.0502625  16.6655502  57.8190804  54.5581818
  17.2071590  57.7789993  55.3463974  15.9347887  57.2279968  54.7393951
  65.5753479  60.0306778  36.6839485  64.8654251  60.1328545  36.0500717
  65.8623657  60.9250221  36.8683357  31.9519367  61.6130600  65.3119354
  31.8767395  62.3446732  65.9245682  32.8830414  61.3911362  65.3170242
  45.7497635  69.8961029  30.0871181  45.2930298  70.4279480  30.7388554
  46.4405251  69.4537125  30.5804443  51.2473488  36.9595833  86.1942291
  50.9432449  37.4807930  85.4511948  50.6379776  37.1719971  86.9011765
  69.0892639  64.0244751  18.8140316  68.1930084  63.6898422  18.7827549
  69.5311050  63.4663811  19.4539852  53.6878471  30.9319229  70.5068359
  53.3669357  31.7685623  70.8434143  54.3714600  30.6717300  71.1242523
  76.4290314  17.8372059  34.5577278  75.8137054  17.1122818  34.6677246
  77.2835693  17.4597759  34.7663841  11.7825613   0.5318801  32.8081970
  12.7193108   0.7149913  32.7360725  11.3968725   1.3625540  33.0865059
  53.4801521  15.1253109  35.2201271  52.6396561  15.4740715  35.5170479
  53.3694038  15.0038795  34.2771416  77.9969254  68.4802551  29.2350407
  77.1429672  68.4973068  28.8029461  78.3412781  69.3659286  29.1200047
  51.2678566  47.3519402   1.0493265  51.1050034  46.4180450   0.9168458
  51.5597878  47.6678276   0.1942105  84.1497955   3.2629433  30.5803776
  83.9759903   2.4891620  31.1163692  83.9708176   2.9785781  29.6840878
  21.0863762  28.2083492  81.0255890  21.3194695  27.5095768  80.4143448
  21.2650089  29.0165577  80.5448380  67.3316956   0.7941073  87.6443024
  66.8796158   0.3076093  88.3336334  67.4632950   1.6671065  88.0141525
  63.4661255   4.7078304  25.3627663  64.1244965   5.3831654  25.1993446
  62.6863403   5.0169711  24.9016800  49.1325073   2.3058443  68.8142014
  48.2811203   1.8697734  68.7793350  49.0582237   3.0266242  68.1887512
  85.4171066  65.6443176  12.2004786  85.3358383  64.9650726  12.8699961
  86.3191452  65.5674744  11.8895893  79.1465454  63.7270927  76.9103546
  78.2527237  63.6139565  76.5870667  79.4554214  62.8365860  77.0771637
   5.7258673  48.4981613  63.8928642   5.6136146  48.3123550  62.9606056
   5.5162992  47.6720886  64.3286591  45.6972008  37.3718300  75.7639618
  45.9277306  38.2991829  75.8196640  46.0392570  37.0905495  74.9153671
  20.8877029  31.1229763   3.5299718  20.9533215  31.6364994   2.7248507
  19.9490986  30.9724655   3.6422274  64.7910309   9.1817122  23.1486111
  65.0052338   8.8696299  22.2694321  65.2312012   8.5664129  23.7350330
  84.8897095  54.0629959  82.4261398  85.6134338  54.4949341  81.9723816
  84.1720123  54.0694389  81.7928162  66.6462250  67.1316681  71.0598373
  66.0601501  67.8783112  70.9362488  66.9446564  66.9127502  70.1770859
   1.1551386  13.3596792  55.8394470   0.5639585  13.8552227  56.4061699
   1.0049286  13.7181978  54.9647255  48.4047470   7.5540037   5.7507081
  49.3533630   7.4366055   5.8014641  48.2809219   8.5031319   5.7433815
  45.6390953  69.8269577  47.2863655  45.3443718  70.0271835  48.1747818
  45.9780998  70.6579285  46.9534988   1.1850320  28.4727058   6.0648403
   1.1115263  29.3911209   6.3243442   2.0861094  28.2337990   6.2821317
  12.8848772  63.9441910  20.5052395  12.0232172  64.2346115  20.8042889
  12.9684238  63.0531158  20.8447018  15.4479685  45.9112473   6.8495622
  16.3519173  45.5964622   6.8451414  15.4276505  46.5714798   7.5423174
  65.0732498  32.7556267  17.6205921  65.7011795  32.3997154  18.2492924
  64.4017410  33.1709290  18.1617279  68.3588715  21.3680363   4.1115217
  68.8178711  22.1417484   3.7845445  67.4582748  21.4769077   3.8060539
  49.4949837  13.1404018  43.0325203  49.3026886  12.2268429  42.8211823
  50.4225388  13.1414318  43.2688980  43.7942543  32.0861130  39.7293129
  43.0182228  32.2014351  40.2776833  43.9376907  31.1398563  39.7132301
  29.3995953  71.2933350   7.0739112  29.4270554  71.7897949   7.8918405
  30.1837330  71.5696640   6.5995679  73.2936325  40.9701347  46.0932465
  73.6074295  40.3947105  45.3956451  72.4782562  41.3375397  45.7520561
  46.3121300   2.7681248   1.5132214  45.5678482   2.5531499   2.0754151
  46.3644028   2.0386419   0.8956825  85.4122314  37.0634689  50.0873718
  84.9632416  36.5829086  50.7828560  86.3211517  36.7680168  50.1403580
  53.0854797  71.2184067  14.4305048  53.4530220  71.1396179  15.3108091
  52.5816574  70.4137421  14.3084040  47.8962822  32.1260376  47.8851166
  47.6724472  31.2294273  48.1345520  47.0620155  32.5949860  47.9030304
  70.3958435  38.2546806  80.3254242  70.7791595  37.8358574  79.5547867
  69.8403015  38.9482460  79.9696579  56.4325638  23.2911568  83.8433075
  57.3776817  23.1492081  83.8965378  56.0669899  22.4182854  83.6994934
   3.7345245  29.3325958  82.0223312   4.0629530  28.6576195  82.6162720
   4.5206485  29.6962376  81.6148911  39.5975723  42.9906006  35.7945023
  40.5178490  43.0283089  35.5339317  39.5865402  42.4034920  36.5504227
  43.3801842  30.5022659  21.5687428  43.1567039  29.8829536  22.2635384
  42.5793152  30.5797653  21.0502529  40.2327080  71.2839966  58.5032539
  40.3125343  70.4979477  57.9628944  41.0861015  71.3702545  58.9281235
  39.9949493   9.5821810  18.9203262  40.8173027   9.4404526  19.3892441
  40.2550049  10.0106916  18.1048622   4.6855993  70.1986847   1.2522264
   5.6366253  70.1398926   1.1609901   4.3427997  69.7699585   0.4680628
  76.9556732  14.1743708  79.3120422  76.3204498  14.6678495  78.7931976
  77.6355896  13.9263535  78.6856003   5.2565265   6.9718914  34.1558304
   5.4586201   6.0373631  34.1105881   4.4011278   7.0526571  33.7339249
  20.1351109  13.9628420  87.7324448  20.8234024  13.3414030  87.4951706
  19.3577728  13.6465826  87.2720566  86.5393982  15.6401291  10.4194269
  87.0365677  14.8222313  10.4094505  85.8173370  15.4741278  11.0254803
  20.9122181  49.1677322  54.8336143  20.3116646  48.4785690  54.5496712
  21.6609364  49.0916443  54.2421227   3.0425894  39.5275917  50.4762688
   3.0594807  40.4437981  50.1996613   2.7638094  39.0471535  49.6967201
  30.7605019  47.0456238  40.2945518  31.0857143  46.1815605  40.0418434
  31.4036484  47.6576576  39.9367714  50.2887802  49.9102974  69.7249298
  51.1012802  49.6480179  70.1576996  50.5023842  50.7391777  69.2964935
   6.3221312  27.3223763  60.4292679   6.2629008  26.8990688  59.5728035
   6.6716204  26.6445789  61.0077820  72.6551514  19.5781574  21.6995602
  73.4089355  19.9126930  22.1854858  72.5044022  20.2286777  21.0137539
  30.3721638  46.4705200  31.3450985  30.0734882  45.7702637  30.7648716
  29.7754498  46.4330521  32.0926018  14.2952862  18.9637241  14.0395145
  13.9042187  19.2418537  13.2112980  14.3099031  19.7565403  14.5756674
   3.0616760   5.7742987   6.2125731   2.6264994   5.6586576   7.0572505
   3.4926426   4.9355302   6.0483561  56.6420898  13.7788429  63.9094315
  56.0748062  14.4771872  64.2361374  56.5427818  13.8149500  62.9580803
  80.4827194  44.0505219  51.5775909  81.1656113  44.3425789  52.1814117
  80.1998138  43.2053337  51.9266624  66.5366974  22.2863655  31.6622448
  67.3996429  21.8873558  31.7733860  66.6584625  23.1980724  31.9271889
  19.2831459  61.3618698  55.0311966  19.0924263  61.1245842  54.1236954
  19.3722267  60.5234375  55.4843292  84.8521194  11.2867146  31.5284672
  84.4123993  11.0391493  30.7150822  84.9852905  12.2314186  31.4507980
  47.1356468  47.7507515  56.0694656  46.1818237  47.8126831  56.0183716
  47.4329758  47.8857803  55.1696930  22.9028149  64.9411926  27.9474506
  22.6840305  64.4654236  27.1461964  23.2945118  64.2806473  28.5188408
   9.2968807  36.2285919  83.4678116   9.4097834  35.2894058  83.3214798
   8.5678101  36.2888756  84.0851059  11.7583570   9.9255877  69.4569473
  11.8485146   8.9726982  69.4467316  11.5279818  10.1540394  68.5564041
   7.9122219   2.7345834  27.1733208   8.5402088   3.4081011  26.9120960
   8.3684464   1.9078901  27.0162563  13.2725229  69.9232407  80.7582474
  12.6445084  70.3911896  80.2079315  14.0925207  70.4046707  80.6484604
  82.6475830  35.2967339  20.6456604  81.8365097  34.8987465  20.3294411
  83.1274567  34.5737686  21.0497341  40.5931053   5.7860751  12.7686033
  41.3204384   6.3046641  13.1125269  40.9784317   5.2760963  12.0560875
   6.5004654  24.7992001  16.2022610   7.3932347  24.4847851  16.0596466
   5.9494090  24.0305519  16.0547886   8.4643812  64.8866501  54.7289848
   8.8046618  64.2088242  55.3129387   7.5923805  64.5765991  54.4846230
   4.0674400   4.7782903  30.5588684   4.4909468   4.5249596  29.7386875
   3.2137518   5.1193929  30.2922287  41.3364182  46.2430801  86.3934021
  40.4916687  45.7968788  86.4528503  41.1123695  47.1594620  86.2313080
  14.2095289  43.2486725  61.3146858  13.9660988  42.8557472  62.1528893
  14.5449266  44.1151619  61.5447617   2.0448518  11.9499426  57.9525108
   1.2302169  11.5691757  58.2805634   1.7763755  12.4796810  57.2018242
  16.7165470  56.3282013  49.6566658  16.8856869  55.5670395  50.2118759
  17.2058392  56.1519661  48.8530693  74.2489777   7.7134323  58.4892502
  73.5160370   7.3069048  58.9515953  74.7308273   6.9780855  58.1106758
  79.9519653  35.8562088   5.3270116  80.2997971  35.0723000   4.9018831
  80.3251572  36.5839653   4.8296881  10.9702044  24.6178837  65.3131866
  11.5380011  24.9842339  65.9911423  10.2549591  24.2050362  65.7971420
  17.9114227  66.4507370  87.3986740  17.2935791  66.4723358  88.1294556
  18.7734966  66.4333344  87.8143158  10.1533842  22.9344330  12.1257381
   9.5751600  23.6438103  12.4062223   9.7532501  22.6029453  11.3218470
  55.1943970  32.0950813  56.8029251  55.5409927  32.4947395  57.6006546
  54.7141914  31.3259068  57.1095238  20.1836910  42.4538155  74.6005554
  19.6707325  43.2017212  74.2943802  20.6681347  42.1632042  73.8278351
  43.4448547  16.8210049  84.3988953  44.1746750  17.2839737  83.9874878
  42.7403526  16.8616753  83.7521667  77.7235489   7.9193969  83.7950211
  78.3313980   7.2028241  83.9774551  77.1331406   7.9303060  84.5483627
   1.2372111  60.3035278  46.4545937   1.7430078  61.0561562  46.7611084
   1.6504651  59.5497322  46.8755989  31.2737198   0.5359439   1.0002469
  30.4444313   0.2613063   0.6089832  31.2463894   1.4923595   0.9727888
  69.0350418  42.0133743   0.7424071  69.0590515  42.1742287   1.6856894
  69.9474106  42.0896721   0.4631274   2.5137103  14.9984818  21.5127659
   2.1155298  15.8168097  21.8094540   2.4241972  14.4045572  22.2580662
   2.4349823  60.8044434  86.2277756   2.5703192  60.1328926  85.5592422
   2.1763792  60.3158188  87.0091858  41.9315453  60.1196709  44.2671776
  41.3636703  60.8818932  44.1541824  42.7719345  60.3901672  43.8972969
  62.7917061   5.5780559  76.4791718  62.6327591   5.8314319  75.5699081
  61.9277382   5.6064577  76.8902512  54.4454422   1.7725835  87.9951782
  54.6477127   1.3127276  88.8099518  53.5476036   1.5120531  87.7896500
  82.8487930  23.5427952  12.6853199  83.4608002  24.2650261  12.5436754
  82.1291122  23.7161961  12.0785036  22.7665386   9.6272974  70.4142227
  22.6972771  10.4054518  70.9673157  23.2812595   9.9145403  69.6600418
  61.7430458  26.7154408  18.1645908  61.8984718  25.7910290  18.3583374
  60.9635696  26.7159538  17.6090298  73.6802216  35.4007988   1.5909432
  72.7612686  35.3575859   1.3265684  74.0959778  35.9468880   0.9237331
  54.3053360  54.4999123  11.2717628  54.0753288  53.8909225  10.5700054
  55.2616005  54.4754448  11.3062658  46.4627419  67.8432236  41.9178658
  47.0690117  67.1421967  42.1571121  46.4911346  68.4478683  42.6593666
  20.6512356  24.6142178  28.6957188  20.3027630  25.1005211  27.9485188
  21.2193279  25.2400818  29.1449394   4.4484940  19.2124443  16.0247555
   4.9652534  19.5728130  16.7453976   3.7350981  19.8392563  15.9047356
  15.8171616  16.4508724  86.6366043  16.3459663  17.2472553  86.5879135
  14.9529753  16.7538548  86.9151993  81.2524567  50.9437218   9.7718439
  81.4641037  51.6193848   9.1277084  80.9107208  51.4279976  10.5234604
  27.4457378  43.5075531  47.1115036  27.7584591  44.1625977  47.7354851
  26.7498512  43.0449982  47.5784264  -0.1265080  49.9193153  88.6956940
   0.4075620  49.3019028  89.1954880  -0.2199211  49.5125237  87.8342819
  74.9357300  30.1071606  42.9713821  74.4950333  29.2710209  43.1226654
  74.2285919  30.7522030  42.9611244  86.7467575   8.2839527   3.7115507
  87.3991318   8.7357092   3.1762459  86.1234741   8.9676237   3.9571991
   0.5387554  12.5070305  28.0900726   1.1862229  12.2239752  27.4443951
   0.0542590  11.7108765  28.3083248  49.2946892  68.0898590  66.4633942
  49.0741196  67.6727219  67.2962036  49.7372971  67.4048920  65.9622421
   4.9747391   7.4356070  18.6981831   4.7107544   6.5765057  18.3688049
   4.2796946   7.6820745  19.3084278  83.5829620  57.6109276  79.0189896
  82.8429108  57.7057228  78.4193573  84.3442612  57.8782539  78.5040207
  66.8043289  22.9677696  77.3986816  67.6849899  23.3427963  77.3945007
  66.6125946  22.7963963  76.4766769  22.3266106  37.1342049   4.8485799
  21.5325279  37.4951401   4.4543805  22.2028027  37.2548637   5.7900391
  31.9176006  68.9198227  57.8534813  31.0709763  69.0750122  57.4347038
  32.3579826  69.7692413  57.8254051  20.5103607  65.5187988  88.2983704
  21.1827927  65.8579025  88.8891983  20.6472340  65.9966049  87.4803238
  22.5339890   0.4887441  58.9930649  22.4238625  -0.0580441  58.2151680
  23.1133537  -0.0180789  59.5620117   7.1826997  69.5094681  18.8196850
   6.9708996  69.0186920  18.0256329   6.5230002  69.2325058  19.4555473
  41.8432198  14.9743385  18.1328697  41.1135750  14.6161232  18.6383667
  42.4581337  14.2454290  18.0503807  61.0235710  17.2591381  57.8839455
  60.7076607  17.9203739  57.2681580  61.6840553  16.7705441  57.3927574
  42.0051575   2.6683614  14.2120171  42.7534294   3.1363194  14.5826063
  41.2419968   3.1651752  14.5069618  76.8204193   1.4969337  57.9673462
  77.6126556   0.9878866  57.7956848  76.7618256   1.5341816  58.9220276
  26.9000359  30.0234642  72.9231262  27.1018772  29.0878315  72.9139633
  27.3543205  30.3589325  73.6959915   4.9389081   1.7088770  77.9172058
   4.6099958   1.1009557  77.2550278   4.4651632   1.4734036  78.7149200
  27.9894829  50.7374039  24.8400726  27.3538151  51.3167915  24.4199924
  28.3566418  50.2231979  24.1210327  22.8145924  71.2771606  22.8526840
  22.6002769  71.6825867  23.6928806  23.4487877  70.5942841  23.0711040
  16.2891541  52.9855690  22.6368237  16.7758141  53.7657814  22.9026489
  15.8144445  53.2556534  21.8507347  21.6293278  45.0101509  73.3632660
  22.0953007  45.6494865  72.8244171  22.3173885  44.4418793  73.7094879
  57.0449715  23.3836098   5.0725751  57.8103027  23.6092129   5.6013522
  57.3720741  22.7466698   4.4373255  23.5670757  33.1904793  74.5086441
  24.4311714  33.5291481  74.7428970  23.4024448  33.5394821  73.6326752
  76.8529205   4.1255746  72.2001190  76.3612518   3.4582255  72.6787949
  77.7090378   3.7267344  72.0444870  43.8363037  40.7366791  76.1596375
  44.0408401  41.2069130  76.9678955  42.9621658  40.3756714  76.3072281
  61.9134865   8.8826761   3.5583744  62.6854935   8.7710390   3.0036030
  61.1733322   8.7110548   2.9761794  59.2687263  53.5169449  82.3517990
  58.9513626  53.6070290  81.4532471  58.8600464  54.2423592  82.8240128
   8.8754196  69.0395813  27.7552338   9.1929512  68.1992035  28.0856323
   9.6431713  69.6108398  27.7765121  64.0349274  16.5829964  71.3688202
  63.0830879  16.5002346  71.4270706  64.3698120  15.9451160  71.9990540
  11.3614922  44.4583969  16.3595200  11.4210081  45.1084938  17.0595665
  10.4842443  44.0867004  16.4517803  81.3836517  37.4573250  12.6396828
  81.1416321  37.5584259  11.7191181  80.6973953  36.9009132  13.0080366
  32.4123840  51.0093651  50.1308975  32.4053917  51.8799057  49.7329750
  31.8648796  51.0982018  50.9110107  49.6867714  40.1392937  55.6635475
  49.2771606  40.6817207  54.9895821  49.7079277  39.2608681  55.2838745
  33.1002235  62.3362312  83.9773636  33.8666115  62.6301346  83.4849243
  32.8043671  61.5522957  83.5146103  45.8254395  68.1969986  27.6500072
  45.8635750  68.8212891  26.9254112  45.5417786  68.7185593  28.4008350
   3.2447250  51.9551849  87.4140854   3.4721899  51.1444168  87.8692169
   3.5610435  51.8248634  86.5201111  67.7883453  20.9464512  75.7442703
  67.7200851  20.9518471  74.7895203  68.6614685  21.2951832  75.9239426
  70.5055084  35.0242653   7.3170271  71.0311966  35.6607628   6.8325152
  71.1482010  34.4742546   7.7649789   5.4590945  50.1268654  57.7463341
   4.8372335  49.5076218  58.1285095   4.9213490  50.8724213  57.4794846
  61.5528297   0.4526541  23.2587357  62.0610352   1.2636281  23.2420292
  61.2753563   0.3251485  22.3515511  21.1400700  53.4094620  46.3208275
  20.2961559  53.1731224  45.9358788  21.1182079  54.3647118  46.3778458
  67.7929459  27.5674953  74.3186264  67.7470703  28.4775200  74.6118622
  66.8947525  27.2456093  74.3952408  78.7950363  22.0654755  79.9793167
  78.7523193  21.9946022  80.9329300  79.4132385  21.3837929  79.7159348
   4.9726095   1.1085678  56.3772964   4.9682498   0.5277100  55.6164970
   5.7966008   1.5904288  56.3060226   3.6459868   8.5430994  64.1507187
   3.3332763   8.2406301  65.0033340   3.0933857   8.0857658  63.5169106
  13.5804815  18.7649117  82.5470352  14.4772196  18.7063751  82.8766861
  13.6776495  19.0455322  81.6370697  34.0289459  64.7543106  49.2133865
  33.2824326  64.9405136  49.7828445  33.6357613  64.4674835  48.3891487
  -0.1658833  46.1066475  20.1325550   0.3211024  46.9299202  20.1685810
   0.4908943  45.4321098  20.3053970  63.5214577   2.5088356  39.5671692
  64.1583862   3.0460782  39.0960770  62.8242493   2.3505788  38.9307098
  39.4215698  44.1407089  66.9270706  39.2047386  45.0613899  67.0739212
  38.6455116  43.6623802  67.2189026  80.9951096  18.2905941  66.7717133
  80.7347107  17.4306011  67.1016159  81.8436508  18.4576302  67.1819687
  81.6217346  38.4860268  41.5148506  80.7822037  38.3695717  41.9596596
  81.4192810  38.3689003  40.5866661   5.5096188  63.2726593  33.0544014
   5.7547112  64.1874008  32.9150963   4.7254014  63.1506577  32.5192833
  43.4296799  56.3609390  85.0750198  43.9065742  55.5572014  84.8681183
  44.0162582  56.8444939  85.6566772  36.8425789  51.5060806  83.6902084
  36.0023079  51.2273140  84.0541687  36.6130142  51.9668541  82.8832245
  62.2040024  13.8853970  55.5589867  62.2386703  13.0553970  55.0834541
  63.1172256  14.0780153  55.7714806  67.8854752  31.5307713  74.2169113
  68.0359726  31.5739250  73.2725983  68.6279221  31.9984417  74.5993881
  55.6202621   1.3770136  58.2944641  54.7072487   1.0955058  58.2362480
  56.0718651   0.8655752  57.6231079  46.1142159  43.2257118  80.4099808
  45.7993660  44.0961761  80.6536865  45.6457558  43.0193367  79.6011658
  42.5694275  41.8200836  63.8583183  42.9457703  40.9476509  63.9743423
  41.7429962  41.7904739  64.3403625  71.6915131   2.9411545   1.3587929
  71.5416641   2.1568320   0.8309531  71.7205124   2.6211197   2.2604408
  60.2280846  24.3757248  42.1405678  61.1736031  24.2613239  42.0449715
  59.8753853  24.1923199  41.2698212   6.0809088  43.6935577  74.9521179
   5.5078101  44.0715637  74.2851105   6.7783465  43.2665863  74.4546127
   0.0844375  60.3418999  20.9032059   0.9222893  59.8812981  20.8575783
  -0.2774141  60.0970497  21.7548790  84.4226456  21.4109554  87.4410553
  84.2624359  21.5991020  88.3658066  85.3708038  21.2941380  87.3811646
  63.9750862  63.3082047  81.0228348  63.8660316  64.1360703  81.4907913
  64.7719040  62.9274979  81.3921280  79.5683517  44.5164604  12.2308331
  80.2197418  44.4608917  11.5316677  79.6050110  43.6620522  12.6608019
  53.4510078  37.5308762  43.1191864  54.2318611  37.7670097  42.6184502
  53.6570129  36.6748009  43.4945831  31.0089474   0.2615988  25.2903271
  30.6226616   0.5748776  24.4724808  30.2878361  -0.1746000  25.7441578
  77.7000504  19.6661987   9.0513563  76.9494019  19.0872784   9.1840630
  77.6209106  20.3233376   9.7428303   1.5846933  28.9853764   0.2841644
   2.4232688  29.4406300   0.3601019   1.4072324  28.6613770   1.1672065
  82.1294479  16.0947933  50.8437881  82.7907867  15.4169388  50.7045708
  82.5432129  16.7129707  51.4461899  60.1777840  38.9001350  81.1437225
  61.0436554  39.0442314  81.5254669  59.8842964  39.7721367  80.8796997
   7.2010722  17.6512318   4.8038549   6.3894315  17.4858150   5.2835507
   7.6009946  16.7872562   4.7046585  55.4231300   3.5973911  77.0626068
  54.4802284   3.7396197  76.9793243  55.4999580   2.8120997  77.6044998
  38.1511345   1.1356156  36.9136200  39.0057297   1.4967428  36.6780663
  37.6186218   1.2472643  36.1260948  51.7685928  60.3369637  20.5279465
  52.2483521  59.6624260  20.0472507  52.1978760  60.3730202  21.3827267
  39.7013321  57.1651573  14.0520744  39.2524185  56.3415260  13.8614388
  40.1265030  57.4025154  13.2279873  35.3441734  15.3367348  13.5806589
  36.0538712  15.1886263  12.9556608  34.9980583  16.1988850  13.3501492
   7.2950706  63.9053841   6.0993986   7.7732925  64.7296219   6.0090070
   7.9751153  63.2495308   6.2531118  52.9935570  17.7765160  68.8209991
  52.5744362  17.4118347  68.0415268  53.3692780  18.6057014  68.5251541
  11.9812841  59.7667313  11.1686506  11.3424444  60.4758224  11.2415085
  12.3786402  59.8899803  10.3065891  65.1196899  44.6524811  63.1084824
  65.7593842  44.1302757  62.6244087  64.3066330  44.1508713  63.0487747
  54.5928268   6.8283472  44.5159111  55.5129356   6.6259155  44.6851654
  54.3548698   7.4525189  45.2014885  77.3645935  11.6167231  40.7020988
  76.4506454  11.8015985  40.4858780  77.6765976  12.4157829  41.1268234
  12.1445227  28.4048424  58.8865318  12.7399921  28.2372417  59.6169815
  12.3325195  29.3066082  58.6263237  66.9572372  26.0539112  64.6112366
  66.6202240  26.2025833  63.7277489  67.8112869  26.4861126  64.6176758
  30.7414055  54.5214348  66.6299667  30.6517792  55.4645882  66.4933701
  30.6220684  54.4034920  67.5723419  68.3257904  50.5185242  59.1866913
  68.7105789  49.9689980  58.5039139  67.7681961  49.9230843  59.6874580
  15.4092216  69.3657990  83.9489212  15.3283138  69.0208282  83.0597229
  14.9847469  70.2229767  83.9128265  36.8343124  24.9080315   2.6038043
  37.2603836  25.4898148   1.9743415  35.9920464  25.3256359   2.7838762
  53.6579742  34.2784843  58.3059540  53.9767342  33.5887566  57.7238045
  53.1706924  34.8698540  57.7323112  64.9338303   6.7742248  24.5744820
  64.8581238   7.4470515  25.2510948  65.8347778   6.4596839  24.6492348
  65.4146729  63.0537643  69.9666138  64.8460541  62.3086548  69.7724152
  66.0660400  63.0471687  69.2652588  50.4790459  46.2821846   6.3744526
  49.5546951  46.1732407   6.1509809  50.9010353  46.5070534   5.5452428
  74.1458893  61.2631416  62.0490570  73.2444763  61.2772827  61.7273750
  74.3225174  60.3392029  62.2261848  42.6736488  56.2246017  48.5921249
  42.4990158  57.1363869  48.3589363  42.1256371  56.0647011  49.3604660
  31.5685406  38.8229752  21.1418533  32.1448402  39.4128838  21.6277771
  30.7869053  39.3456078  20.9625912  21.5788021  18.7199898  68.4000626
  21.0808868  18.1853218  69.0184784  22.2396336  19.1558075  68.9382019
  51.3100777  25.9467964  25.9753151  51.1138115  25.9457264  26.9121780
  51.0038261  26.7998161  25.6674232  82.6846390  17.6814804  87.3708572
  83.4273148  17.1073570  87.5580902  82.9833908  18.2309456  86.6462402
  66.0943527  28.4927063  49.9445419  66.4602203  29.0375004  50.6413727
  65.7024384  29.1166286  49.3335152  81.9394989  29.1939297   1.9689792
  82.2105026  28.9840298   1.0752617  81.1381073  28.6875172   2.1014338
  73.8748016  19.0329285  85.2182388  73.7754745  19.9571133  85.4468155
  73.5623016  18.9745770  84.3153687   6.7935023   1.6660647  15.9062223
   7.0631366   1.3885394  16.7817268   6.9248323   2.6142108  15.9044666
  55.1512146  26.0299892  79.6716537  55.6331444  25.2794399  79.3243027
  55.8307343  26.6257210  79.9872284  37.0602036  37.0592194  65.5272293
  37.2882957  37.7446251  66.1552658  37.0113487  36.2601662  66.0519791
  33.6216202  41.1352463  62.5692062  33.6990280  40.3857193  61.9789085
  33.3467636  41.8575363  62.0044212  17.1512909  24.4224243  75.2297287
  16.8310795  23.9486446  74.4621124  17.6360283  23.7666435  75.7309341
  76.8967667  52.0014496  43.4041824  76.4883957  52.3030472  42.5927010
  77.8370590  52.0524559  43.2324677  27.4600010  56.8608398  13.4405956
  26.8635368  57.1379280  12.7451210  27.0421677  56.0880814  13.8207140
  69.4135437  46.1347160  75.8642426  69.3921051  46.5377808  76.7321777
  68.8455048  46.6886787  75.3288040  14.8346815  11.5130587  70.1661758
  15.2603779  10.7067003  69.8749771  15.5444355  12.0389090  70.5349121
  85.4524078  53.8906288  48.8551254  85.3911667  52.9533195  49.0393372
  84.8199539  54.2934685  49.4500694  20.5000534   0.0690384  50.6869621
  19.7048225   0.4008936  50.2701759  20.9068108   0.8427672  51.0769920
  52.3979530  45.7415199  36.9934769  51.9461060  46.5386658  36.7166672
  53.0946426  45.6245384  36.3475914  81.4703979  62.5025558  85.7062607
  82.0950928  62.7673988  86.3814163  80.7445984  63.1201286  85.7959900
  30.4051552  35.3334045  14.6920147  29.6188221  35.7639809  15.0274496
  31.1155529  35.9433022  14.8909817  46.5526733  66.7956467  23.0731277
  46.1376572  66.0870743  23.5649719  46.9832191  66.3574829  22.3390484
  27.5351944  62.1124649  57.4306145  27.3346767  61.2025719  57.2112617
  26.6837196  62.5062141  57.6208382   2.1433697   6.9713488  51.4603500
   1.9845805   7.5343113  52.2180367   2.2607529   7.5794759  50.7305298
  21.5563145  55.0800133  11.3463602  20.8473969  55.2489433  10.7257700
  22.2587605  54.7089996  10.8123665  56.5606346  59.6294289  61.5609283
  57.1888924  60.2530899  61.1968346  57.0141373  58.7870369  61.5301895
  47.0530014  68.6348419  76.8607941  46.3896217  69.1845551  77.2778854
  46.9362526  67.7732162  77.2610474  79.9797974  28.6791859  49.9863625
  79.4709091  29.0119419  49.2470856  80.5058594  29.4265842  50.2707672
  11.4460049   4.3929925  50.3659668  11.9428768   4.2634206  51.1737823
  11.5398483   3.5667381  49.8919144  66.8016663  24.1038666  25.2206669
  66.3100815  24.6802845  25.8057499  67.1585541  24.6888561  24.5523472
  34.9863777  32.2652893  76.5985718  34.8620300  31.3496037  76.8481522
  34.1688728  32.6951561  76.8498306  18.5298061  57.9909630  42.8729858
  18.5408649  57.1935120  42.3436584  18.0073509  58.6098404  42.3628273
  35.4985695  46.2019615  34.2718849  35.0304871  45.8338547  33.5224648
  35.6028290  45.4655380  34.8744087  49.1516838  63.0561256  33.4014091
  48.8981552  63.3497963  34.2764587  48.5898323  62.3002968  33.2302856
  13.9851923  60.7607574  52.9793320  14.6457024  60.4808731  53.6130714
  13.3521643  60.0430183  52.9603615   7.4951262  56.9557114  41.0674286
   8.4160585  57.2084770  41.1324310   7.4306488  56.1512527  41.5821342
  79.8949280  52.1252213  13.9702749  80.3843002  51.3566589  14.2636204
  79.3926392  52.3969002  14.7384748   5.8867154  14.0785275  63.5390625
   5.1195869  13.6573963  63.1512566   6.2929654  13.3937025  64.0702972
   5.2994018  47.4909859  10.5767078   4.8466702  47.3355637  11.4056292
   4.5978260  47.5521126   9.9284124  11.4565754  62.5201836  23.2743168
  10.7236986  61.9044838  23.2681580  11.0849829  63.3381577  22.9440613
  67.2783279  26.6478100  47.6180573  67.2714615  27.5076237  48.0386581
  66.7417908  26.7607002  46.8334465  68.7452087  24.6462212  17.8928051
  69.6721725  24.5024910  17.7022400  68.5504532  25.4994030  17.5050144
  69.4453735  34.1731377  57.0216064  68.4899521  34.1158485  57.0108681
  69.6580811  34.4611855  57.9093132  53.3908005  53.7524681  36.6647377
  52.4876900  54.0308533  36.8168144  53.3919029  52.8183594  36.8737068
  52.2805176  57.3415794  77.1879196  51.3815193  57.1001625  76.9648590
  52.7603607  56.5133972  77.1781464  72.9760361  17.0544167  60.1176682
  72.5991669  16.2290821  60.4226608  72.8743820  17.6522865  60.8582420
  57.7353363  44.0158615  35.1499138  57.1801643  43.9174614  34.3763924
  58.2064629  44.8361816  35.0038071  84.8776779  48.0117340   6.4169941
  85.0850372  47.3773460   7.1031337  83.9243164  47.9768791   6.3387527
  49.6578865  27.3758984  31.2982254  49.8226776  26.4436531  31.1568260
  49.9713516  27.5423985  32.1871872  47.3181686  61.9390488  83.5019608
  47.1192856  61.1406670  83.9911118  46.6754074  61.9518318  82.7927933
   3.6757119   4.9153223  21.3492908   3.3049734   4.1273828  21.7467022
   2.9270887   5.3554907  20.9467411  66.4972763  40.2686539  60.7632751
  66.0953598  40.7502136  60.0402260  67.4349747  40.4376335  60.6716652
  22.6400986  65.9568634  71.7405243  23.3700352  65.9538116  72.3597260
  22.7834473  66.7372665  71.2051315  56.4293976  71.2948532  72.8424377
  55.6687050  71.1933060  72.2703705  56.2476006  72.0896988  73.3438416
  39.9283104  24.1264191  67.1926804  39.9387398  23.8954487  68.1215363
  39.0870399  24.5646095  67.0642700  85.5081635  52.6384010  56.0178452
  85.4959564  52.3462563  55.1063995  85.8248672  51.8798447  56.5082779
  55.1935692  58.8875046  17.3838692  54.7513924  59.3273201  16.6577358
  54.4824638  58.5386696  17.9213371  29.5481949  59.0787392  72.7295609
  29.6915417  60.0229530  72.7939453  30.1933765  58.6973763  73.3249893
  77.2599030  71.1674500  62.1182823  76.9516220  70.9750290  63.0038185
  76.4646378  71.1823502  61.5857735  65.1527328  12.2921829  88.6990128
  64.8863983  11.7232237  87.9768066  66.0462341  12.0167131  88.9039688
  44.3362923  69.7758102  38.2554741  43.5957603  70.0413361  38.8007622
  43.9545326  69.6226349  37.3911667  19.9757690  57.8183250  39.8474884
  20.4892826  57.7847519  39.0403900  20.2060394  58.6589851  40.2430840
  51.1967087  54.4260445  55.7387466  50.7350197  55.1275826  56.1980057
  50.7138596  53.6318054  55.9673767  52.4623718   4.5459051  46.5809593
  53.0560265   4.6158648  47.3285637  53.0395927   4.4214854  45.8275871
  41.9112129  41.8450432  53.7969971  42.8503532  41.6627388  53.8288612
  41.6201210  41.7617836  54.7050514  33.6320000  23.4624672  87.1848679
  33.0965996  22.7748909  86.7888718  33.0564346  24.2266960  87.2150497
  17.5645695  55.1133423  69.8458252  17.8697262  55.1420708  70.7526245
  17.5467396  54.1813049  69.6285248  37.8703232  65.0066986   0.7393268
  36.9249840  64.9171829   0.6187019  38.0095901  64.8407059   1.6716814
  51.1856766  41.1393166  75.8679047  50.6017761  40.6022491  75.3323212
  51.7099266  41.6285439  75.2338333  75.8765869  58.5885849  52.6369019
  76.7236862  58.9877357  52.4385529  75.6346741  58.9511108  53.4891243
  58.6251106  36.5008507  28.5859795  57.8971252  36.6459122  29.1903172
  59.2581863  37.1845360  28.8051167  47.0712471  67.5130463  72.6977081
  46.2090034  67.3717957  72.3068008  47.5074234  66.6637802  72.6289902
  71.6246719   9.0394926  82.5726547  71.9149246   9.6427050  81.8884659
  72.4351349   8.6982088  82.9506760  43.3502617  41.3892403  11.7742414
  44.0350914  40.8364067  11.3979244  42.6290855  41.3375626  11.1469717
  69.8614197  11.5388231  22.6028328  70.7509613  11.4856243  22.2533932
  69.8417892  10.8913174  23.3075199  55.1445770  47.7156410  32.6793900
  54.6658287  47.1333237  32.0895233  54.8110657  48.5895119  32.4760551
  71.8977509  53.4114532  26.3958149  72.0555038  52.6682739  25.8135509
  71.0442581  53.7503548  26.1257610  19.9711189  67.3554840  78.0859756
  20.0245399  68.1715775  77.5886078  20.6227932  66.7842026  77.6795425
  38.3309822  38.5211220  68.5029984  37.7552948  38.7630386  69.2284622
  38.9820290  37.9406242  68.8971939   5.9945154   7.8179464  53.9592171
   5.6320496   8.6305695  54.3120537   5.6818862   7.7889957  53.0549736
   3.9176869  42.7159386  12.6425047   4.3028951  43.3745346  12.0644932
   4.6674814  42.2274551  12.9822445  44.3447647   6.4663029  80.5352707
  44.8056450   6.6299734  81.3580933  43.8009262   7.2434363  80.4066772
  50.5699768   5.0955734  13.7589283  50.9727592   5.3627157  12.9327116
  50.9282990   5.7019181  14.4071436  25.0616684  49.2859650  27.5086899
  25.4279842  49.5494690  28.3528538  24.1787052  48.9798470  27.7158146
  72.6665039  43.9491158  65.0741196  72.4647522  44.5652924  64.3699493
  72.5047302  43.0867729  64.6914673  44.5782928  51.6934776  30.1051331
  44.0982208  50.9266586  29.7924767  43.9476852  52.4111938  30.0464115
  65.0131836  58.8954468  29.5296898  64.1828232  59.1684227  29.1395359
  64.7609100  58.3178787  30.2501106   9.9538059  69.2249146   9.8438654
   9.3444471  69.9625626   9.8157578  10.8139229  69.6191177   9.6988277
   4.7769179   3.8357732  62.6878929   5.2285242   4.6737928  62.7879257
   4.7298250   3.7005527  61.7414627  63.8251152  60.9465523  79.0480347
  63.4763031  61.5459633  78.3882828  63.6078491  61.3582268  79.8844223
  20.7012367  39.9011726  12.6186485  21.5318298  40.3735237  12.6755037
  20.0368938  40.5890274  12.5769892  14.7244139  12.5207291  82.1414261
  14.1241112  12.3905993  82.8755493  14.1867123  12.3734465  81.3633423
  14.1079273  51.5994530  72.3524170  15.0180521  51.8663864  72.4814606
  13.9787149  51.6392250  71.4048157  31.0233135  63.0268211  80.1011581
  30.8530178  62.1245537  79.8307037  31.9623852  63.0484810  80.2852859
  47.4875946  27.3119926  83.2546692  47.9703178  27.6268978  82.4904404
  46.9720917  26.5756378  82.9256210  21.8366127  70.5086975  84.1181564
  21.6247730  71.4387741  84.1976166  21.0352421  70.1085129  83.7806778
  56.4965973   6.0040970  49.7757759  56.0969086   5.2614059  50.2284241
  57.3298912   6.1393247  50.2269669  72.9716415  39.2856827  19.5850258
  73.5279694  38.9802361  20.3015690  72.6031494  38.4857292  19.2101688
  24.1094704  19.9758759  78.9972534  23.2503204  19.9712944  78.5752640
  24.0285168  19.3446007  79.7122192   1.0938008   9.2710648  26.8092785
   0.8733626   8.7868795  26.0135384   0.4752958  10.0014467  26.8243122
  15.6539574  33.4601936  68.5507965  15.6658916  34.3847427  68.7983704
  16.5703716  33.2477608  68.3739166  56.1255608  62.4622803  83.9034805
  55.2033882  62.2868309  83.7162704  56.4354134  62.9527473  83.1421204
  83.3430176   5.1821284   9.3513718  83.0387726   6.0081382   8.9753771
  82.5987167   4.8625917   9.8614149  41.0889206   6.1982393  85.6413651
  40.1905518   6.2986875  85.9561310  40.9964523   6.0239244  84.7047272
  33.3201752  18.7217083  76.9978180  33.0061340  17.8304768  76.8451233
  33.0415192  18.9241276  77.8909073   7.8312201  61.0159492  55.8322945
   7.1478386  60.3922501  56.0776978   8.5646639  60.4691238  55.5507393
  58.8665161  34.7856026  59.9128151  58.1757317  35.1422462  59.3543739
  59.0756912  33.9369431  59.5226097  35.0521851  20.6255550   5.4446640
  35.6501465  20.6273689   4.6972189  34.3396873  20.0437336   5.1799750
  58.5862961  50.2945862  38.2183304  59.2405701  50.8348389  38.6613693
  57.9335785  50.1074409  38.8929939  54.9848938  36.6901741   0.4296482
  54.9842567  36.1478767   1.2184104  54.3445816  36.2741585  -0.1475525
  25.8483009  61.4844055  29.4385300  24.9150581  61.6180077  29.2728844
  26.1903782  61.1367416  28.6149139   6.3715291   6.1866517  21.9113922
   6.6596780   5.6084666  22.6177235   5.6213374   5.7358341  21.5238266
  26.9638386  65.8084412  32.1585579  27.7931271  65.8774872  31.6855412
  27.1573925  65.2329865  32.8985710  63.4295883   3.0236483   4.8704634
  64.3747177   2.9866636   4.7235389  63.3397179   3.2297106   5.8008900
  60.7182426  43.9421425  26.9100380  60.1357193  44.5697289  27.3378601
  61.1874161  43.5212402  27.6304188  61.2659492  56.2640190   5.8473005
  60.6727524  55.7319107   5.3170094  60.9971466  57.1663742   5.6748753
  70.9482269  41.9845276  27.7093582  70.6978760  42.3950539  26.8816967
  71.0292435  41.0539589  27.5002861  39.7567368  28.2262154  71.7489243
  39.3369141  28.7624969  72.4215164  40.0518150  28.8553448  71.0906219
   0.4278393  27.7268810  72.0198135   0.3486066  28.4155655  72.6798706
  -0.0370718  28.0713215  71.2572861  11.9709291  13.5295296   5.6887317
  12.2848558  13.9378481   4.8819122  12.4232779  12.6866274   5.7223110
  32.7256470  69.3528976  21.4372120  33.4642220  69.2145996  20.8442421
  32.7848778  68.6331711  22.0654774  59.9408226  46.0797234  83.6962433
  60.8295670  45.7519608  83.8338470  60.0164452  46.6692619  82.9459381
  59.8747520  27.3428841   7.9752326  60.0609665  27.9936295   8.6520557
  60.3260117  26.5526619   8.2721233  76.7006149  17.0723457  54.0707359
  76.0770569  16.8989086  54.7759514  77.5306625  17.2337799  54.5192833
  22.5079765  60.8320999  34.2492256  22.8957882  60.8329926  35.1243439
  22.2990303  59.9132957  34.0807800   7.4074335  67.6397018  76.0622711
   6.6731110  67.0550461  76.2498398   7.0049658  68.5006027  75.9477844
  77.7098389  40.3310127  16.5024185  77.9571686  40.3287811  15.5777283
  77.8381119  39.4260941  16.7868462  41.3005333  67.0255508  54.8556137
  40.8991547  66.2284546  54.5095444  42.2419662  66.8791809  54.7633247
   9.4910727  10.4465933  21.9677277   9.5509014  10.4719677  22.9227200
  10.0046225   9.6790829  21.7158813  80.1616440  15.8048782  38.8737793
  80.3227997  16.6102638  38.3822365  79.2675476  15.8995609  39.2021942
  66.7984009  28.7541485  27.8788128  66.5128937  28.9310722  26.9824772
  66.0911713  28.2313747  28.2566662  66.9890289  71.6775055   8.2139025
  67.1177521  70.8389969   8.6572523  66.0659637  71.6752625   7.9605527
  62.8295059   6.2838955  44.8507385  62.1949005   5.9649801  45.4924545
  62.4082451   6.1369743  44.0038681  57.6813431  30.1437893  75.9962006
  57.5848541  31.0958920  76.0167694  56.8624115  29.8120499  76.3643494
  28.5693417  18.9410915  72.2336502  28.6899357  18.0953121  71.8019714
  28.1762161  19.4987526  71.5623093  58.1580086  35.2467155  39.7746162
  57.7922440  35.4431419  40.6370926  58.5089722  34.3602333  39.8595352
  55.1669807   7.0108657  47.7479172  55.0189819   7.9470234  47.8818474
  55.6111946   6.7221441  48.5451279  17.0186558  51.1298904  53.2738914
  16.7502155  50.3993263  53.8310661  17.7236347  50.7727585  52.7338066
  48.6316261   8.8146458  79.8965912  48.4170189   7.9180293  79.6391983
  49.4437485   8.7324400  80.3965225   7.4235291  70.7566681  73.8979111
   7.4415307  70.5061340  74.8215637   8.3265858  70.6435013  73.6014023
  29.0420837  71.4580231  60.2685509  28.7647457  71.5246506  61.1822662
  28.2464943  71.2176666  59.7936821  56.3654480  16.6497498  77.5620499
  56.8295441  15.8868608  77.9067917  56.6772881  17.3809395  78.0952988
  63.7540359  69.9023209  23.1569843  63.0480232  70.4755020  23.4557209
  63.6462669  69.1018677  23.6706772  46.7964630  23.5277729   0.5415531
  47.2346191  24.0838776  -0.1026535  47.5061302  23.0385151   0.9577644
  24.0524006  44.4324188  68.9768982  24.4498978  44.6784172  68.1416016
  23.3021736  45.0199585  69.0673828  20.3551502  33.8541527  35.5376930
  19.7915573  33.9337654  34.7681122  19.7686920  33.9994545  36.2801132
  25.5339718  46.5598602  85.9512100  25.5307522  46.9375916  86.8307190
  25.2233295  45.6629219  86.0746231  75.0780334   5.1911545  52.1807556
  75.2342834   6.0354495  52.6038208  75.9532166   4.8410006  52.0144081
  59.2587547  24.1512260  27.9877872  59.2622604  25.0029602  28.4245586
  59.3798332  23.5185051  28.6957664  31.6302910  24.5499420  73.5486679
  31.8896141  24.5370655  74.4699783  31.1106262  25.3485794  73.4572525
  15.4219370  66.2307892  64.7933350  14.6641741  66.0242462  65.3404770
  16.0469875  66.6374359  65.3934860  75.1276855  54.5297508  69.0314484
  74.3773499  55.0978203  68.8567276  75.5102844  54.3663902  68.1693726
  22.0348454  55.3099632  67.2111511  21.9353237  54.4308281  66.8458481
  21.1402187  55.5941658  67.3985138  81.2095108  25.4654617  79.1100922
  80.4120789  25.3467808  78.5940933  81.1305847  24.8308563  79.8223267
  22.1737366  20.2767010  33.1986389  21.6060219  19.5060444  33.2033119
  21.9970837  20.6992264  32.3581047  28.7524700  57.4233704  45.0906639
  28.0399628  56.9993324  44.6123772  28.3123627  57.9598351  45.7500153
  71.8104248   1.9393389  76.9206085  71.0230865   1.4729477  77.2013245
  72.5326233   1.3651565  77.1755295  41.5979195  28.5848522  87.0995865
  41.6515465  28.5145855  86.1464767  42.2341461  27.9469795  87.4229507
  69.3955688  35.9026642  64.8973312  69.7498932  36.2887001  64.0962906
  69.1077728  35.0283012  64.6348572  17.2899475  64.5289001  77.7087021
  17.6889992  64.8739319  78.5074158  18.0213509  64.4291534  77.0993347
  62.9516869  15.5215225   5.0789380  63.8344231  15.5585365   4.7106500
  62.8944740  16.2935486   5.6419077  70.1689606  16.4139557  77.6908188
  70.6234589  15.6630249  78.0726013  70.8492279  16.8876419  77.2121811
  68.1430435   8.4469223  18.2927704  67.8548355   9.2433062  18.7388020
  69.0248947   8.2893038  18.6300011  74.5660477  20.5290604  46.4261665
  74.5977325  21.4060326  46.8084564  74.0377121  20.0190697  47.0401688
  60.2175255  70.3723221  73.8966904  60.9386635  70.0942764  73.3320007
  59.7682343  69.5596848  74.1290512  80.7717285  24.6215038  84.9037857
  81.3146439  23.8959656  85.2121277  80.6746445  25.1896286  85.6680145
  59.4974060   3.3395290  36.6632042  58.5962219   3.0196056  36.7049866
  59.4110870   4.2903881  36.5950317  71.8364258  19.2280521  18.6217785
  70.8874893  19.3391647  18.6800442  72.0488586  19.4538670  17.7161789
  44.8801994  21.3303242  87.4432297  44.6889915  21.2517586  88.3778381
  44.1853943  20.8312340  87.0138245  55.8361092  71.3616714  55.6629639
  55.4192505  71.6890793  54.8659248  56.7653618  71.3037262  55.4407921
  21.2229786  56.1630440  55.8562698  21.2690773  56.7550011  55.1054764
  21.2794933  56.7386780  56.6189537  35.6625786  53.1539650  47.1329498
  36.4525452  52.6397743  46.9662476  35.7732391  53.9422150  46.6012993
  25.3687077   9.3214483  15.5473175  25.8090534  10.0972338  15.8944244
  24.6814804   9.1304054  16.1856384  15.3594599  58.4398346  44.0320320
  16.3092632  58.3913803  44.1404648  15.1181059  57.5942383  43.6539459
  76.9849930  51.3222466  12.9577675  76.6799850  50.9356804  13.7786026
  77.1100159  52.2491341  13.1614332  42.8483849  21.9759426   4.9997869
  42.5166702  21.1651726   5.3855915  42.1285286  22.5993538   5.0967097
  51.7828026  37.4123192   7.7043395  52.6232452  37.6395721   8.1021404
  51.5910378  38.1425896   7.1159835  53.5806160  43.8999176  32.6179466
  53.0662689  43.1818466  32.2490883  53.0818100  44.6876755  32.4014778
   2.5990973  36.4450989   4.7464781   3.0280418  36.2112656   3.9233372
   1.7965939  36.8933487   4.4794717  62.6666641  69.3662567  75.8762283
  63.5188408  69.2998962  76.3070679  62.0408707  69.0669022  76.5357742
  69.0198593  29.4868870  12.8659763  68.8195648  29.3698845  11.9373074
  68.1725311  29.6678867  13.2727928  24.0353737   1.6722177  50.4984360
  24.7989731   2.1270559  50.8537788  23.3270988   1.8815421  51.1073341
  21.5727673  16.9009590  75.7462311  22.4775257  17.1013355  75.9860153
  21.5618916  15.9515953  75.6244965  78.0334549   3.4790151  17.7020741
  78.9439011   3.7562230  17.8044109  77.5823669   3.8543336  18.4583073
  47.6962013   4.7916765  88.6448441  47.2426567   4.3250308  87.9428635
  47.3084717   4.4486556  89.4499741  42.8214226  51.5660782  84.2920914
  42.0756683  51.6962471  84.8778763  43.0192566  50.6320229  84.3601379
  52.7405396  11.6335592  79.8209305  52.0352173  11.8259192  80.4387894
  52.2952461  11.2752628  79.0530930  37.8323784  64.0894547  63.9216347
  38.7200661  64.4299927  64.0324402  37.7488136  63.9405060  62.9797935
  71.2058716  62.7225952  12.0321598  71.9473419  62.7787247  11.4294147
  70.6165085  62.0856552  11.6281948  52.1227036  61.8595963  80.2939682
  52.9188042  61.8789062  80.8250885  52.0080109  60.9366035  80.0677795
   0.2182218  43.2072487  60.3478470   0.4351121  44.0470047  59.9428787
   1.0335670  42.7069969  60.3133049  83.7304153  62.5962677  44.2734261
  84.4178619  62.8529930  44.8880386  84.0268631  61.7579880  43.9189796
   5.3610311  19.6739559  80.2203064   5.5105896  18.9820900  80.8646545
   4.5783110  19.3941021  79.7456894  24.5387211  30.8654556  18.8730621
  23.8222122  30.2345161  18.8040504  24.2110310  31.6492023  18.4319344
   3.0509515  24.6117916  57.9020500   2.5648904  25.4363766  57.8960762
   2.4881995  23.9986134  57.4292336  39.8652191  52.9781723  15.4858866
  39.9971504  52.1225166  15.0776262  40.1942673  52.8710251  16.3783436
  64.5764160  57.4157257  55.6111069  64.3261795  56.9072838  56.3825340
  65.3219604  56.9413986  55.2431297  83.7585373  16.6112499   7.2013597
  83.2537308  15.8678551   7.5311604  84.6581955  16.2877998   7.1541848
  32.9502716  28.2232285  75.6513672  33.5756645  28.6346493  76.2479019
  32.4344597  27.6410942  76.2093048  13.1999254  59.3805389  23.6125698
  13.6501637  58.5499954  23.4585838  13.7569799  59.8423805  24.2391663
  82.5326080  50.4597015   5.7027020  81.9057388  50.0594139   6.3052282
  82.4154816  49.9808350   4.8822136  14.4512758   5.8180981  12.2067719
  14.0924301   4.9624014  11.9717293  14.8552580   5.6812301  13.0636835
  41.7130699  69.2285309  18.8496399  42.2409973  69.6291885  18.1589928
  40.8133926  69.2877426  18.5282269   6.7818079  38.0397072  23.3776588
   7.7051587  37.9289970  23.1509457   6.6670184  38.9865112  23.4590302
  65.2591019  52.4277344   5.5560126  64.8738480  51.6331635   5.1866064
  64.6312485  52.7118416   6.2203283  60.2270279  11.0979605  65.1880112
  59.6660995  10.7218952  64.5096512  60.0854721  12.0421600  65.1195831
  34.5446892  29.1810551  87.2175980  34.9729424  29.9642582  86.8720245
  35.2633400  28.6389999  87.5430984  75.0805588  56.9037933  16.1438713
  75.9011612  56.9812126  15.6571951  75.3036804  57.1750259  17.0343094
  52.1995583  21.2763157   3.1879838  52.9954834  21.7188816   2.8932483
  51.8542175  20.8551502   2.4008427  59.7413826   0.2374039  31.2125702
  59.9888954   1.1247896  31.4724064  60.2168655   0.0855810  30.3958111
  45.2722130  68.9511490  83.3966217  44.4610481  69.2746811  83.0047455
  45.2156181  67.9992905  83.3129578  54.9480171  67.7544708  24.7213783
  54.2141914  67.5630417  24.1373577  55.6757088  67.2434158  24.3670998
   3.3423021  44.3886490  37.4912148   3.9944906  44.2783737  38.1831131
   2.5206342  44.5396309  37.9584389  68.1287689   7.6415672  38.4691315
  68.6200485   6.9827981  37.9783211  68.7981720   8.1379547  38.9400215
   1.4542013  64.6537781  27.9990215   1.7802914  65.5528488  27.9594212
   0.5147277  64.7322311  27.8332882  57.5446129  53.4918213   0.5826114
  57.7817612  52.7890587  -0.0224670  57.4855309  53.0630341   1.4363579
  78.6293869  51.8959045  68.9767456  78.5677414  51.2469521  69.6776733
  77.7683411  51.8797035  68.5589371  16.6733208  58.0366211  33.2140274
  16.3341312  57.1785202  33.4686813  16.2651939  58.6472740  33.8278427
  22.8906651  65.1449051  77.7582703  23.4925365  65.1232147  77.0142822
  22.0204372  65.1820908  77.3613358  21.5887451  51.6368561  18.7333851
  21.5927658  51.7716484  17.7857323  22.5144310  51.6120796  18.9757118
  52.1237755  24.2123489  19.4459152  51.2100754  24.2840958  19.1698093
  52.1041374  24.3874950  20.3867493  51.4416351  13.6174116   1.6478145
  51.4262581  12.8622417   1.0598404  51.4754066  14.3750381   1.0637826
  17.8133297  69.3518066  21.8126698  17.2501087  68.9541016  22.4766312
  18.1619225  70.1375656  22.2337379  21.3331146  56.5517387  76.4809952
  21.6753387  57.3397713  76.0589523  20.6368599  56.2505493  75.8972626
  73.7097931  23.2749729  47.4798470  73.0880051  23.5536232  48.1521339
  73.6510315  23.9506798  46.8044205  44.6993675  19.3840313  75.3013763
  45.1605911  18.8551636  75.9523773  45.3651505  19.9836960  74.9646759
  38.0521545  63.9524117  52.3950462  38.1118088  63.3809967  53.1606560
  37.2785606  64.4919052  52.5585289   3.5901978  24.6811638   8.6485949
   2.8800402  24.2525768   8.1708698   3.5223179  24.3361950   9.5388870
  86.4376602  29.2144566  33.3543854  86.5154572  28.3410301  32.9705849
  86.8071899  29.1238918  34.2327271  63.4877052  25.4649410  22.2822990
  63.1153336  24.9072800  21.5992260  64.1536026  24.9191360  22.7005157
  60.5725899  17.1048374  71.1363144  60.0241661  16.4919243  70.6466217
  60.2909279  17.9695339  70.8376541  40.6433601  24.6498375  23.0151825
  40.7162933  25.4632492  23.5144596  41.5009804  24.2347527  23.1069660
  69.9651260  66.6241379  79.5381775  70.2091217  66.3156052  78.6655350
  70.7883606  66.9206696  79.9262314  31.7100487  43.3268013  77.7496109
  31.8343143  43.0450630  78.6559296  31.9595699  44.2509079  77.7497101
  75.3383789   0.4890779  43.1590614  75.1878204   0.7603328  44.0645905
  74.4857025   0.1749753  42.8582039  20.1818142  34.4140282   9.7389002
  19.9372101  35.2485199  10.1389313  21.0806389  34.2626457  10.0311842
  31.0841789  15.6159935  73.6699753  31.4518089  15.8088131  74.5324707
  30.5082951  16.3575745  73.4838409  57.3519096  44.0112190   4.5739198
  57.3396873  44.6700172   5.2682290  56.4282951  43.8394394   4.3904533
  36.1224899  12.2145243  18.6871681  36.9944458  12.1103773  18.3062706
  36.2744141  12.2319908  19.6320724  56.2564774  14.5362854  75.5302658
  56.7371140  14.1327562  76.2530289  55.9520302  15.3726425  75.8824692
  58.0092430  56.0991478   7.0881438  57.6058426  55.6462097   6.3476410
  57.2763252  56.3159943   7.6643748  21.6912155  37.1563110  84.2611771
  22.3867092  36.5393753  84.0333405  21.0623264  36.6347694  84.7599030
  66.2087402  46.1020851  71.4722214  66.7133102  46.9144859  71.5127411
  66.7716522  45.4941750  70.9928436  47.0427551  22.4387207  21.1253014
  47.9596558  22.2387180  20.9368191  47.0793686  23.1450748  21.7702484
  85.0036926  62.1623840  20.9348412  85.5435638  61.3759499  21.0141315
  85.4253845  62.6737633  20.2442627  53.8048134   1.1115158  32.3146858
  53.2492332   1.0929495  33.0939255  53.3841858   1.7472100  31.7357235
  49.1212120  52.9450150  69.8072891  50.0716286  53.0584450  69.7989807
  48.9828529  52.1168289  70.2668533  26.2524586   2.5839233  44.5632057
  26.9359131   2.4584234  45.2215157  25.4398212   2.3573220  45.0154266
   7.1729589  18.9993343  63.3977623   6.9216504  19.3319244  64.2594223
   7.2465281  19.7816792  62.8511772  17.3493195  70.5868988  85.4348602
  16.7066326  70.0032120  85.0317535  17.4263725  71.3181152  84.8219833
  22.8791962  48.3705139  13.7776346  22.1201515  47.7920151  13.7039967
  23.3744850  48.2194290  12.9725914   5.1426764  20.9242535  35.5323906
   5.4942679  20.2184906  34.9896965   5.6850247  21.6835117  35.3188057
  36.5969429  42.8587914  52.9178963  37.1951065  42.6350746  53.6309013
  37.1706238  43.0698242  52.1812897  29.0567093  50.1691246  55.2375221
  28.6574364  50.8794365  55.7397881  29.9499855  50.1090279  55.5761642
  34.6394958  29.9257812  14.7874861  35.0918159  29.1183815  14.5430613
  35.0184021  30.1660290  15.6330290  61.0007286  59.4397202  35.3081932
  60.1949387  59.6954422  34.8592567  60.8814621  59.7457657  36.2072716
  85.1539917  47.0139275  32.0863190  86.0183563  46.8911781  32.4787941
  84.5615845  47.0987320  32.8333740  42.4660225  53.1210785  72.9830551
  43.1836662  53.7524147  72.9316711  42.0678024  53.1397743  72.1128311
  36.2586098  42.7482300   1.0014008  36.1210022  43.6685944   0.7772911
  37.1925201  42.6876945   1.2023410   8.9640646  15.7247400  14.4680176
   8.0604763  15.4995794  14.6895208   9.0262899  16.6640091  14.6416101
   3.8730044  64.2028885  58.3211708   3.9107196  65.0417938  58.7805748
   3.4901547  63.5985565  58.9571266  16.2626438  35.2326431  88.4648285
  15.6748362  34.5747070  88.8360901  15.7344580  36.0298729  88.4238739
  51.3947220  27.4891453  33.4842606  52.2356071  27.2660561  33.0850410
  51.5345345  27.3640976  34.4229012  85.3162308  15.6642599  41.7474174
  86.0718002  15.4092751  42.2768784  84.9965591  16.4678631  42.1576157
  21.9155369  21.8293381  76.7572861  21.7449703  21.2109604  76.0468292
  21.2818909  21.5955715  77.4355698   4.0738616  27.1208191  84.0265808
   4.9667168  26.9249401  84.3106155   3.5529563  26.3857574  84.3499603
  23.5974178  54.3764877  25.8797112  23.8879299  55.2674217  25.6845989
  24.1473198  54.1004295  26.6129436  17.5047951  55.5587234  22.5476570
  18.3065910  55.0772667  22.3438034  17.5277328  56.3190994  21.9666767
  56.4902458   8.0645266  73.1530380  55.6871834   8.5850372  73.1332626
  56.8699875   8.2426434  74.0134506  36.3797226  41.2272911  82.5312729
  36.8637962  42.0494499  82.4540863  37.0498276  40.5473442  82.4615021
  11.1618290  66.7997055  63.0743790  11.9582195  66.4429016  63.4676743
  10.8468828  66.1036530  62.4977112  16.4336529  49.2055359  55.4390259
  16.8057079  48.5681763  54.8294563  16.8728771  49.0264702  56.2704391
  86.1681671  15.6902456  67.3810272  86.4262161  15.2660112  66.5626984
  86.9317627  16.2096901  67.6326828  55.7232857  39.2770195  75.0829468
  55.7240067  38.6143379  75.7736588  55.9037399  40.0988464  75.5393143
  72.3692703  16.4777985  65.7313995  72.7541504  17.3288136  65.9408493
  71.9499817  16.6073933  64.8807373  28.6811581  50.6679649  78.2872696
  28.2839737  49.8152809  78.1100540  28.1371479  51.2905006  77.8048477
  55.2961159  12.8728714  52.5854645  55.6396675  13.2989311  53.3707504
  56.0741844  12.5693197  52.1178131  27.4039288  20.7614269   7.7816186
  28.1084213  21.3902225   7.9382749  27.0881958  20.9696369   6.9023046
  15.4083509  55.0677299   0.5987121  16.2975483  55.1636925   0.2576095
  15.3689079  55.6738358   1.3385185  79.4642792  31.4923840  53.2342300
  78.9356537  30.6958447  53.2823067  79.0244293  32.1075363  53.8210411
  71.3627777  48.2984848  73.7491989  71.1110764  47.9449272  72.8960419
  70.6901169  47.9770699  74.3495636  16.4708576  47.4219627  35.9103355
  16.5233345  46.4735527  36.0286522  15.7032843  47.6846008  36.4183540
   0.3199732   2.1990261  26.1085453   0.4172310   2.9699049  25.5495110
  -0.6260589   2.0694790  26.1754227  64.7686768  35.1275940  78.1942291
  64.1735306  35.1672287  78.9428711  65.1727219  34.2619820  78.2550278
  25.3204670  47.6820984  69.2160645  26.2739162  47.7101860  69.1362076
  25.0269604  47.2315445  68.4241791  79.2146912  53.6762962  53.7515831
  80.0832367  54.0112000  53.5286484  78.6078873  54.2848778  53.3301010
  57.4242973  56.1996498  76.5015488  58.0636902  56.7886429  76.9021683
  56.6613731  56.2467232  77.0777130  25.2046127  11.7726040  18.6649570
  24.3134022  11.7490864  19.0134182  25.5451202  10.8912783  18.8184223
  86.8474503  70.2745132   4.5900788  85.9909439  69.9718857   4.2883415
  87.1337814  69.6036606   5.2099204  76.1904068  48.8505058   8.7218275
  76.9531708  48.6644974   9.2693892  75.8266602  49.6583176   9.0842600
  23.9510345  68.9311142  65.7081146  23.6222687  68.0331573  65.7507706
  23.1985703  69.4482727  65.4207535  59.1279488   8.9050493   0.1831897
  58.6410866   8.1406364  -0.1248185  60.0304832   8.5969954   0.2654292
  17.1247311  30.8051949  77.0864334  16.5279770  31.5436459  76.9647598
  16.7620296  30.3241959  77.8302917  47.3021622  68.0397186  53.8498611
  46.4715271  68.3165512  53.4630280  47.2195129  68.2600632  54.7776833
  47.5187912   9.5389338  77.4539948  48.1154137   9.3068933  78.1656342
  46.7199593   9.0457544  77.6407471  58.2661629  12.2984056  10.4810219
  57.8378487  12.0794468   9.6534739  59.1749954  12.4779682  10.2401628
  58.9796562  68.9715729   4.2903094  59.9200821  68.8043900   4.3526092
  58.6643791  68.9053116   5.1916661  57.0270615  19.3982143  29.4391289
  57.4258575  19.6142159  28.5961952  56.7848358  18.4755497  29.3600788
  74.0863800  14.9807510  87.5323257  73.9452057  15.7769747  87.0201416
  74.8203125  15.1937122  88.1087112  52.3143463  21.8271294  86.6064072
  53.1458206  22.2654972  86.4255219  51.6510315  22.5011292  86.4581909
  44.8394623  60.8899269  22.8566780  44.8319702  59.9569817  23.0706635
  45.4306068  61.2787743  23.5013313  77.1080475  64.4422073  64.3980103
  76.6097183  63.8791008  63.8057175  77.4287720  65.1514587  63.8409424
  25.4440594  39.7278824  41.6600304  24.6796265  39.8104820  41.0899010
  25.1052094  39.3212433  42.4575653  32.3903236  13.7236900  88.1016312
  32.1045723  13.0093107  87.5322113  31.5918465  14.0110140  88.5444794
  71.1366501  51.1235046  10.3524599  71.8165207  50.5251808  10.0425892
  71.6173096  51.8265038  10.7894907  35.4014130  52.9303436  81.7052765
  34.6827583  53.5616417  81.7403030  35.5415916  52.7786179  80.7706375
  33.7902756  47.3007469  71.1818390  33.3534966  47.7396011  71.9118195
  34.6564560  47.7062073  71.1422958   3.8886428  59.4402428  30.1551323
   3.5145035  59.2349167  29.2983418   4.4335728  58.6821938  30.3664207
  39.0912743   6.1881809   7.7143135  38.8802414   5.4842944   8.3276978
  39.6194687   6.8011565   8.2256908  50.2736015  22.0328159  22.2717781
  50.0688324  22.7771149  22.8377457  51.0889244  21.6789227  22.6270885
  12.8948269  64.4519196  57.6517906  12.9852142  64.2021179  58.5713882
  13.4362602  63.8207130  57.1778069  18.7835178  44.3777199  58.8607483
  17.8522167  44.5465698  58.7179184  18.8953972  43.4524574  58.6425667
  68.0539017  67.1895981  39.4655838  67.9559860  68.1178436  39.6777077
  67.8651733  66.7350922  40.2865791  55.8859024  32.1255913  22.0483704
  55.7564201  31.2160072  21.7798176  56.0863876  32.0731926  22.9828701
   7.0136709  31.5778885  11.5584040   7.6917286  32.2178917  11.7748861
   7.2993016  30.7716904  11.9881611   2.2319691  38.6502991  86.8062363
   2.2547891  39.3999863  86.2115250   2.9360938  38.0793114  86.4989700
  42.8863907   0.9364724  88.9205399  43.7864151   0.7654516  89.1979141
  42.7091599   0.2691277  88.2576065  29.3766441   1.8057816  20.4536171
  30.1681175   2.2526100  20.1533718  28.8570118   1.6796615  19.6596985
  24.3479557  24.3308811  11.2272415  23.7356796  24.3718987  10.4926224
  25.1923981  24.5763397  10.8492184  63.7503204   0.2980150  67.2316208
  64.1363144   1.0146252  67.7353134  64.4858017  -0.0782700  66.7481842
  15.2512436  69.7096786  32.7557678  15.4951372  70.1429825  31.9378471
  16.0851650  69.4482803  33.1462517  47.7110405  69.2375183  24.0786190
  47.6719513  68.3021927  23.8789654  46.8852463  69.5883331  23.7451115
   1.3251554  56.4853859   6.9019299   0.6561950  57.0934868   7.2164741
   1.3603272  55.8012581   7.5704803   1.3134153  50.2071991  71.3558655
   1.6814138  49.4362564  71.7876740   2.0761297  50.7293854  71.1072311
  61.3549080  59.9122696  14.0687466  61.2467880  59.9020195  13.1177282
  60.9518585  59.0959663  14.3644371  44.9046974  54.1980667  35.5671158
  44.1484108  54.5984688  35.1382294  44.5750618  53.9172401  36.4207573
   6.8190918  25.9972954  82.8364105   6.8948250  26.7432346  83.4314499
   7.3715210  26.2293262  82.0899429   0.8088222  14.9499578  29.3468628
   0.7431489  14.0629606  28.9930897   1.7397456  15.0629387  29.5388222
  67.9746399  67.5615082  27.3393574  67.6646042  67.4592133  26.4395561
  67.1922989  67.8000946  27.8365936  33.7273140  16.7794838  11.6175222
  34.4482002  17.2137623  11.1615019  33.3323021  16.2121048  10.9554949
  44.8093338  35.6438828   8.9030790  44.7141876  35.5478477   7.9554739
  44.0202255  35.2408028   9.2651014  74.4379044  38.8313255  68.8961334
  74.0836105  39.5362778  68.3541489  73.8335648  38.1008644  68.7640915
  63.8230858  25.1630974  53.0450745  64.3670578  24.6102314  52.4841270
  62.9720497  24.7252102  53.0600739   9.0666857  67.5411224  65.4899673
   9.8119249  67.7780685  66.0419693   8.3545341  67.3747101  66.1075287
  41.3704948   6.1729894  17.3294983  40.8630371   6.2447624  18.1379337
  40.9824944   6.8238101  16.7445869  42.6196671   2.3063774  47.3876228
  41.7675095   2.3426232  46.9531670  43.2440720   2.1554451  46.6779976
  16.9799900  54.4299355  74.8866806  16.9486904  54.3966560  73.9305725
  16.0714321  54.5741234  75.1511917  57.4424019   1.8699012  49.1301117
  56.8635788   1.1822159  49.4591789  57.7043343   2.3567367  49.9115295
  46.5972557  52.2354813  18.6722221  47.4899902  52.0393982  18.9564896
  46.6886787  52.4896278  17.7539196  52.8272209  69.2462540  25.7753754
  53.7150650  68.8897476  25.8048153  52.9429245  70.1544189  25.4959412
  82.7116699  43.2609978  32.6454277  83.6306992  43.1240387  32.8753471
  82.6263351  44.2100639  32.5547562  29.8099308  13.1056147   0.0925267
  29.2120590  13.8393183  -0.0505217  29.7127647  12.8950300   1.0212057
  22.0938244  62.7540359  21.8479004  22.8981438  63.1925392  21.5703850
  22.3813572  62.1188583  22.5037270  29.3938274  53.2469597  83.4402771
  29.1493645  52.5324020  84.0283890  30.0456944  52.8624420  82.8542328
  77.1195908  48.3898926  34.5496216  76.9621201  47.4556541  34.4131393
  76.7624054  48.8098106  33.7671127  30.2351646  53.1755524  40.7753868
  30.9787502  53.7781830  40.7632103  29.8645382  53.2701607  41.6528358
   0.8782971  67.5831833  29.4023819   1.3762079  67.5924301  28.5849285
   1.1022264  68.4104843  29.8285923  81.3441315  71.2815933  55.7884254
  81.3059998  71.2650528  54.8321266  82.1516418  70.8150406  56.0040359
   4.3684196  39.3716469  69.9271927   3.6453009  39.0491486  70.4650803
   3.9873281  40.0864220  69.4171906  38.5840759  54.0160408  42.0161972
  38.5253296  54.0553551  41.0616112  38.4864311  54.9250298  42.2998123
  45.9108505  38.2380524  47.0485001  46.4793549  37.8169861  47.6932755
  45.6712112  37.5348015  46.4449730  39.1556091  29.4972839  82.2667847
  39.3220139  28.5547428  82.2542114  39.8369102  29.8682823  81.7060471
  82.3644867  22.8921299  38.8160706  82.5232697  23.8018932  39.0677643
  83.2277527  22.5561695  38.5749550  17.4487419  70.7518463  58.2299423
  18.2303085  71.1368866  57.8335457  16.7531929  71.3848495  58.0517731
  69.5997620  19.2394676  50.9700356  70.3216858  19.4758244  50.3876343
  69.8479385  18.3858089  51.3248711   2.9214694  51.4998398  57.4252434
   3.3546174  51.7121353  56.5984764   2.1346357  52.0449104  57.4302750
  40.8029213  59.6874352  71.0735550  40.2205696  58.9599838  70.8546753
  40.2152138  60.4278946  71.2237244  72.9591675  34.7418060  65.7240448
  73.6915054  34.6934471  65.1095734  72.2177734  35.0288429  65.1909561
  68.0288773  31.6788559   4.4013219  67.3896332  32.2552338   3.9825318
  68.8772507  31.9999733   4.0957427   7.9188910   4.1411166  15.0854626
   8.2235374   3.8116226  14.2399702   7.4378195   4.9405665  14.8717279
  46.7873116  61.7175255  28.3431129  47.0940475  62.4061699  27.7532711
  46.5733223  62.1759300  29.1557064  14.5903645  50.7811203  34.2317734
  15.3403749  50.2235260  34.0248756  14.9625301  51.6579781  34.3258247
  54.3360138   9.6906128  77.5512848  53.4292755   9.6369972  77.8532562
  54.7512779   8.9013214  77.8988571  65.6240921  21.8597355  56.4802589
  65.7221680  20.9921722  56.0878983  66.0745239  22.4486942  55.8748932
  48.0758324  44.2516785  58.6277084  47.1885300  44.3260384  58.9789886
  48.2029533  43.3122787  58.4950218  55.7080727  42.8685646  37.2264748
  55.2204475  43.6865921  37.3228378  55.8800926  42.8014832  36.2872505
  78.3972473  65.4790878  48.4634590  77.8699112  64.6802902  48.4722214
  78.4204407  65.7608109  49.3779640  67.6626053  41.1735878  20.2537460
  67.0150070  40.8438339  19.6307678  68.3857193  40.5486526  20.2008476
  54.8503799   3.9499047  50.5703583  54.3660431   3.1266360  50.6326218
  54.2023125   4.5868945  50.2695503  84.0396652   1.5911676  51.6393089
  84.7648544   2.0523779  52.0607681  84.2470703   1.6214525  50.7053413
  73.6494370  47.9515038  50.8148346  73.1908188  47.1289635  50.6435699
  73.7618637  47.9696579  51.7652359  13.8862925  60.6139297  43.8211479
  14.3238163  61.4452477  43.6375313  14.5689726  59.9531479  43.7047615
  83.0561142  19.3678150  68.7140350  83.4600754  19.2820873  67.8504944
  83.4569168  18.6727486  69.2360229  83.5769043   6.9911137   3.3112438
  84.0295410   7.2757750   4.1051674  82.9494858   6.3352885   3.6153331
  80.8361893   0.3033833  80.4657364  80.2441254  -0.4062788  80.2166138
  81.2140045   0.6016723  79.6383896  38.3109207  43.0265007  29.5136871
  38.8452911  42.2885971  29.2201233  38.9459572  43.6852036  29.7948742
  46.9868889  54.5173759  57.7612495  46.5981445  54.8401527  58.5742226
  47.4313660  53.7079239  58.0131607   9.7840624   8.7154255   8.3041220
   9.5296955   9.4435558   7.7372413   8.9765053   8.2175503   8.4314127
  26.2404709  53.2346153  26.5859585  26.3652592  54.1146698  26.2307701
  26.7183189  53.2410812  27.4153252  81.8466339  19.0456619  77.2168427
  81.7570648  19.5708008  76.4215851  81.3233261  18.2624111  77.0468521
  43.2198181  57.2765007  45.4454842  43.3584251  58.0183601  46.0342636
  43.8512306  57.4104691  44.7386589  59.0719910  54.6316452  41.6121330
  59.8689079  54.6786461  42.1402893  58.3602180  54.7458344  42.2418709
  19.0244446  49.2341805  83.4695282  18.2713585  49.4009819  84.0363388
  18.8580875  49.7621727  82.6886444   5.8338780   5.8056707  10.6188526
   6.3955259   5.6356978  11.3750887   6.0839458   5.1382113   9.9799509
  37.5511703   3.0135250   1.0394167  36.9440193   3.5974009   0.5847859
  38.2046967   2.7856090   0.3782140  78.0696182  57.2428818  89.3914337
  77.8806229  56.9455261  88.5014420  77.6876144  58.1193504  89.4373169
  10.3745193  14.1529093  22.2471848   9.9254189  13.4600010  21.7630177
   9.9357958  14.1738615  23.0976639  45.2385254  63.2294655   4.4496322
  44.7448044  63.9373322   4.0356297  44.5682716  62.6493340   4.8107910
  60.7332001  69.8269272  46.5603294  60.8789673  68.9122467  46.8018761
  60.5316887  70.2639618  47.3877525  62.6533852  28.8261147   1.9157788
  62.3733673  28.9350796   1.0069616  63.5962639  28.9900227   1.8971809
  62.2467194  62.9179153  60.9447098  62.1941681  62.6311569  60.0329857
  62.9941139  63.5155945  60.9651070   6.0355949  14.1588278  34.1003838
   5.5182824  13.4202566  33.7792397   6.9037700  14.0267563  33.7195129
   4.2881446  25.8514786  76.6862411   3.8090584  26.4741325  77.2330627
   5.2099886  26.0621243  76.8347778  86.1952744  43.5949821   9.2985582
  87.1512604  43.6371078   9.3217659  85.9161072  44.5097198   9.2590771
  11.1686277  32.1304932   6.2145658  11.9482136  32.3628769   6.7190208
  10.8695860  31.3075600   6.6013288  41.6276474  31.4511127  28.6692085
  42.0987854  31.0528584  27.9373226  40.7658997  31.0347023  28.6543083
  81.2698746   6.2526603  78.7568054  81.5322189   7.1417217  78.5181046
  81.6581421   6.1120744  79.6203537  84.0537338  49.3518600  72.6739655
  83.5090027  49.4647560  71.8950195  83.4379654  49.3969116  73.4054260
  75.6032104  16.8216648   2.0985262  75.8004074  16.9045258   1.1655313
  75.7558136  17.6971073   2.4542553  18.2453232   2.0522115  65.8538055
  17.7651939   2.7188497  66.3450317  18.5718918   1.4505365  66.5228119
  80.4322205  27.2713566  24.1890526  79.6774902  26.6900616  24.0956860
  81.0323715  26.7944698  24.7623158  77.8555756  22.1570301  85.4135132
  78.7292175  22.5142097  85.5729141  77.6239777  22.4716263  84.5396576
  43.4512444   6.0600009  10.5347080  43.8575668   5.3967271  11.0925627
  44.1868553   6.4870214  10.0956602  39.8876076  35.6759758  68.5111847
  40.7529221  35.5974808  68.9128036  39.3431015  35.0523491  68.9916382
  58.7034264  61.9095001  26.6810741  58.8238258  62.5474701  27.3844414
  59.5851135  61.7601242  26.3396854  36.6593361  56.3898315  86.6645966
  35.9994583  56.7258911  86.0580826  36.5526505  55.4391594  86.6319122
  71.7024765  61.5763931   8.5345821  71.7673264  60.6777115   8.8576880
  71.1876984  61.5053406   7.7307248  74.0505142  39.2219582  15.5954618
  73.6929245  40.0520477  15.9105997  73.2815247  38.7082787  15.3484392
  10.5333014  14.6591663  27.1504784  10.2486877  15.2403545  26.4451790
  11.4082222  14.3737411  26.8872719  62.5114441  61.1114578  52.8021812
  62.8190727  60.2533379  53.0941086  62.7651253  61.7089005  53.5057030
  70.2490997   2.7666936  79.8369217  70.5717621   3.5069666  79.3230057
  69.9804077   2.1206443  79.1837311  74.6719055  29.1878891  22.3974800
  73.9435120  29.2564068  23.0147095  75.4103394  28.8927269  22.9302387
  64.2675629  39.9158669  50.4789124  63.3706779  39.6427193  50.6718292
  64.4962845  40.5093803  51.1942177  25.7879257  22.1869888  88.1008148
  25.2122250  21.5478096  88.5206375  26.2679729  22.5888748  88.8248825
  67.3388290   7.8665371  30.3271694  67.0882492   7.5129848  31.1806564
  66.9264832   8.7297707  30.2950783  82.6349792  39.0929451  51.6275749
  82.4553833  38.8675308  50.7147942  82.7546463  40.0426102  51.6206741
  53.7539558  57.0782127  26.8944969  54.4668350  57.6300697  26.5727959
  54.1883507  56.2861824  27.2110729  64.0825653  17.8100777  21.1485615
  64.3710251  18.7193718  21.0697765  63.7869530  17.5755062  20.2688904
  36.2256470  56.2207756  27.5929966  36.4587898  57.0090256  28.0834427
  36.3553162  56.4622078  26.6758671  26.9784889  17.9058228  84.4483261
  26.0358315  18.0066109  84.5804977  27.1983986  18.5590076  83.7840805
  28.5909958  45.6257744  71.5774155  29.2319202  45.9797058  70.9608307
  28.2855816  44.8166046  71.1672897  37.5279350  14.7023239  72.7787704
  38.4633827  14.6903324  72.5762100  37.1941109  13.8811617  72.4175415
  70.6766357  60.5374031   5.0452332  70.8383865  61.4705734   5.1840053
  69.7228622  60.4565048   5.0488887  71.4152145  20.5774384  49.4890862
  71.1307907  21.4910698  49.4643440  72.3708954  20.6247196  49.5147858
  83.3636551  16.3091030  29.4299316  83.0790024  15.5844908  29.9868355
  83.6336060  15.8910294  28.6122704   3.3648970  62.0435524  20.2342968
   3.8948951  62.1750679  21.0204506   3.9620879  61.6334381  19.6086750
  47.4980698  53.0344391  41.3115311  47.5809593  53.6840820  42.0096169
  47.6775398  52.1977463  41.7404404  22.4829769  65.3401794  63.1173401
  22.5615273  65.0470734  64.0251694  23.2061901  65.9563751  63.0011711
  17.7442360  69.5698624  33.5915222  18.0318336  69.4843140  32.6825638
  17.7446384  70.5129776  33.7551079  21.9685726  39.7233925  79.2963791
  21.5654793  40.5886269  79.2248154  22.8889713  39.9030876  79.4882355
  60.6619148  48.2145996  47.3814583  60.3657036  47.7528534  48.1658554
  59.8612709  48.5713730  46.9968567  16.5032215  50.7016945   9.0684118
  16.6905041  51.3227386   9.7722998  17.2597237  50.7651901   8.4853983
  63.5470848  14.7169847  83.2036591  63.9355316  15.5037737  82.8211670
  64.2151489  14.3881845  83.8051682  33.0029449  66.7551880  62.5647202
  32.7137909  66.9601669  61.6755600  32.2244034  66.4004211  62.9939575
  65.8474045  39.7343063   6.6999955  66.3563690  40.1007271   5.9768596
  65.7935028  38.7987251   6.5050225  75.4762650  13.4878035  50.6782303
  75.2781525  13.7317715  49.7740936  76.0670395  14.1744537  50.9876289
  35.5051918   4.5843992  13.6637869  36.0364838   4.2001371  14.3611383
  34.6061783   4.3432732  13.8870955   8.1248579  11.2791767  77.8179016
   7.7876039  12.1563587  77.6361160   7.6870313  11.0173244  78.6278229
  57.2005768  11.8444328  24.2483444  57.3228455  11.2099075  23.5421867
  56.3363266  12.2217789  24.0842934  56.9294205  15.7834797  49.7356453
  57.8420792  15.7496567  50.0222473  56.9621277  15.5607653  48.8052902
  47.0031357  17.8512726  85.1868591  46.6279335  17.0520802  85.5566559
  46.4518051  18.0463467  84.4290924  71.8402328   3.0560634  65.1359634
  71.0254822   3.4990687  64.8989868  71.7741165   2.9227588  66.0815277
  73.5590820  41.7295380  32.4604073  74.3297348  42.2930679  32.5294075
  73.6521378  41.2995338  31.6103096   6.8874407  37.8709412   9.3739939
   7.0014558  37.2254257   8.6764679   6.9021606  38.7154121   8.9235706
  26.7380447  11.3773632  79.2460403  25.8466835  11.0522223  79.1195831
  27.2964649  10.6202307  79.0695496  82.1544647  32.7860641  45.8753891
  82.9882355  33.0802841  45.5086555  82.3289337  32.6777802  46.8103065
  52.8031349  15.0498047  78.3442383  51.9939880  15.2033434  78.8320312
  52.6143341  15.3672113  77.4611588  12.3772030   1.0505921  35.9249344
  12.9214411   0.5092553  35.3530998  12.0938082   1.7764400  35.3689957
  13.5206060  64.1527252   3.2620451  13.9784889  63.6322517   2.6019826
  13.9908848  64.9862747   3.2783368  52.7241592  26.5742588  40.0584030
  52.6399498  27.1262798  39.2809639  53.6617584  26.5733681  40.2511063
  56.8976402  14.9584093   7.1094499  57.6244469  15.3005991   7.6299233
  56.5609474  15.7204571   6.6381202   7.2515249  68.6411743  45.5193443
   8.0279942  68.9894943  45.9575233   6.5324411  68.8259277  46.1235085
  42.3008537  31.0829334  77.9203491  41.6168175  30.5165386  77.5632477
  41.8271980  31.8328533  78.2802124  80.9589767  71.5031052  84.6818085
  81.3621216  71.5277405  85.5496140  80.2900162  70.8216476  84.7477341
  50.1123734  11.4630146  12.6265936  50.9498978  11.6410131  12.1986876
  50.1076202  10.5149879  12.7587099  27.5729752  63.9978790  55.2254982
  26.6546345  63.7317772  55.2710075  28.0154686  63.4420586  55.8669777
  64.1065445  34.4209480  42.3540688  63.7161407  33.5987587  42.0577164
  63.8339081  34.4997444  43.2682304  84.2003174  49.3937645  78.6236877
  84.0987091  49.2555923  79.5653992  84.1919937  50.3451805  78.5189438
   8.9226866   0.3776932  21.4972572   8.2151318  -0.1288654  21.8960018
   8.6039190   1.2802359  21.5032387  17.8826733  12.0627546   5.5959020
  18.7553291  12.2754154   5.2650247  17.7361507  12.6889887   6.3048406
  16.7758255  66.1209869  25.7912941  15.9313049  65.6708145  25.8103962
  16.6409531  66.9058228  26.3223991  45.0472832  17.7810154  15.0529213
  44.2757072  17.2889633  15.3336086  45.4617233  17.2220993  14.3955908
  25.9289780  28.4589481  16.6467667  25.7908096  29.2340927  17.1910915
  26.8639126  28.4736023  16.4420319  23.9414139  51.5038643  74.0536270
  24.8767433  51.4113312  73.8724365  23.8079643  51.0277481  74.8732224
  39.6758461  58.2935143  57.4348221  39.4641647  58.4601593  56.5163155
  38.9376678  58.6606674  57.9211578  83.4547501  53.0763130  73.5749817
  82.7380447  52.9662819  72.9501114  84.1508408  52.5091171  73.2433548
  78.1473923   2.0851359  48.4669456  77.7416840   2.5219252  47.7180481
  77.4677429   1.4987246  48.7992516  78.7880325  14.4657106  86.2791138
  79.2931290  14.9675865  85.6394043  79.3225098  14.4829216  87.0730057
  81.9795532  69.9999847  66.0984955  82.8235245  70.1779022  66.5135651
  81.3334808  70.1877365  66.7793503  19.8921528  21.6536369  78.8843002
  19.4691849  21.8828030  78.0567703  19.1978359  21.7335281  79.5383453
  51.2927437  69.0998154  83.0270996  51.6433868  69.9076843  83.4020920
  50.9699402  68.6062012  83.7810059   3.9225965   3.0801194  11.9351997
   2.9703422   3.1207886  12.0234575   4.0748858   3.0590081  10.9904280
  34.1262016  43.8771210  71.6944122  33.9780998  44.4349632  70.9307938
  34.9798164  44.1514893  72.0295181  36.6442451  61.0164909  29.6674500
  37.1515121  61.8174591  29.5356865  35.7325096  61.3079758  29.6692581
  71.5628357  20.9155121  25.5140171  71.4842148  20.9728241  26.4662609
  70.6871490  20.6696720  25.2157536  25.0231857  10.7058325  65.4054565
  25.8999252  10.5712566  65.7652435  24.6931782   9.8223209  65.2419434
  48.0130882  70.7846527  39.0936737  47.8729744  69.8970947  38.7637596
  48.5113869  70.6638412  39.9019623  20.9639168   8.6254148   1.8776748
  20.2570076   8.9238567   2.4499021  21.1368923   7.7270675   2.1592462
  40.5349503  39.7037811   5.5160584  39.9888077  38.9185829   5.5537081
  40.6642075  39.9497757   6.4320345  34.7206879  52.3811340  29.0605965
  34.1767769  52.7827873  28.3830509  34.6076851  51.4394417  28.9314384
  49.0883636  47.4679565  31.3998051  48.5274086  46.6983452  31.3035545
  48.8050194  48.0595512  30.7026958  86.5798264   3.7842994  28.4430599
  85.9247894   3.5413508  29.0973835  86.7885284   2.9635701  27.9968796
   0.5685391  44.7613564  42.0953827   0.6906661  44.0275307  42.6977272
  -0.1010364  45.3040886  42.5117264  11.3804951  36.8383217  75.5737305
  10.4404154  36.6586494  75.5878830  11.7793865  36.0069962  75.3167953
  20.1945343  20.5713520   4.6236677  20.6114197  20.4415760   5.4754877
  19.3811455  20.0694809   4.6761417  70.8928757  42.7691422  32.6383781
  70.3044357  42.0156517  32.5912704  71.7523422  42.3906288  32.8235321
   6.4206014   2.1931758  13.0059719   6.3301516   1.9899994  13.9369774
   5.7537193   2.8595636  12.8403597  75.1938095  36.8471832  16.2095146
  74.9617844  37.7717552  16.1225395  74.3785782  36.3779488  16.0321751
  25.1991138   0.2514442  63.2698784  24.3409195   0.4261482  62.8835945
  25.3126812   0.9416891  63.9232521   9.6135569  23.4894466   8.5494909
   8.8003588  23.1200619   8.2052584   9.8730621  24.1435204   7.9005880
  50.7842903  47.2965279  78.8469162  51.5183258  46.7175980  78.6413345
  51.1954155  48.1099739  79.1393280  48.8386879  20.5861721  83.5615234
  49.3588028  21.3719120  83.3932190  49.2458420  20.1898861  84.3318634
  61.7795105  64.9517746  19.3346405  61.4737396  64.0858994  19.0644569
  62.3524971  65.2363663  18.6226559  54.9598846  61.0730095  19.8523560
  55.2842407  61.0707207  20.7529202  55.1600113  60.1966438  19.5234737
  74.7918472  37.7523422  32.8661118  74.7686005  37.0789871  33.5460281
  74.4619217  37.3128471  32.0823898  14.0618114  35.6831284  38.2348976
  14.1087933  35.9082298  39.1640663  14.9615440  35.7731094  37.9208679
  28.8894711  20.7173538  84.8651810  28.0888996  20.7757282  84.3437271
  29.0170746  21.6019192  85.2079544  16.7831707  60.9826927  38.7447243
  17.5783386  60.4523468  38.6930618  17.0205326  61.7155075  39.3129425
  68.6159210  62.9469833  30.7505436  67.7377319  62.5664215  30.7364578
  68.6136322  63.5264893  31.5123825  53.8835411  54.8961258   2.8003585
  54.3867645  55.5494881   3.2862799  54.3593407  54.7915726   1.9763962
  49.6054115   0.0569180  57.6963654  50.1631699   0.7930592  57.4449005
  50.0540962  -0.7134899  57.3479576  44.6784859  46.7562943  72.2724762
  45.4524078  46.7157440  71.7106628  44.7561913  47.5950737  72.7270508
  24.9251823   7.4250040  10.9448538  25.2334995   8.0213423  11.6271677
  23.9994774   7.6431060  10.8365288  39.9635735  33.1673431  16.8647919
  39.8724518  34.0410652  16.4846096  39.4964790  33.2190819  17.6986847
  56.3142509  45.8017464  54.3939285  56.1484909  44.9501915  53.9894447
  55.8739586  46.4290619  53.8204765  28.3005123  24.8141212   1.1741612
  27.7237129  25.3915939   1.6742208  29.1636047  24.9369373   1.5694091
   5.5077486   3.7117043  19.6211739   4.9022799   3.9899540  20.3083553
   5.2174582   4.1836872  18.8406658  77.6127243  68.1335602   9.3326807
  77.5651779  68.9211502   8.7907648  78.5499573  67.9871826   9.4607601
  64.1902237  32.2214432   7.9222565  64.5632782  31.6780815   7.2281256
  63.2462425  32.1949425   7.7659512  26.4503632  55.6035995  25.3527546
  26.1498585  55.3132362  24.4915829  26.6199245  56.5393944  25.2442818
  59.3768921   8.4337006  43.0263329  59.8311081   7.6660028  42.6791153
  59.1023216   8.1723480  43.9052734  48.3665390   3.3750238  11.2702637
  49.2532806   3.4686234  11.6183481  48.4172668   2.6186926  10.6857796
  67.6096649  54.6821136  17.2030621  67.8606262  55.2772675  16.4966335
  68.3913040  54.1519356  17.3586082   4.5575142  59.3275948  75.9800110
   5.1139474  58.9724121  76.6731644   4.9604273  59.0198326  75.1681137
  48.0094643  49.5169144  19.7214527  48.7317352  49.3394241  20.3239918
  47.3211212  49.8859863  20.2748070  17.5295849  68.9208221  71.3010559
  16.5986996  68.9279709  71.0782700  17.5740108  68.4428253  72.1291733
  44.1731071   7.1883798  59.2356567  43.9476700   7.6032267  58.4029999
  43.8499489   7.7958002  59.9011154  13.4722385  26.9454975  67.5180130
  12.6950645  27.2312679  67.9981842  13.1706047  26.2034492  66.9939728
  36.7499466  45.3322945  23.7861538  36.8493500  45.8779602  23.0060253
  37.1404343  44.4929581  23.5427055  18.1631870  50.4852180  74.4581146
  17.6351948  50.9077721  73.7806931  18.8592281  50.0390472  73.9757385
  16.3815403  30.6011353  14.1595430  17.0931644  30.7845192  13.5461969
  16.8227615  30.3214951  14.9616385  81.0302429  36.9865952  30.6212101
  80.8783875  37.7030144  30.0048409  80.2783508  37.0162010  31.2128220
  32.1670837  60.3768501  43.9616051  32.5754509  60.9147987  43.2833176
  31.3686848  60.0420036  43.5533562  49.2899704  37.6318665   5.1508956
  50.1155548  37.1569176   5.0556569  49.5251503  38.5501022   5.0175915
   2.8986440  15.3181667  41.9826469   3.2336931  16.2091503  41.8820267
   3.3212850  14.8227005  41.2811356  44.5890732  53.1165695  41.1443596
  45.5231094  52.9079247  41.1277313  44.4420280  53.4877815  42.0143089
  54.9125900  16.1597805  42.2253914  55.5125313  16.3592014  41.5066872
  54.3468933  16.9295712  42.2857628   5.0702629  20.1319962   7.5035596
   5.0419340  19.4491425   8.1737394   5.8976717  19.9839630   7.0456147
  84.3117905  46.7199593  40.5498009  84.9946747  47.1792183  40.0609474
  84.7815628  46.2689781  41.2513390  60.2863846  32.1373711  29.3347740
  60.8775978  31.6895103  28.7296982  59.4781876  32.2563896  28.8358936
  67.6378479   6.1410341  11.6280537  67.9477692   5.3731136  11.1479750
  68.3292618   6.3202515  12.2652845  41.0185661   5.9523430  74.6907578
  41.6850700   5.3130836  74.9424591  40.5529747   6.1458941  75.5043869
   8.5224142   6.0893679  16.9006882   7.8029804   6.5059767  17.3751183
   8.1358385   5.2977190  16.5264111   2.6350689   5.9415011   8.9713488
   3.1523693   5.4814873   9.6324234   2.1338780   6.5889053   9.4672394
  12.7841959  57.7903671  33.0683556  12.9155521  58.7189598  32.8767891
  12.2586355  57.4668770  32.3366661  27.0277462  42.3825531  52.0184021
  27.1087208  41.4664001  51.7531967  26.2212105  42.4125404  52.5330238
  80.2358170  58.8949165   4.0675244  79.9130402  57.9943581   4.0998502
  80.9230881  58.9270515   4.7329974  42.1788101  19.3757801  71.6864853
  42.7407494  19.9600258  71.1774521  41.9912872  19.8628387  72.4888763
  72.9571915   6.5418682  87.7885590  73.8070679   6.1158605  87.9001617
  73.0782471   7.4176445  88.1554260  70.7592468  25.1319942  37.0428123
  70.5863953  24.2010231  37.1829834  71.2524414  25.4032555  37.8170242
   5.9484973   6.4220529  62.7633438   5.7378168   6.9313793  63.5459251
   5.3279848   6.7301378  62.1028290  19.2440453  39.5762978  80.4044800
  19.5690918  40.4302864  80.1193771  19.8293495  39.3233986  81.1184082
  15.9027710  48.8033943  88.6139145  15.0131645  49.1533813  88.5655365
  16.4632988  49.5389709  88.3670044  32.4941483  37.6953621  69.7702103
  32.8763084  38.5545235  69.9491577  33.2355957  37.1559639  69.4953690
  14.4759455  24.9053745  69.6673813  14.2486620  23.9884872  69.5128098
  13.9687405  25.3908272  69.0167542  40.5157356  52.2784462  25.1854496
  40.2173538  51.5900688  25.7798653  41.3043289  52.6279755  25.6003952
  28.6597404  49.4019012  74.1541824  28.7738037  48.9145737  74.9701004
  28.2939224  48.7628212  73.5426331  14.7789059  51.3845291  56.6976814
  13.8873110  51.0781670  56.5320549  15.3379402  50.7425613  56.2599792
  43.3749084  56.5671463  74.7357025  43.1210518  57.4659843  74.5262299
  43.5758934  56.1712189  73.8877182   2.1441486  60.6268616  75.3284378
   1.5711880  60.1768379  75.9492645   3.0103762  60.2514992  75.4865036
  19.8125191  62.6476746  35.8129578  19.1493244  63.2271423  35.4379578
  20.3248882  62.3515625  35.0606079  14.3650293  66.2115326  46.7504425
  14.8185177  66.1627121  45.9088974  13.8275003  67.0010376  46.6874084
  54.3038330  61.0786133  51.5533295  54.2642212  60.2484856  52.0282516
  53.5116730  61.5451202  51.8199425  60.9203072  55.6537056  58.5114136
  61.1985893  55.9135513  57.6331940  61.3222771  54.7954712  58.6459084
  78.5176010  11.4821348  28.3250008  79.1054535  10.8417187  27.9243450
  78.1882782  11.9981880  27.5891552  57.2815971   0.9519892  46.6258926
  57.3145256   1.1321534  47.5654106  57.9777260   1.4933579  46.2536621
  81.4461517  62.2517815  30.3587723  82.0945053  61.7514496  29.8632565
  81.5139923  63.1413651  30.0119781  85.5095673  50.5711899  37.8103828
  86.0385513  50.5279350  37.0138054  85.2531586  51.4909248  37.8779755
  22.5348606  48.6192741  86.6699600  22.7648087  47.7849312  87.0788956
  23.3593178  48.9437180  86.3076859  84.5025406   2.1023333  25.6296635
  84.0154877   1.3104259  25.4018612  83.9960480   2.8152804  25.2405548
  22.5469017  54.6223984  18.1836815  23.4166412  54.9500122  17.9546471
  22.2228756  54.2196198  17.3780708  11.7497339  32.4314041  34.6604958
  11.7539148  33.0812950  35.3632431  12.3779917  32.7663994  34.0207253
  13.5056925  13.2819014  79.6178131  14.0610828  12.5695658  79.3010330
  14.1102028  14.0090723  79.7662125  35.6544762  49.5048523  79.4765549
  34.8538971  49.6785431  79.9716721  35.7981796  50.3018494  78.9662857
  58.4407730  43.3455925  79.9324493  58.8032379  44.0633469  79.4131393
  57.6085320  43.6848183  80.2618942  42.2434425  21.8919926  10.0210571
  42.6226006  22.0036736   9.1492777  42.4101105  22.7244549  10.4631672
   5.5747914  62.4667091  21.9767742   6.5153222  62.2903404  21.9997272
   5.5100598  63.3892746  21.7299614   1.2138312  53.5308647  57.2733002
   0.6312419  53.6712837  56.5269051   0.9833526  54.2248802  57.8909187
  56.1562538  21.0908871   8.0604210  56.4693146  20.1967087   8.1970558
  56.8435822  21.5086193   7.5414672  84.2224960  11.6468277  61.9537125
  83.9646530  11.2046080  61.1448936  83.4730377  11.5331936  62.5382080
  16.9926968   8.9281187  70.4210358  16.7113628   8.5601959  69.5833511
  17.8363514   9.3385038  70.2311325  85.7119217  60.8190804  43.3633041
  85.6352234  59.9990540  42.8755493  86.2583771  61.3768463  42.8096657
  14.9681273  52.2407036  49.7954025  14.6851368  53.1103859  49.5129128
  15.9242582  52.2843819  49.7836189  53.7891159  49.4169922  88.1131210
  54.6046486  49.9159088  88.1602173  54.0664101  48.5231972  87.9119492
  79.3825531  43.6478691  61.8721008  78.6490097  43.1240768  61.5499458
  79.5806351  44.2495346  61.1544685  82.9633179  12.1303806  11.7798643
  82.3308640  12.6072149  11.2423983  83.5780334  12.8008480  12.0778999
   2.4898093  23.2149353  45.0241966   2.6466072  23.5893135  45.8910828
   1.6080647  23.5070572  44.7930603   0.5781122  20.8241673  80.3983459
   0.8985366  20.2301044  81.0770569   0.9433963  21.6768456  80.6344376
  67.9173737  53.3025284  58.9681129  67.9481506  52.3485336  59.0401154
  67.5553589  53.5943146  59.8047943   0.5426294  23.1013336  89.0716019
  -0.1612049  22.6534882  89.5409470   0.0978281  23.5773830  88.3703461
  81.2400665  53.4983521   4.4800887  80.3550491  53.3358536   4.8065510
  81.3173904  52.9374847   3.7082860  40.1102333  39.1888924  73.5047607
  40.9748840  39.5063782  73.7651825  40.2637634  38.7227554  72.6829529
   1.7484950  18.0423183   6.7058444   1.3302156  17.4882088   7.3648109
   1.1107467  18.0905437   5.9936762  59.1263351  54.8638039   4.3819804
  58.3146820  54.6051941   4.8185234  58.9346848  55.7249603   4.0106201
  12.5318689   8.5580158   8.1308975  11.5846386   8.6156454   8.0057344
  12.7833719   7.7484174   7.6864557  55.4588509  43.3060722  21.9058056
  55.3706856  44.2580147  21.9534187  54.8221245  43.0394325  21.2426968
  85.7096786  34.1064987  68.0877991  86.4838104  34.6610451  67.9907074
  85.9303284  33.3026772  67.6172485   3.7540386   7.7116542  46.6888313
   3.6526644   6.9322338  47.2351456   3.5387585   7.4142003  45.8048592
  39.6653519  50.2674751  26.6976013  39.5370407  49.3235474  26.7912502
  39.9520874  50.5572968  27.5636368  83.4506912  12.3987761  67.9055405
  83.1996460  12.3944035  66.9818573  84.3546295  12.7136192  67.9065704
  82.8222351  45.5106659  28.6080532  83.1048813  45.2519112  27.7309017
  82.2005005  44.8314438  28.8694496  49.9309502  30.3666134  37.1371307
  49.5014954  31.2206917  37.0886192  50.6711464  30.4361286  36.5342178
  48.8929024  52.4881058  29.2606544  48.2180061  52.8309441  29.8464947
  48.5993118  52.7383766  28.3846397  29.6224003  12.9802008   2.9612081
  30.1493340  12.2708549   3.3291781  29.3927269  13.5237560   3.7148855
  37.9911232  54.3088112  74.1017609  37.7789955  55.1316681  73.6611404
  38.8632240  54.4519043  74.4694519  50.3686028  38.3491249  65.0136719
  49.6984100  38.6226425  65.6399841  50.9397621  39.1121750  64.9255676
  66.0746841  49.5130768  63.1843758  66.0405807  48.6339035  63.5613670
  65.4870682  50.0321045  63.7335091  68.5403137  41.0050468  42.6056290
  67.7847977  40.4677658  42.3673973  68.6714478  41.5812416  41.8526115
  40.8354454  53.0200920  77.1917953  41.7436752  52.7983971  76.9863739
  40.3169670  52.3720589  76.7148666  19.9859257  17.9143429  70.8050385
  19.4571762  17.8143749  71.5966568  19.3632812  18.1970425  70.1352386
  63.2628098  11.3112268  12.2577448  63.3921890  11.3706093  11.3111897
  62.3132744  11.2593193  12.3669062  68.9819183  39.6507568  53.1970177
  68.0701675  39.9409027  53.2245026  68.9328842  38.6985397  53.2813377
  84.2391434  53.7323875  15.8428421  85.0917358  53.9878426  15.4906139
  83.7078629  53.5420837  15.0696983  42.7624359  13.7217207  74.5140381
  42.7043495  14.6251984  74.2032547  42.0102806  13.6202440  75.0972977
  84.8402176  51.3259621  76.5003662  84.6869125  52.1132545  77.0227661
  83.9929657  51.1376305  76.0967102  57.0490150  54.4452286  11.0451574
  57.6179657  55.1301956  11.3963604  57.3526115  54.3192940  10.1461582
  10.0116615  42.5943947   3.2202041  10.5836277  42.7564850   2.4699953
  10.5960636  42.2548027   3.8979812  44.4933891  67.8602676  69.4300690
  43.9910660  68.3489685  70.0820465  45.1825943  68.4653015  69.1559143
  50.5868874   0.6226770  37.8727608  51.3539543   1.1944320  37.8421860
  49.9130936   1.0997597  37.3883781  11.9400263   7.7328548  86.0047379
  11.6627398   7.8114462  86.9175186  11.3323526   7.0990963  85.6235428
  45.6708832  41.9233398  60.1498718  46.1183167  41.4612770  60.8587646
  45.0574150  42.5080795  60.5948067  69.7204819  55.0854073  58.6108322
  70.2693558  54.8753815  59.3663826  69.1200256  54.3435898  58.5373917
  57.3789253  29.0171032  29.8952045  58.1806526  28.8757591  29.3917313
  57.3915405  29.9500999  30.1087227  52.2236481  67.5214462  71.0239716
  51.3810654  67.1461563  71.2797852  52.7715034  67.4340286  71.8040009
  27.9416561  65.2628479  73.3846359  28.8713245  65.0442123  73.4490128
  27.7680702  65.2963486  72.4439087  53.3562317  52.2273598  15.1894054
  53.8741989  51.9038200  15.9264669  53.9292488  52.1229095  14.4298191
  80.3130493   3.8345456  62.2479668  80.5433731   3.2000432  62.9266357
  80.7457733   4.6438699  62.5199585  74.8667755  58.5675201  61.8498840
  75.6173782  57.9788704  61.9294014  74.2204361  58.0657425  61.3532028
  34.5013428  69.6636353  47.2112236  34.2592354  70.2175980  47.9533386
  33.6852570  69.5437088  46.7255783  51.0603333  52.3266296  21.8586483
  51.5930405  52.9748421  21.3979130  50.2938080  52.8156128  22.1579285
  48.8066902  69.4740143  70.3931885  48.5676231  69.1526413  71.2625580
  49.4185867  70.1903458  70.5625458  63.8291016  39.8265877  25.2697239
  62.9326591  39.8217392  25.6052742  63.9324532  38.9724274  24.8502445
  14.3056469  41.5920105  77.3452911  14.1885777  41.9863548  76.4809875
  14.4636240  42.3347664  77.9280396   9.4720211  66.4582825  49.7784500
   9.3225756  66.3633652  50.7191353   8.6929817  66.9119720  49.4567490
  25.2871418  41.2937889  23.5535278  25.6757526  40.4264069  23.6669140
  24.3556652  41.1640701  23.7317276  35.9707108  62.6985092  18.7114258
  35.7922173  62.8236351  19.6434746  36.4692726  63.4748993  18.4566994
  34.8056450  45.3520317  50.5775299  35.7067947  45.0737877  50.7410660
  34.2890778  44.8917236  51.2389717  -0.0961726  49.3708038  85.8552856
  -0.4890211  50.1771049  85.5209427   0.7301108  49.2914085  85.3786469
   7.9545898  38.6681595  33.6655846   8.6316128  38.3688507  33.0587158
   8.3824558  39.3489189  34.1849365  58.9071045   6.3935261  50.9165840
  59.2575645   7.0797853  51.4844360  59.2529831   5.5796628  51.2829514
   8.8311596  41.4922714   7.7379422   8.4580078  40.8991623   7.0858583
   8.9949379  42.3038673   7.2576094  73.6563263  34.2911034  55.5858650
  74.3027420  34.5648155  54.9351311  73.2944107  35.1104851  55.9233131
  49.2339897  49.2994232  48.7070045  48.6527405  48.5590401  48.5331802
  49.3154831  49.3212471  49.6604805  70.9123764  25.4481773  51.2424469
  71.8005753  25.5720654  51.5770950  70.6384354  26.3211708  50.9612579
  11.6711445  21.6974277  82.4942856  10.8305721  21.7409039  82.0384598
  11.6507807  20.8585224  82.9547806  35.9118347  59.1948051  67.4503632
  35.1740494  59.4033852  68.0234222  36.6765213  59.2201958  68.0255508
  84.5652390   0.9187880  31.8123360  84.0932236   0.1304045  31.5442257
  85.3090973   0.5920999  32.3184814   3.2654500  62.8275871  55.8742180
   3.5483809  61.9132195  55.8848839   3.3679922  63.1206093  56.7796745
  54.3524094  31.3287983  47.7179527  53.8715210  30.7315235  48.2908745
  54.2291222  30.9692345  46.8394623  20.8678970  12.8545208  24.5074844
  21.4939575  12.1761007  24.2544498  20.4479465  13.1111240  23.6864929
   5.9133668  47.6091385  75.2938461   5.0327716  47.2349472  75.3215485
   6.0159431  47.9136848  74.3922043  64.6350937  23.4898777  79.5931473
  64.4602432  22.6641560  80.0446396  65.4101410  23.8424911  80.0304108
  48.1397171  15.7797470  63.0290451  48.6319618  15.6404209  63.8380623
  47.2316971  15.5905714  63.2655678  55.3507919   8.8308268  88.9610901
  56.0473442   8.1776218  88.8949661  54.9339333   8.8245039  88.0994492
  48.7890434  69.7906647  59.8054695  49.4914436  69.1512222  59.6872597
  49.1311302  70.5965195  59.4184189  83.6349640   6.3151393  73.8803787
  84.4988785   5.9721503  73.6518021  83.2630768   5.6561670  74.4666214
  58.7944946   0.0013713  26.9879799  58.6071510   0.4493768  26.1631012
  57.9429970  -0.3194493  27.2850609  67.4262695   5.4533372  23.8532772
  68.1969070   5.6227808  23.3113918  66.8146133   5.0077233  23.2671566
  74.6984177  10.6420603  59.9524422  74.0547562  11.2879419  59.6612778
  74.4926147   9.8547831  59.4483871  74.8388672  34.0615730  64.0596390
  75.2465515  33.2008629  64.1555634  75.4738235  34.5727768  63.5579109
  32.8338737  44.7782021   2.4679871  33.4817963  44.3653069   1.8970737
  32.5543633  44.0785217   3.0583684  81.2555695  70.1728897  23.3402023
  81.1651001  70.8673172  22.6876526  80.4130173  69.7188950  23.3252201
  50.9644852  58.9946671  70.7293777  51.8913307  59.1961861  70.8581390
  50.9125214  58.0425491  70.8130417   4.6666574  64.4134598  30.1245079
   4.3163767  63.7167892  30.6796474   4.2537050  64.2714386  29.2727280
  30.5668812  27.7616901   3.2048471  30.2564030  28.6394844   3.4269133
  29.7790375  27.2182484   3.2190797  82.3362656  22.9179382  86.4494019
  82.7740326  22.1761723  86.8669891  82.4180984  23.6315079  87.0821381
  60.7589722  64.9715576   4.7534776  60.2411652  65.3742065   5.4505973
  61.6622429  65.0225143   5.0661068  39.8251724  48.2220421  47.4701462
  40.7136040  47.8659401  47.4594994  39.6384315  48.4273376  46.5540619
  34.0321846   9.8019829   5.0280237  34.2060165   9.8147087   4.0868263
  34.8990936   9.8384991   5.4322114  14.4799442  67.0710220  44.3347435
  15.1125422  67.4206314  43.7071877  13.8963146  66.5252686  43.8077164
  44.1980057   9.8685703  19.1131325  43.9017105   9.7519836  18.2104435
  45.1510162   9.9283228  19.0465794  38.0734825  36.0170250   0.7590334
  37.4092751  36.1478500   1.4357511  38.7638931  36.6432266   0.9768330
  27.8946095  23.6985073  44.5621185  27.7211990  24.3901844  43.9235725
  27.0523663  23.5540199  44.9933739  78.5719681  16.3856716  45.8063850
  78.3827667  15.7501717  46.4967270  77.8209534  16.9790897  45.8147354
  28.2156105  17.3755245  35.0441856  28.9342003  18.0064793  35.0861015
  28.4992523  16.6520061  35.6030235  61.3130074   6.1097403  42.5864143
  61.2670555   5.2209697  42.2339821  61.5089951   6.6586461  41.8271217
  69.9172592  46.7115784  47.8644638  70.6960220  46.1556282  47.8905144
  70.1297531  47.4484520  48.4372635  14.2636871   9.2242680  17.0724602
  13.4492998   9.5042439  17.4903355  14.8802710   9.9347038  17.2494812
  11.0335569  47.5701866  22.8315468  11.9096909  47.9022713  22.6357327
  10.7973757  47.0500450  22.0634937  51.2030602  36.6503220  62.6189232
  50.9597092  35.7247696  62.6380043  50.7794762  37.0253105  63.3910599
  21.2270374  44.9402313  59.3183212  21.7624111  44.2394791  58.9460907
  20.3248882  44.6529388  59.1775322  79.7875595  41.6197701  52.2994766
  79.8962250  40.7481728  51.9190331  78.8925095  41.6231270  52.6387482
  59.4990005  61.3210716  16.4166164  60.3578415  61.7407913  16.4662514
  59.3797073  60.9172897  17.2762451  73.4941406  29.8463860  37.2161255
  74.0882568  29.5314999  37.8973732  73.8667526  29.5122490  36.4001923
  77.2541809  71.3324585  23.6923103  77.5823593  72.2196274  23.5458069
  76.9337463  71.0510559  22.8353577  31.1546135   2.0483351  12.8979492
  30.2573395   2.2170725  13.1854563  31.6182213   1.7949293  13.6961250
  85.0540695  14.8970499  47.3081436  84.5539017  14.2515612  46.8087349
  85.9691391  14.6898928  47.1184998   3.3955245  41.1885681  73.3214340
   3.3250864  41.6969795  72.5134811   2.9635322  40.3583794  73.1204453
  75.9055862  17.6108074  19.4994564  75.2536697  17.3230534  20.1385460
  76.7253799  17.2190094  19.8005619  38.0476532  67.8686066  29.0763569
  37.6050224  68.6394730  29.4314137  38.9608498  67.9723663  29.3438206
  61.5078316  65.6473846   8.2590036  60.7019310  65.2040710   7.9939899
  62.1919785  64.9871902   8.1479750  41.9005928  35.5326424  35.9375343
  42.3228455  36.3682098  36.1369362  41.0528259  35.7755089  35.5653267
  79.1287613  61.3624382  70.4704208  79.0971451  61.9850731  71.1967545
  79.9682312  60.9146194  70.5752106  58.3096886   3.6234605  18.5263443
  58.3826637   3.8688049  17.6040039  57.4195671   3.8759432  18.7716408
  82.2368546  27.6828499  65.8965302  81.7572403  28.4595375  66.1845627
  82.2148132  27.0942516  66.6510468  39.0342484  39.7475853  43.4653893
  38.0832596  39.7256203  43.5720062  39.2618790  38.8679695  43.1642380
  72.8669662  53.4447060  43.0378342  73.5159531  53.4887886  42.3356171
  72.3094559  52.7030640  42.8025093  60.5524559  31.2742615  85.1178970
  61.0826607  30.5900002  85.5264359  59.7000122  31.2054768  85.5478287
  83.6668243  17.3224640  73.3226089  84.2264328  18.0944710  73.4067230
  83.7891922  17.0353813  72.4177170  69.3080139  38.4816284   3.6903906
  69.4389496  38.5626564   4.6351242  70.1156006  38.8231735   3.3064942
  51.7479858  58.3210030  56.0707283  50.8042717  58.3581352  56.2264900
  52.1094589  57.9524612  56.8767967  52.3872147  65.1100082  39.1793747
  52.3959579  65.8948364  38.6314621  52.3086166  64.3855057  38.5587692
  52.3805885  17.5563774  33.7807503  52.2228775  17.1252823  32.9407997
  51.5324745  17.9290581  34.0216675  22.3076324  50.2261391  82.1524277
  21.5625553  50.1841316  82.7518692  22.1041965  50.9566422  81.5682983
  37.7132835  55.3700752  33.3520889  37.9680595  54.7059631  32.7115593
  36.8065567  55.5816383  33.1300011  56.0293770  47.4553795  62.2667694
  56.8862839  47.3897667  61.8452950  55.4236755  47.0579948  61.6411171
  60.0550041  20.7539444  79.2786026  59.3020401  20.5529575  78.7228317
  60.5651245  21.3855629  78.7715836  86.4433975  50.2257690  57.2354469
  86.0832520  49.3993607  57.5572739  87.1589432  49.9654617  56.6553879
  32.4003487  48.9185982  13.6010237  33.2224655  48.6281853  13.2060366
  32.0895386  48.1587448  14.0932169  69.5821762  47.9684219  40.0849648
  70.2780838  47.6953468  40.6827660  68.8354111  48.1524048  40.6548157
  48.2066917  67.1731796  28.2157097  47.4347954  67.5737534  27.8157730
  48.6926918  67.9090195  28.5879612  83.3511810  16.4948368  36.4982414
  83.7898483  17.2096539  36.9595833  83.6497116  15.7026262  36.9449120
  48.5938683  47.0524330  28.5190067  47.7532120  46.9335709  28.9610500
  48.3630791  47.2066917  27.6029434  86.0929565  17.4525414  48.0692406
  85.8544235  17.9858723  47.3110237  85.5969162  16.6415939  47.9572372
  51.7155609  39.1915283  61.4911461  52.5669403  39.3749313  61.0939674
  51.7159386  38.2447510  61.6319962  51.9257660  50.1811714  39.8581619
  51.4077721  49.4307709  40.1493950  52.0538254  50.0345612  38.9209633
  77.3756714  63.0650940  10.7966528  76.6263123  62.4786530  10.9004593
  77.0361710  63.9303360  11.0254087  70.9016724  55.0178223  14.5308046
  71.7800446  55.2326317  14.8447218  70.5492096  54.4236145  15.1933155
   9.9294176  58.1445541  41.1095772  10.7659531  57.8587532  41.4766731
  10.1451616  58.9275475  40.6030121  62.0511208  15.0846148  61.9328804
  61.5242195  15.6835642  61.4038582  62.8530464  15.5725965  62.1200218
  64.4763260  26.2012730  48.9969368  65.1770859  26.8531704  48.9825249
  64.8702164  25.4354191  49.4147339  75.8978271  53.7002869  66.4433975
  76.6313095  54.2730484  66.2194061  75.6889191  53.2479248  65.6261139
   4.0362048  38.0655365  26.0463314   4.9233932  38.4245529  26.0615940
   4.1180329  37.2070885  26.4617920  43.3032722  43.5746880  58.3040047
  42.7938004  42.9392395  57.8011322  43.5131111  43.1211624  59.1204071
  41.6325150  68.5856247  60.2343407  42.1168213  69.3588104  60.5239410
  41.3395348  68.1690598  61.0448151  28.6884117  55.2956276  78.4132919
  27.8526726  55.3345718  78.8783188  29.3248634  55.6496239  79.0344543
  80.2602234  17.9925213  37.2775803  79.4154282  18.4398212  37.2278214
  80.8398514  18.5128040  36.7211876  19.4604568  12.5255833  78.3190918
  20.4004192  12.6208286  78.4728241  19.3724289  11.6720715  77.8948288
  86.2683411  57.0846481  70.6217194  86.6194611  57.2273903  71.5006790
  85.9920502  56.1681900  70.6200867  54.0403976  60.3944550   3.9049001
  54.2398796  61.2115974   4.3617597  54.1790771  60.5972710   2.9797704
  67.1085739  65.4377441  57.1620064  66.9977646  65.1038437  56.2718048
  68.0327225  65.2873535  57.3609200  44.9953041  52.3388405  47.8640022
  45.7427521  51.7558403  47.7311020  44.9230652  52.4227333  48.8147774
  34.9790993  31.8835907   8.5447140  34.6001167  31.8978348   9.4235773
  35.7658501  31.3453846   8.6318388  80.8324280  47.8636551  56.2511406
  80.3054581  48.5041924  55.7733917  81.6130905  47.7445221  55.7102051
  51.9676666  28.1159153  19.6224079  52.1909752  27.4264565  18.9970970
  52.2348976  27.7646484  20.4717770  14.9147615  56.3253441  53.0829163
  14.4024525  55.5958214  52.7342491  14.6897879  56.3531227  54.0128899
  80.6390839  12.0374632  76.6418991  81.2139053  12.6977911  77.0289154
  81.2206955  11.3065767  76.4327087  81.7819138  62.8320732  27.2995396
  81.1008148  62.1893234  27.1015358  81.4265366  63.6627350  26.9834042
  35.2251205  62.4622765   1.3104985  36.0318642  62.3765640   0.8025118
  34.8564301  63.3014565   1.0346879  27.0175095  38.1920357  63.4236908
  26.9458828  37.2884407  63.1160851  27.0913868  38.1160469  64.3750076
  50.0992203   0.3880298  26.1035156  50.9558868   0.0034262  26.2890930
  50.1825218   1.3015732  26.3768864  48.0418091  60.9329796  53.8347473
  47.2103729  60.4632263  53.9001999  48.6781044  60.2608109  53.5907097
  55.1418991  36.6921654  28.2422161  54.2733612  36.4103508  27.9550591
  55.7102928  36.5184708  27.4918900  30.8466511  56.0860176  39.1253128
  30.9691658  56.4560547  38.2510719  31.6111889  56.3814240  39.6197281
  59.8462029  25.3425255  62.2718163  58.9055214  25.5029964  62.3466492
  60.1674805  25.3770142  63.1728249  74.2469635  14.1302986  65.5197525
  73.8257217  14.9748983  65.6792374  74.6096954  14.2064171  64.6372147
  75.0066223  24.1507263  20.5373173  74.8816528  23.6972637  21.3709755
  75.3853683  24.9959736  20.7788544  36.8045959  67.4862900  57.2861671
  36.8690605  67.7084274  56.3573341  37.7094383  67.3359833  57.5598450
  83.9477539  48.4794922  81.0964661  83.4702301  47.7443123  81.4808044
  84.3772507  48.9013977  81.8406143  63.4407845  46.9327087  22.8250999
  63.8843918  46.3863144  23.4738655  63.2146683  46.3287964  22.1177139
   0.4024239  65.6539459  52.3618927   0.8344348  65.5768509  53.2125702
  -0.5233952  65.7737350  52.5734138  50.4277763  52.3493195  80.7724380
  51.0616417  52.8054962  81.3259201  49.7870903  51.9913826  81.3869553
  45.4400864   6.6436930  75.3453217  46.0644722   6.1615691  74.8031693
  44.8115730   7.0068703  74.7213821   2.3396800  48.0119743   5.6133389
   1.8123407  47.5967598   6.2957926   3.0231304  47.3715553   5.4158745
  56.4121895  25.5093193  12.8291302  57.0546417  25.0229073  13.3457470
  55.8034439  24.8414364  12.5135479  24.4854088  17.3329620  87.2316437
  23.5384159  17.2329769  87.3288116  24.6195850  17.4398975  86.2899475
  27.2064476   5.9984345  21.7963810  26.5060616   5.5900278  21.2875633
  27.0888557   5.6570244  22.6828575  21.6422939  25.2038784  82.6667099
  22.1961155  25.0360622  81.9042511  22.2097015  25.6768970  83.2754288
  34.8770103  67.0217972  46.5576553  35.1632500  67.9351273  46.5689468
  33.9510536  67.0580139  46.7974930  47.2195015   5.6963692  37.5962296
  46.3344803   5.7891836  37.9488716  47.6065636   6.5669551  37.6883812
  33.4504890  31.9848671   3.8295343  33.5315361  32.7678566   3.2849302
  34.0525246  32.1364899   4.5580897  33.3230667  41.5599289   9.3589678
  33.3457336  42.2748260   8.7228546  33.5772781  40.7851295   8.8576756
  57.2890511  59.9659996  25.6465416  57.8044662  59.3252487  25.1566238
  57.9298248  60.6120148  25.9437122  57.7545242   8.5255518  45.5692863
  56.9395218   8.7615347  46.0123634  58.4068184   8.4929533  46.2690544
  46.0073662  17.2951717  10.6259708  46.7891502  16.7811890  10.8281307
  46.3441048  18.1570244  10.3809261  69.9289627  29.3451023  24.6087914
  69.5607986  28.6587696  25.1652393  69.9042587  28.9764748  23.7257652
  65.2541656  14.3820524  26.8170338  65.0218201  13.6753044  26.2147446
  64.4525681  14.5468597  27.3135242  67.5510788  17.0538616  76.3247070
  68.3019943  16.4767609  76.4636459  66.8128891  16.5840073  76.7127075
  42.2922173   3.0836170  66.3353271  42.8593025   3.1398001  65.5662384
  42.3227463   2.1610200  66.5885315  11.1617126  46.6975861  84.4946899
  11.9033766  46.4081116  85.0260773  11.4220057  46.5035248  83.5942383
  31.9541378   0.8914437  19.2334785  32.5686455   0.9362463  19.9660110
  32.2731743   1.5465850  18.6128044  63.1482048  11.9971123  63.5071602
  62.3808060  12.3608837  63.0655746  63.5771599  12.7547150  63.9049911
   8.5144434  62.4984398  21.8834667   9.0441599  63.2873306  21.7682152
   8.6711178  62.2351074  22.7902966  19.2210045  58.8974495  35.9019241
  20.0734444  58.4624977  35.8821030  19.4284420  59.8265305  36.0019493
   1.9590764  36.3944855  65.1675262   2.8472903  36.5011444  64.8270416
   1.5526429  35.7566643  64.5808182  48.3555756  44.8388176  45.4167976
  48.3075790  44.4648743  46.2966270  48.8467178  44.1932335  44.9086342
  31.0885315  32.0804443   5.4418321  30.6959114  32.7663574   4.9018297
  31.9767361  31.9841251   5.0982523   7.8274980  33.9879112  57.8965492
   8.1685171  33.8773193  58.7840805   8.1098375  33.2002907  57.4316101
  18.0337639  12.7138948  15.6097679  17.3220921  13.2777786  15.3067961
  18.7732811  13.3084078  15.7358618  81.5332642  47.0135956  73.0833817
  81.3791428  46.9856911  74.0276794  81.8069458  47.9146614  72.9118958
  69.1880798  20.2742996  25.0442505  68.7345123  19.4379463  24.9392605
  68.5044098  20.8844509  25.3209171  60.5470963  17.0470524  23.0650368
  61.0410652  16.5535908  22.4102669  60.7457924  17.9637508  22.8742123
  55.2908859  11.9272413  49.7114372  55.0015450  12.0522470  50.6152534
  55.7698898  12.7286158  49.5002861  79.4413528  17.2223320  21.6933174
  79.5164566  17.1183777  22.6418877  80.0306396  17.9471283  21.4843998
  63.2139168  32.7769432  48.5404129  63.3584175  32.3314743  47.7056007
  63.2590790  32.0798607  49.1948318  60.6352577  66.8965149  45.7443085
  61.0995064  66.3558578  45.1052513  59.7093773  66.7719269  45.5358505
  45.1049232  38.1519623  62.4890404  45.4241333  37.8362503  63.3344193
  45.2264099  39.1006927  62.5262871  20.4481049  58.2471275   4.9030190
  19.6154709  58.3631592   5.3607163  21.1134357  58.3917694   5.5758085
  27.6695786  65.0798416  44.2048874  28.3800621  65.7086411  44.0782051
  27.5103130  64.7194443  43.3325462   8.8434525  55.3051910  63.0632591
   8.5227528  56.1902122  63.2368164   9.7935381  55.3716660  63.1589127
  39.9548378  67.5643082  50.7199173  39.7312927  66.7066422  50.3584442
  39.4357758  67.6290512  51.5215492  76.8377457  66.1950378  46.2945099
  77.2571106  65.9745560  47.1262283  76.1710815  66.8415756  46.5263939
   5.2828112  46.8120117   2.4499173   6.0780706  46.9988708   1.9510413
   4.7262683  46.3269920   1.8406156  32.4460716  15.6381750   9.0167465
  32.0305214  15.3249474   9.8201370  33.1283798  14.9925900   8.8326006
  22.7726593  65.5002136  25.0424976  23.5312824  64.9263077  25.1490803
  22.7367687  65.6776886  24.1025810  75.0348816  24.0896187  26.6570454
  75.6854248  24.7914371  26.6351357  74.2225113  24.5240784  26.9169102
  81.6155319  37.0398369  34.6602974  80.8411102  36.7662697  35.1518974
  81.8489380  36.2741013  34.1355095  81.0993271  11.6522236  59.8194771
  81.6689453  10.9389038  60.1074867  80.7977448  12.0604687  60.6310310
  35.8223076  18.8843498  15.6079721  36.7408142  19.0668888  15.8061094
  35.8233643  18.6224213  14.6873074  63.1600151  61.5309830  84.0249405
  63.2148972  61.4034386  83.0778656  62.4823837  62.1975212  84.1379852
  86.2660294  42.7187462  21.7728863  86.3781281  41.7771759  21.6420822
  87.1576462  43.0667648  21.7845745  17.6290016   8.4670649   3.6090698
  17.7312908   7.5220251   3.4965115  18.4905510   8.7685871   3.8972504
  75.7441177   7.7846332  18.5674915  75.1213684   7.6155243  17.8605137
  76.6032867   7.7191615  18.1506290  37.4864235  31.7460442  19.9239922
  37.8434486  32.2232246  20.6730328  37.9463654  30.9066410  19.9334393
  68.5071182  24.5096054  69.6569977  69.0030975  25.2902107  69.9037628
  67.7721634  24.8451500  69.1436920  85.0642014  13.2292299  72.7619019
  84.4377594  13.4162407  72.0627365  85.9212570  13.3697481  72.3594742
  54.0529823  32.4265900  82.4575958  54.5805588  32.3022041  83.2465363
  53.9536629  31.5464516  82.0946579  76.3325577  39.0407333   8.0379457
  76.5263672  39.1384926   8.9702082  76.7141266  39.8186417   7.6311307
  76.9036865  49.8759995  32.1658287  76.5880661  49.6287918  31.2966309
  76.8235474  50.8295937  32.1874771  22.3576756  10.2411213  18.5615425
  22.8099728   9.4453201  18.2816143  22.0639019  10.0489960  19.4520569
  82.0219269  27.5465851  48.5092506  81.3464737  27.4236889  47.8422508
  81.5870895  28.0443649  49.2016068   2.4487901  14.1884165   2.0223422
   2.1658649  13.3821554   1.5909165   1.6352965  14.6527309   2.2195027
  14.9000206  63.9983368  83.3108749  14.3730764  63.9921532  84.1099548
  15.7096272  63.5494804  83.5543900  57.3120117   3.6740315  44.9443512
  57.6888618   4.5123911  44.6772003  56.7626648   3.8878217  45.6985016
  75.8842087  46.4172211  44.4960518  76.0211411  45.5008583  44.7363892
  76.1959152  46.9126282  45.2534447  80.7757874  61.0488434  55.2441216
  81.5949860  61.3396492  55.6448441  80.6320419  61.6604919  54.5219994
  52.9825668  49.1114616  31.2568741  52.1665955  49.4860001  30.9250050
  52.7247734  48.6391792  32.0485306  12.9871178  57.9289703  68.1389236
  12.5871944  57.5943413  68.9416199  12.5517960  57.4472466  67.4356003
  62.6217728  25.3568935  61.5949707  62.0201530  25.4172153  62.3370285
  62.0674973  25.4892502  60.8258820  49.1682243  29.8462067  27.8811398
  49.4772987  30.7514362  27.9166985  49.5825081  29.4219799  28.6325607
  67.2165146  16.0587082  45.6221924  66.7939682  15.2945747  46.0143471
  68.1028214  15.7623634  45.4151268  79.4084015  42.7024879  75.3767700
  80.2879715  42.3263359  75.3437576  79.4289017  43.4158936  74.7389145
  59.7326965  13.0775309  37.3690872  60.2255058  12.2569389  37.3685074
  60.1026039  13.5795784  36.6428986  61.7186089  32.2035904  42.5096321
  61.0527344  32.8620377  42.7078400  61.3786736  31.7424736  41.7427864
  63.5395660  58.9987564  15.2034950  62.8638115  59.2218590  14.5633278
  64.3202286  59.4612885  14.8987598  60.8169746  10.9381733  42.2869034
  61.0885277  11.5278788  42.9902802  60.0562782  10.4774590  42.6409035
  84.0044785  37.4018250  73.5202332  83.2346191  36.8936272  73.2647171
  83.6464157  38.1904755  73.9277344  58.3087425  18.7279701  81.0989380
  58.4769363  17.8859329  80.6759491  59.1754951  19.0472755  81.3499603
  82.7592392  46.2883492  22.0864220  82.4713745  46.9925804  21.5055370
  82.2533340  45.5253830  21.8068275  44.2298737  59.9538422  -0.1542167
  43.9691582  60.3612480   0.6717858  44.9483604  60.4994431  -0.4740982
  23.8950500  61.6978989  63.7833405  23.3262005  61.7358208  63.0144424
  23.8624439  62.5818062  64.1492310  25.2569237  61.3022118  82.2308044
  24.6933804  61.0873222  82.9740906  26.1464748  61.1697693  82.5585098
  40.4630318  32.4264450  68.8521500  39.8020363  32.9198265  69.3378296
  40.2948914  32.6399918  67.9343491   3.6763196  30.4677715  77.7419662
   4.2906704  30.2700100  77.0350723   3.4525490  31.3895969  77.6139221
   0.1704811  63.5909805  23.8157654  -0.4968638  63.5101471  24.4971962
   0.5880386  62.7301636  23.7861385  46.0033302  14.9727859  66.5015259
  45.5974922  15.0908585  65.6427002  45.6385193  14.1501608  66.8277740
  75.8493042  33.5051193  17.3560619  76.4312363  33.9581757  17.9662457
  74.9887009  33.5423546  17.7734489  83.4814224  30.3658123  58.1149025
  83.5321960  30.0775261  59.0262413  84.3625412  30.6812553  57.9140282
  36.1002274  37.4681549  46.0728989  35.4132309  37.4720230  46.7394218
  36.9174576  37.4681587  46.5712662  77.2819519  44.1797752  84.5848999
  77.7937012  44.1545410  85.3934174  76.7115173  44.9417343  84.6861801
  11.4573917  59.6774445  43.8293343  12.3217487  60.0859375  43.7818718
  11.5845623  58.8040733  43.4588165  22.7702122  55.1589546  82.9480362
  22.2118378  55.9225273  83.0943375  22.8073654  55.0683174  81.9958572
  79.7768021  43.7932510   0.8799644  79.3782349  42.9277267   0.7892033
  79.0509644  44.3665314   1.1264336  73.7102737  57.2860146  43.8666801
  72.9387665  56.9004211  44.2817993  73.9153671  56.6924858  43.1442604
  14.5069523  56.5429535  55.7425766  14.0307398  56.8749161  56.5036621
  14.8482542  55.6944351  56.0249977  74.4923172  45.4106598  14.4619026
  74.0949478  45.5590858  15.3199797  74.5280304  44.4579849  14.3760509
  62.8126030  55.4103851  48.9114838  62.6066093  56.3399506  49.0100250
  62.2863312  55.1263618  48.1640854  69.0121841  65.6521835  52.8511047
  68.4653549  65.2560959  53.5295753  68.5183258  65.5252151  52.0410347
  55.6048164  39.9621468  80.0054398  54.7214775  39.8141747  79.6677322
  55.6952400  39.3347664  80.7226944  55.3815002  31.2160835  17.7299137
  55.4990349  30.3469315  17.3465176  54.7942276  31.0730419  18.4721279
  70.3225403  48.1179161   6.6686654  69.3665695  48.0697441   6.6747961
  70.6084595  47.2308922   6.8870029  64.2296448   8.6228046   1.8485264
  65.0638885   8.1767921   1.7024280  64.1093292   9.1667480   1.0701429
  59.2776566  45.3967781  68.3823471  59.7546692  46.1112785  68.8044662
  58.3723831  45.7049446  68.3406067  10.3475199   2.7156928  87.2336655
  10.7267942   3.4308982  87.7444077   9.4196777   2.9393215  87.1606445
  62.0873413  13.0731306  68.9152374  61.4003143  13.7277565  68.7899857
  61.8356819  12.3491020  68.3419342   6.5465560   7.9444852  86.0420685
   6.2592564   8.7786455  85.6707611   7.4619994   7.8655329  85.7738113
  27.3589916  68.2227325   2.6479840  27.4418850  67.7212677   3.4590931
  28.1855125  68.7001419   2.5760195  23.7162628   4.4592128  73.1197815
  24.5195427   3.9445798  73.0415115  23.4551353   4.6345968  72.2157440
  64.5843811  65.4297867  18.4705868  64.4354706  65.7348709  19.3655643
  65.4618683  65.7444000  18.2531796  65.8397064  45.7330742  17.2330036
  65.9669113  44.8072433  17.4401035  65.6093369  46.1362801  18.0700130
  54.2672539  49.4530449  22.6710091  54.7658997  50.0479507  23.2310753
  53.9547501  50.0047150  21.9539089  67.8424606   0.6664008  66.7069321
  67.0141830   0.6755994  67.1866226  67.5856628   0.6071068  65.7867279
  85.5339355  68.6713333  10.0615053  85.8636246  67.7738266  10.0166798
  84.5904236  68.5737762  10.1899605   0.6051778  28.4602108  56.2220840
   1.4654171  28.8771954  56.2704887   0.1743606  28.8852615  55.4804916
  69.6996078  70.6297760  63.4556274  69.7067871  69.7864227  63.0029297
  70.6212540  70.8100586  63.6408234  16.2205524  13.6589108  65.3070450
  15.3184605  13.5854988  64.9954758  16.6931782  14.0628920  64.5792694
  61.9483795  53.0514221  45.2822533  61.4827995  52.2886848  44.9391823
  61.4590988  53.2975731  46.0672646  86.4606018   1.1439396   3.6424787
  86.5370636   0.8201634   2.7449517  86.6664200   0.3855519   4.1890311
  25.2974396  16.9515877  15.4491415  25.1301727  17.8940067  15.4591360
  24.7634792  16.6212082  14.7266684  62.9491615  24.1397591  65.0046844
  62.4493599  23.5284786  65.5457611  63.8197365  23.7469311  64.9413376
  25.1467152  45.5989723  66.6632843  25.9283428  45.0631218  66.5285568
  24.4910278  45.2170982  66.0797806  53.0945816  21.6180668  44.7561874
  52.9550934  22.0380745  43.9074440  53.6074371  22.2530212  45.2562332
  14.4044552  44.0591583  52.0919037  13.4490499  44.0888329  52.0413857
  14.6776085  44.9719734  52.0003128   1.1934371  19.6739845  47.2370415
   0.6304485  18.9106350  47.3657761   1.1724485  20.1315441  48.0775375
   8.5277615  49.5532913  68.2188568   9.3879604  49.5703621  68.6383820
   8.1568308  50.4173660  68.3977890  36.4607849  63.1985168  84.3302231
  36.2626381  64.1349564  84.3374710  37.0211296  63.0663490  85.0949326
  20.7185459  24.4251175  58.6673470  21.5230236  24.6471462  58.1985741
  20.8612957  24.7512722  59.5558739   4.0806370  18.5719967  39.4939575
   3.7529392  18.3406410  40.3630486   4.2757030  19.5072670  39.5526886
  62.8553467  40.2270813  21.3125935  63.2573586  39.3586197  21.3323765
  61.9547729  40.0807838  21.6020756   6.0092611  19.2947807  72.8133469
   6.8562670  19.4184933  73.2417221   5.4340301  19.9362736  73.2302704
  48.5232430  57.7842178  80.7090607  48.7246475  58.0668907  79.8170090
  47.5866241  57.9547119  80.8086243   2.5377913  38.4193077  53.0969887
   3.2996166  38.6421928  53.6319466   2.8585939  38.4568634  52.1959305
  12.6978998  28.5515156   6.6436610  11.8150053  28.2690029   6.4050908
  13.2174788  27.7476673   6.6336970   0.6221320  45.2043037  72.3794022
  -0.0265210  44.9577866  71.7200699   0.3573678  44.7273331  73.1659317
  26.9015217   0.5292400  57.1857109  26.1331558   0.9536725  56.8040009
  26.5432510  -0.0735125  57.8372955  62.0189056  54.1678047  24.8254051
  62.6595840  54.8773499  24.7773228  62.0358429  53.7704010  23.9547634
  15.6458530  42.3840866   0.3382336  15.7458706  41.8494949  -0.4494470
  16.4846916  42.3015099   0.7918468  55.7393303   0.5429232  20.2887421
  56.5075150   0.0372543  20.5541153  55.0174751  -0.0850188  20.3178558
  34.3550644  37.7201843  64.2538223  34.2203369  37.1125488  63.5265923
  35.3005486  37.7095947  64.4027557  81.1893692  38.5700226  79.2176514
  81.2564850  38.6949997  80.1642838  81.3326187  39.4421844  78.8501663
  68.7675323  69.9328308  51.2878647  68.3255081  69.9635544  50.4393959
  68.3013077  69.2544479  51.7763939   9.1281137  43.0701828  56.4486694
   8.5583372  42.4604874  56.9175568   8.5869570  43.8480988  56.3136559
  72.1904907  60.1018639  65.0238113  72.1309433  59.2305336  64.6320648
  72.5293732  59.9455261  65.9052582  57.1213799   9.7790689  48.2441254
  56.6319695   9.8080397  49.0662384  56.6135674  10.3248386  47.6437187
  23.3867817  12.9262810   5.7851582  23.1952324  12.2685204   5.1166587
  23.5282459  13.7345495   5.2922878  60.4287033  17.7833290  62.9896011
  59.5840492  17.3351707  62.9454689  60.6480865  17.9712811  62.0770378
   3.5657120   3.6248357  75.7341766   4.0190077   3.2195988  76.4734573
   4.1642795   4.3076491  75.4313278  70.8230896  63.5491257  43.4501266
  70.4360123  64.3526382  43.7976456  70.4027710  63.4296570  42.5984879
  18.8726902   8.5325928  27.8498707  19.0198956   8.4481916  26.9078293
  18.8681297   9.4766388  28.0079441  62.1545334  22.0593357  31.0866032
  61.4677773  21.8965073  30.4400101  62.9626961  21.7884369  30.6510296
  74.8426971  60.4686165  66.7809296  75.4728775  60.0873833  66.1695709
  74.6223907  59.7518158  67.3758240  53.4408379  65.1817627  35.2127342
  52.5079689  65.2705383  35.4079323  53.8181152  64.8103409  36.0101929
  78.3200226  69.7273331  43.6266975  78.6141052  70.5206451  43.1790314
  78.8600082  69.0291519  43.2563057  63.1243782  35.8323021   0.6842606
  62.6243706  36.5511017   0.2975454  63.9981689  36.1968842   0.8249902
   8.0590868  49.2245483  50.4837570   8.1090069  48.5638351  49.7929611
   8.1123323  50.0602875  50.0201378  48.7649879  38.1307983  29.2114124
  49.2160301  37.4800873  29.7493401  49.4593277  38.7190475  28.9146118
  55.4997635   5.9841652  75.7957840  55.8241158   5.9828801  74.8952179
  55.6980247   5.1067572  76.1230164  18.3916187  61.2253036   4.2022181
  18.9262066  61.9080696   3.7969027  18.4057980  61.4330406   5.1364961
  86.3912735  30.8632603  31.2094669  86.8876419  30.2334576  30.6867867
  86.2055969  30.4020939  32.0274429  12.4784851  10.0518866  72.3885345
  12.8577595  10.4541426  71.6071396  12.7645950   9.1392183  72.3509674
  19.6933079  26.0162296  26.3026981  18.9348068  26.2125664  25.7528229
  20.2450600  26.7956276  26.2368279  47.8854752  10.1790867   9.3184366
  48.5725746  10.6630249   8.8602591  47.3158951   9.8539505   8.6212301
  50.1099510  33.0703697  32.2183495  50.7426338  33.4265556  32.8421059
  50.6187973  32.9170074  31.4222412  52.8598976  27.9574776  28.1023426
  53.0039406  27.0181713  27.9874935  53.7374420  28.3220558  28.2173729
  86.1394501  13.1184778  60.8240318  85.3373718  12.6811142  61.1097183
  85.8640442  13.6688614  60.0909157  31.8542461  30.9097004   1.9861525
  32.5159264  30.2780399   1.7043447  32.0221672  31.0316696   2.9205813
  43.3244705  49.6175041  29.2029762  43.6783066  49.6192398  28.3135777
  43.2800407  48.6915054  29.4412651  78.3582001   3.3157511  20.6204586
  77.4042206   3.3113604  20.5421829  78.5434723   4.0104284  21.2523842
  49.2900467   4.1178503  39.9301071  49.6749763   3.2629282  40.1228981
  48.4004211   3.9195333  39.6377602   0.3974353  23.1770821  85.6901627
  -0.1260378  23.7789021  86.2193298   0.8441043  23.7403660  85.0581589
  66.4673080  42.1625137  64.9303818  66.8997955  41.3662529  64.6219025
  67.1646194  42.8175583  64.9603653   7.8743591  17.5319653  29.4791965
   7.8356967  18.2335625  30.1291943   8.2947531  16.8040981  29.9371376
  44.9592705  15.6708870   8.5989265  45.2302094  16.1655483   9.3723183
  45.4585915  14.8557730   8.6489115  13.7374268  41.3524971  45.1114540
  14.1557693  41.6679344  45.9125290  13.4693003  40.4571037  45.3178635
  38.9679489   6.0540547  18.9480457  38.9233208   5.2848644  18.3800793
  38.0556679   6.2424703  19.1682129  79.3635559  42.6145477  14.0049276
  79.9668350  41.9302864  13.7149830  79.7334900  42.9256592  14.8311195
  51.8189049  33.7666359   3.9147689  52.1413651  34.4799919   4.4655657
  51.6863708  33.0374451   4.5205278   5.7438998  34.9851532  20.2672729
   4.8352108  34.7055702  20.3784027   6.1097298  34.9676743  21.1516342
  58.4408493  57.4289780   3.9557278  59.0972366  57.8208122   3.3796604
  58.5957336  57.8369370   4.8076735  72.7251053  29.4648571  66.6334229
  72.9753723  30.3430157  66.9205399  71.7681885  29.4689980  66.6563568
  61.5809021  62.9372330  44.8093834  62.0753708  62.8620338  45.6255188
  61.0707321  62.1286469  44.7630653  67.5718765  24.1194382  22.3377399
  67.4021225  23.8824139  21.4260178  68.3185349  23.5767937  22.5912533
  31.3955536   4.7986717  88.2111435  31.9242859   4.0295362  87.9987640
  30.6041698   4.6988292  87.6820145  59.5006371  65.3489761  74.5107040
  60.1829453  65.5115662  73.8593597  59.2692223  66.2184601  74.8373108
   7.2044320  47.0216408  22.7948151   6.8150845  47.3455009  21.9825611
   7.9623251  47.5880852  22.9396286  42.5964317   9.7412453  21.2546749
  43.1616631   9.9891567  20.5230427  43.0995750   9.0826645  21.7335796
  57.9292297  67.8415070  44.8339005  57.0850182  68.1224289  45.1869164
  58.4632492  68.6358795  44.8293839   2.6095374  69.8443756  47.3874931
   2.9897094  68.9660416  47.4023857   2.0735464  69.8599548  46.5945854
  32.3479805   6.7715964   5.9247179  31.8710136   6.8360476   6.7521119
  33.2694740   6.8448324   6.1731381  23.0914211  47.0104752  47.3943748
  22.9266891  47.8704262  47.7811279  23.6195927  46.5513535  48.0474243
  36.0095406  49.7592201  42.5925179  36.8636971  49.3787575  42.3878288
  35.4819679  49.0177155  42.8892860  36.5277138   1.0165970  19.3059006
  36.8949318   0.2291653  19.7075634  36.0797958   0.6989360  18.5218754
   3.7201560  26.2573662   5.5975742   4.4647937  26.3160057   4.9989867
   4.1136065  26.0865631   6.4532933  60.3394470  19.7649193  50.8941574
  59.8371620  19.4886150  51.6607094  60.0161858  20.6448059  50.7004204
   3.3024189  25.4025345  60.8974533   2.4497268  24.9723110  60.9611320
   3.5952153  25.2228680  60.0040207  81.2621155  54.4085503  64.4121704
  80.9726257  54.0795517  63.5611839  81.8492432  53.7294769  64.7443848
   7.5287371  27.3224430  72.6241760   6.8449426  26.8168831  72.1847839
   7.9018416  26.7156048  73.2635345  76.4831543  33.7731171  41.3288689
  76.5515213  33.1063042  40.6455536  75.7559891  34.3291321  41.0490379
  41.3666992  65.6150284  89.1197968  40.8579445  65.8872910  88.3560791
  42.2606277  65.8962402  88.9247437  52.8511391  42.5236626  43.7831230
  52.3868675  42.5650520  42.9470749  53.2910767  41.6736374  43.7709541
  38.6326714  53.4524956  31.6314011  38.1096497  53.3631935  30.8347168
  38.7806740  52.5528374  31.9228516  41.1062202   9.8178673  64.9982758
  40.6496964  10.1744022  65.7603149  41.5718613  10.5667477  64.6259995
  58.0921593  48.6387711  32.6482315  57.3384132  48.0490456  32.6302719
  58.1837769  48.8823776  33.5693703  39.3750496  38.9923668  31.9030800
  38.7302017  39.6837997  31.7536774  38.9021263  38.3280449  32.4043312
  13.1908751  14.2332668  84.8812256  13.6380529  14.7970839  85.5123978
  12.7298794  14.8403568  84.3022995  41.0137901  10.1699190  16.5438862
  40.5623665  10.1222258  15.7011681  41.8143082   9.6609659  16.4159203
  86.6613159   5.3551784  38.7262230  87.0518036   5.2104611  39.5880852
  86.4014282   4.4823799  38.4314117  77.4623337  51.3022308  75.1289291
  78.0606537  51.8760033  74.6503601  76.7295227  51.8685570  75.3707886
  38.6063461  18.8498631  18.5587902  39.4492378  18.5153370  18.8651543
  38.7882729  19.1920280  17.6835442  54.1994476  17.5963955  16.1742706
  53.6438484  18.3417511  16.4022694  55.0789032  17.8622208  16.4428368
  18.6089020  18.0896683  80.7422638  18.9810238  17.3629475  81.2418976
  18.3292847  17.6942997  79.9165955  82.2842255   0.8223468  44.8189583
  81.5197296   0.6666003  44.2644119  81.9300995   0.8709850  45.7069130
  47.3465004  46.9106674  70.7293396  47.9364471  46.8558464  71.4811249
  47.9281502  46.9304733  69.9693909  54.0398445  35.1969833  39.2399178
  54.1334152  34.6600494  40.0267982  53.6756630  36.0238190  39.5560684
  40.6502380  26.8715363  79.6433182  39.7768021  26.5298443  79.8345947
  40.5215492  27.4511738  78.8925247  80.3187256  53.0079193  18.3320866
  79.9609985  53.0635490  19.2181835  80.4679260  53.9182053  18.0764446
  78.4376755  67.0770416  54.4324684  78.6788025  67.8264694  54.9769402
  79.1157303  67.0431976  53.7576866   1.9306122  39.6857910  25.5144672
   1.9262699  39.8587646  24.5730362   2.7502780  39.2158432  25.6678638
  74.8985672   8.0908680  -0.1351922  74.8339844   7.8881679   0.7980672
  75.2298660   7.2856512  -0.5328097  60.2427521  51.5285721  29.6615448
  60.8341331  50.8863792  29.2689991  60.6714668  52.3713493  29.5126801
  56.5296898  39.4350929   0.4646545  56.3665962  38.5107651   0.6524206
  57.4760590  39.5367393   0.5660715  64.5498199  54.8932762   0.3304829
  65.0344620  55.5070915   0.8823702  64.5778961  54.0657692   0.8107736
  75.8783798  54.0690918  45.0988541  75.8017044  54.7521935  44.4327278
  75.7629929  53.2503090  44.6166534  82.0168915  66.0941925  55.6001472
  81.1856766  65.6219330  55.6480026  82.6299973  65.4624557  55.2243309
  34.4338799   0.8374359  15.8694754  34.8482666   0.1768928  16.4246330
  34.5601158   0.5140068  14.9774609  17.9352646  53.2098694   3.6826613
  18.5567398  52.9611397   4.3668652  18.4318314  53.1315994   2.8680902
  82.6855164  45.4836617  15.2592392  83.0809174  46.1837273  15.7786598
  83.3136978  45.3239822  14.5548792  59.8345795  53.6948586  38.5417480
  59.5230331  53.7989159  39.4408302  60.3816338  52.9098015  38.5671806
  83.8707733   0.2971084  21.1790218  83.9275970   0.8027171  20.3682442
  83.0832367   0.6265366  21.6120262   6.5160022  53.9722137  47.4936180
   7.2930021  53.5512009  47.1258545   6.7371335  54.1219292  48.4128113
  74.0105667  15.2824020  29.3692646  74.2090302  15.3511305  28.4353905
  74.8124771  14.9348164  29.7595978  86.1908951  47.4839783  79.1847992
  86.6054764  47.6443825  80.0325165  85.2584229  47.6319199  79.3423843
  44.5612755  45.6395454  63.4460640  45.5021782  45.6223412  63.2710228
  44.2714577  46.4893990  63.1144295  65.5182114  69.0743408  67.7630463
  65.8454285  69.4251633  66.9347458  65.7474289  68.1453629  67.7369156
  69.1813507   3.0715406  22.4507332  69.7286682   2.9566653  21.6738949
  68.3427887   3.3819587  22.1091461  46.8564758  19.7736626  10.4432297
  46.5246086  20.3246384   9.7343426  46.4049339  20.0915279  11.2250881
  12.9586287  40.3283272  53.9947853  13.8306017  40.6343155  53.7452583
  12.4362125  41.1270943  54.0674934  20.3219376  53.4119301  80.6957169
  21.2096100  53.0586853  80.7547684  20.3169041  53.9118500  79.8794556
  16.2196789  33.0351448  11.8251667  15.9855499  32.3675270  12.4699163
  16.7349548  32.5648804  11.1697512  78.6349564  11.5935287   6.5821977
  78.8118744  12.4347773   6.1612096  79.4141769  11.0673504   6.4027991
   0.5506061  58.3574409  44.3634224   0.8479114  58.8951797  45.0973701
   0.1233537  58.9760132  43.7709236  37.8325386  64.1977463  74.0827179
  37.9387779  64.5102310  73.1842270  37.3048630  64.8723755  74.5101166
  84.4632568  20.5347767  80.7938385  85.3572693  20.7763290  80.5516968
  83.9458694  21.3196068  80.6133118  21.3532162  70.3526230   1.4354265
  22.2576542  70.6079407   1.6171819  20.8388309  71.1348267   1.6348954
   8.5066996  67.3152237  14.3134518   8.8253498  67.9654160  13.6874027
   9.2932940  66.8478241  14.5945921  84.3419647  30.9329109   6.4745822
  84.3128510  30.0856590   6.0301189  83.4471741  31.0713577   6.7850904
  65.6999588  62.8969307  27.7899914  66.2313156  62.4582825  27.1255493
  66.1518097  62.7178421  28.6146069  75.7309113  13.3527327  63.3361359
  75.8482361  13.3261023  62.3865242  76.6207275  13.3296223  63.6881523
  28.9346046   3.2150071  74.1926346  28.7927036   3.2352035  75.1390381
  29.8781986   3.3381896  74.0892410  59.3133850   8.1045589  14.8630323
  59.1207848   7.1769404  14.7264242  60.2362976   8.1950235  14.6257896
  82.5184708  33.1060905  66.6472244  82.9785538  32.6025848  67.3188171
  83.0710602  33.8743019  66.5032425  56.4557304  19.1611462  79.0153198
  57.1811714  19.1362362  79.6392975  56.3524323  20.0892334  78.8050461
  30.5023499   2.8744130  86.0962830  29.8141499   2.7429831  86.7484665
  30.1283760   2.5373230  85.2821884  68.7262344  36.1444740  75.7882690
  68.2567368  36.5789986  76.5003052  68.3368759  36.5030441  74.9907379
  46.2502022  43.9677124  11.5722885  45.9122620  43.0964928  11.3649101
  47.1998215  43.8535461  11.6099548  71.8407059  64.9031982  27.6260948
  71.5870285  64.5588226  28.4824142  72.3013535  65.7188644  27.8228588
  42.0649071  32.8944016  82.5594940  42.4501190  33.4537964  83.2339706
  41.6954994  32.1556549  83.0432587  66.3359833  32.3742065  60.4438171
  66.7035522  31.7593994  61.0787430  65.8757172  33.0224457  60.9768906
  69.1822281   3.8628566  51.1738396  68.6595993   4.5126271  50.7038536
  69.2481079   3.1247642  50.5679436  58.1665039  27.2138405  69.3898697
  57.9590874  27.1213932  70.3197479  59.1230812  27.2069550  69.3560104
  73.8730392  71.7727585  77.6529083  74.3040009  71.2557373  76.9723282
  73.5747528  71.1258850  78.2922897  40.0772705  31.9837055  22.3769245
  40.9803696  31.8025742  22.6373806  39.7982788  31.1934299  21.9144745
  26.4681225  42.3685532  12.7520514  25.7863998  42.2839012  12.0854769
  25.9913445  42.3814850  13.5819597  52.0704727  27.3862801  12.9665928
  52.1197281  26.9257450  12.1289101  51.5159950  28.1462498  12.7898655
  46.3718338   7.5748634  20.7328987  46.2332649   7.8350291  21.6435833
  45.4905396   7.4309192  20.3881779   1.3793726  45.2037354  31.3888302
   1.6680132  45.1183243  30.4801922   0.4326135  45.0673141  31.3532162
   5.9018970  42.9206696   6.8721786   5.9304371  42.0343246   6.5118876
   5.0995312  43.2994652   6.5130744  23.5811539  35.8257179  68.8202972
  24.0292282  35.2637558  68.1881104  22.6952324  35.9207802  68.4705276
  63.9422836  61.1185417  17.4999180  64.8513718  60.9137306  17.7186546
  63.6893349  60.4430847  16.8706264   3.2143857   6.8032794  23.9184246
   4.1603365   6.9489756  23.9318924   3.0844312   6.1357327  23.2448349
  47.5114059  41.9766655   9.8566160  47.6199684  41.4422493   9.0699501
  48.3932037  42.2910652  10.0561571  43.6681709  19.3279495   3.5980766
  44.2156715  19.3317623   4.3832283  42.7793961  19.4669399   3.9251649
  16.0178795  25.7028008  81.7168732  16.8052406  25.8775978  81.2013702
  15.3247681  25.5933132  81.0658417  49.4823494   1.4819494  31.1141872
  49.1564941   2.0626185  30.4265289  49.1731186   0.6124897  30.8599281
  62.2605820  59.5174599  32.0633278  62.9613457  59.8435593  32.6279716
  61.7951965  60.3045731  31.7803001  31.6139774  48.0257721  59.5291138
  31.2992325  48.9113274  59.3475609  31.9053841  47.6961708  58.6790123
  53.2426338  18.6870651  54.1945724  52.8828659  18.1628094  53.4790611
  53.5304604  18.0433655  54.8419037  77.4656601  69.4328156  34.9896049
  77.0821762  70.2999725  35.1208267  78.3216248  69.4825821  35.4151421
  46.2255707  66.5813293  48.4936066  46.0093880  66.8042755  47.5881844
  45.4821930  66.9031525  49.0035553  83.0627365  60.8824463  36.3770638
  83.7967529  60.4901199  36.8498535  83.4730301  61.3953133  35.6807480
  34.1807175  64.0057449  42.3893967  35.0271187  63.5798454  42.5252151
  33.9267349  64.3164291  43.2584190  26.4425850  51.1666870  81.0831985
  27.0716496  50.6292000  81.5644684  26.1621723  50.6127281  80.3546906
  61.1237755  18.8986855  82.1461945  61.3709183  19.4918156  82.8556671
  61.5834656  19.2388058  81.3785782  61.7868347  68.4563675   7.4360108
  61.7829857  67.4991837   7.4402084  62.6866112  68.6912689   7.2091613
  57.6418152   5.3927569  67.1677628  57.4496078   5.3279691  66.2322998
  58.5478859   5.6991067  67.2054596  17.8402061  24.1589184   0.1465569
  18.3243389  23.9029121   0.9316096  18.4394398  24.7360382  -0.3268162
  32.3112831  57.9523506  28.3128986  32.9575806  58.4904556  27.8557587
  32.2136154  58.3704033  29.1684246  85.7605057  30.8629589  22.3702888
  86.3857727  31.4398632  21.9315872  85.6089554  31.2761936  23.2202892
  63.9666214  41.0448151  61.6876335  63.6546249  40.2174606  62.0542030
  64.9013901  40.9031487  61.5380745  16.9670506  21.2632751  83.5321732
  17.7766533  21.4250870  84.0165176  16.5253830  22.1122818  83.5134583
   7.5067215  19.8110561  87.2319412   6.6290445  19.8642082  86.8536682
   8.0897465  20.0842762  86.5236588  38.5765381  54.3074646  13.3957024
  38.9705200  53.8558197  14.1420460  37.7616882  53.8328362  13.2314529
   2.7957525  31.8565578  16.9415703   2.4465787  31.0888691  17.3942986
   2.4202027  32.6021576  17.4098377  75.8656235  50.7288017  68.7296829
  75.9192200  50.8728447  69.6744614  76.3207016  49.8987465  68.5877609
  27.7365246  15.2570372   1.3480542  26.9454327  15.6739178   1.0065634
  27.5208702  14.3250370   1.3812319  76.6716080  14.6018610  18.6861115
  77.2731247  14.3216677  17.9962578  75.9133301  14.0254335  18.5913811
   7.3203249  65.1635590  47.7343674   7.1898546  65.3731766  48.6591759
   7.6640072  64.2701950  47.7374382  71.4918823  69.9040451  71.7196503
  70.5887375  70.0814438  71.4567871  72.0245743  70.3128128  71.0374680
  59.4908409  14.4667635  75.7239990  59.6708374  14.8168268  74.8514862
  59.0978432  13.6091995  75.5616226  69.9322433  27.4169712   5.9418616
  69.6437759  26.6329365   5.4746275  70.8195038  27.5751133   5.6193862
  10.1215658  36.0605087  12.1708641   9.5981016  36.8613167  12.2012215
   9.9140787  35.6707916  11.3215714   9.5853758  48.8712730  88.7478638
  10.3359623  48.3023300  88.5771255   9.9280777  49.5528412  89.3260117
  30.3711987  35.0787811  84.7366180  29.9905739  35.9528275  84.8226547
  29.6171036  34.4981537  84.6344452  85.2927475  57.7602730  25.0786953
  84.6719360  57.0428848  24.9515266  85.1296539  58.3512917  24.3436241
  23.3013210  47.1520691  35.7736549  23.7373524  47.8308792  35.2585526
  23.0079327  46.5112762  35.1259346  21.3083801  55.2662926  59.2433891
  21.8063564  56.0362206  58.9686813  20.6539707  55.6089783  59.8521156
  33.5031662   3.7710495  11.1508827  33.9850883   4.5777497  11.3331442
  33.0696983   3.5590329  11.9775543  60.7438431  21.4587212   8.8154945
  61.6696739  21.3683815   8.5898581  60.6990700  21.2231178   9.7421656
  68.5146332  58.6197891  11.4666805  68.2876358  58.2500687  10.6134453
  68.2186432  57.9641953  12.0982018   5.7587047  63.0118141  43.2671127
   4.8066530  63.0323410  43.3641129   6.0772867  63.6623840  43.8928070
  29.8492165  21.7314835  10.2251549  30.4856720  21.7856121  10.9380560
  29.0902290  22.2197952  10.5440903  78.6020279  58.4957886  38.3449211
  79.0323334  57.9842911  39.0300751  77.9297333  58.9968719  38.8066216
  79.8862305  15.8773232  62.1660194  80.2540665  15.8386765  63.0488739
  79.7817307  16.8125305  61.9908142  28.1784077  48.1119957  53.8576965
  28.0287704  48.5927544  53.0436249  28.4340630  48.7842369  54.4893303
  44.2621841  17.5689659  73.5919037  43.4455223  17.0908642  73.7358170
  44.2398148  18.2796097  74.2327728  78.6737442  54.9931602  33.9964981
  79.2707291  54.4299622  33.5038948  79.1242676  55.8363800  34.0438309
  38.6162224  47.5436287  69.8153458  39.3775368  48.0780945  69.5895615
  38.5485878  47.6132965  70.7676086  42.2156982  42.9752083  34.9744911
  42.4283562  42.4974403  34.1727753  42.8538589  43.6879921  35.0049553
  52.0842743  59.7634010  40.6871262  51.7952881  59.7640190  41.5996590
  51.9890289  58.8532791  40.4063416  64.2380676  37.3269958  46.6617470
  64.8220291  37.7820129  46.0549736  64.1511459  36.4467659  46.2958565
  84.7275467  71.9579010  18.2455120  84.1033249  71.2325897  18.2678814
  85.5863113  71.5354233  18.2619362  68.1409683  25.5790844  14.4387579
  67.2885056  25.4700241  14.0172806  68.7727127  25.5091686  13.7230492
  18.6915035  29.5297623  69.6883926  19.5172081  29.1604748  70.0015488
  18.1741104  28.7692089  69.4236374   1.5893861  57.3360939  73.6745529
   1.5348835  58.0871391  73.0836334   1.2102772  56.6116943  73.1768036
  71.8620377  67.0621109  66.9512711  72.5056763  66.4078140  66.6795197
  72.2570877  67.9005051  66.7119827  77.1410675  25.1734238  49.9156151
  76.9215164  25.7743092  49.2035980  77.4815521  24.3946438  49.4753876
  59.6940994  14.4884224  52.9595680  60.5069427  14.1143112  52.6196404
  59.9799614  15.1795454  53.5569496  74.2268372   8.8661194  43.2509804
  73.7088699   8.5383978  42.5157623  74.4664688   8.0813112  43.7438126
   1.3641191  60.9593086  18.6262207   0.8087825  60.7175865  19.3674374
   1.7082903  61.8223686  18.8562355  81.9572296  34.6277885  29.5004787
  81.6234436  35.4625549  29.8290825  82.4636917  34.2688408  30.2290993
  43.9628029  63.5968475  58.7655754  43.4298782  64.3842621  58.8760490
  43.5138016  63.0975037  58.0834618  23.5848560  67.4526520  26.9623985
  23.0834885  67.1143799  26.2204876  23.7009697  66.6965027  27.5377121
  15.3127508  20.9709511  77.2765961  14.9264698  20.4640331  76.5624161
  16.2326756  20.7066650  77.2876282  37.8821449   0.9937813  47.1226234
  38.4327469   1.5774238  47.6445694  37.2877045   1.5802252  46.6546974
  16.0993843  69.8615341   8.4488487  16.9439373  69.8222656   8.0000496
  15.4857569  70.1623688   7.7786293  42.8352242   1.0254045  75.5930939
  43.5529785   1.6585569  75.5797653  42.3811340   1.1954544  76.4183960
  49.9701424  69.9524612  87.5626831  50.6501503  69.5139923  87.0512466
  49.4599419  70.4391556  86.9153366  16.1261063  49.9802399  40.2544823
  15.7015333  49.1238403  40.3049660  15.6412678  50.5248642  40.8745995
  48.5586548  51.1913757  83.0335159  48.9762192  51.8208618  83.6214066
  47.6209106  51.3542786  83.1351700  36.1152267  35.4826012  70.6756210
  35.6800041  35.8700905  69.9162369  36.1311035  36.1842918  71.3264771
  48.6356277  30.7720261  72.3187866  49.5128746  30.4405479  72.5106049
  48.0547180  30.0346642  72.5060654  65.5201111  58.0586700  33.2658730
  65.2749939  57.6021156  32.4610672  65.8787918  57.3736610  33.8300934
  36.2132111  45.6889725  53.7977829  37.0361481  45.4004936  54.1924820
  35.8660965  44.9067650  53.3689575  19.2889156   8.7495651  84.2215576
  18.5367107   8.3619366  84.6689529  19.3038406   8.3231087  83.3647308
  10.8302116  52.4071007  66.9619293  11.6622362  52.7618294  67.2751999
  10.5411205  53.0287704  66.2939606  63.3109665  16.7690983  56.3533630
  63.8646812  16.1714802  55.8508873  63.8991547  17.4773006  56.6154976
  20.0371380  52.6517754  42.4222488  20.9930286  52.6158028  42.4570351
  19.8007526  52.0561295  41.7112236  62.6857491  11.9148378  49.0054207
  61.8959427  11.3873539  49.1245880  63.3949432  11.3615284  49.3327179
  16.3296795  27.1479931   8.7890577  15.8470926  26.5752831   8.1929483
  15.8611231  27.0774536   9.6207485   5.4691176  24.0932751  24.8755379
   5.6104612  23.8898697  23.9509411   6.0381756  23.4831295  25.3447170
  68.0737305  39.5117226  27.0374317  68.4674988  39.1450691  26.2457619
  68.6061707  40.2822495  27.2349911  75.9444122  46.0630722   4.2362852
  75.8525467  47.0158310   4.2298026  75.1896515  45.7530746   4.7367558
  30.8841553  45.3826866  60.2384148  30.2338314  46.0520401  60.4511986
  31.4650269  45.8055840  59.6059761  13.7549391  50.1762428  83.2146683
  13.1824198  49.4805031  82.8915558  13.2627697  50.5783577  83.9304276
  74.6051102   6.7171621   2.3818820  74.4235153   5.9544153   1.8328177
  75.4547119   6.5285692   2.7804222  16.1696835  10.3197002   2.4816451
  16.5907402   9.5846462   2.9273334  16.8793583  10.7477064   2.0026848
  72.4047623  41.6245766  39.7697563  72.4311142  41.3485832  38.8535881
  71.5270920  41.3846436  40.0670280  60.6233330  10.8738241  27.5885715
  61.2285690  11.1259527  26.8911819  59.7915306  10.7211294  27.1402187
  14.7726526   6.1397066  87.6820984  14.9115591   5.2097368  87.8612442
  14.7604446   6.5509005  88.5463943  45.6144218  50.1869125  36.4816475
  45.6185913  50.7003326  35.6738052  46.4851685  50.3217354  36.8556213
  80.6950989  22.2915840   0.6005833  81.0281067  21.4270592   0.3598870
  80.0241013  22.1147385   1.2599188  44.2520142   0.8015702  19.1337624
  45.1498566   0.6367275  18.8457737  44.0106583   0.0171520  19.6263752
  42.8868980  70.2373276  16.2068386  42.6366348  69.7358627  15.4308653
  43.5023575  70.8934326  15.8797894  82.2425385   3.7806356  39.9985199
  82.9084625   3.1010609  39.8938370  82.1139297   4.1279292  39.1158676
  55.4753380   4.8575182  60.6930008  55.6904907   5.5465603  60.0643806
  55.0230026   5.3135138  61.4027138  64.5956345  17.6120167  17.7788429
  63.7408028  17.2915020  17.4911442  65.2240219  17.0123196  17.3767033
  30.2449646  29.9436245  86.9446869  30.4340057  29.1666698  86.4185333
  29.3499184  30.1834583  86.7046814  82.8134995  54.9324265  84.0728073
  81.9806824  54.6695442  83.6809769  83.4604721  54.7823372  83.3835068
  22.2400417   0.5505930   3.9343007  22.7846756   0.5882146   4.7205515
  22.8313732   0.2417540   3.2478771  40.5811272  69.0295486  56.6790047
  40.0957184  68.5490036  57.3495941  40.9818344  68.3483276  56.1390076
  38.1291771  44.1400604  74.8485413  37.8880386  44.3646126  75.7472458
  38.9798813  44.5587006  74.7171021  37.3985023  46.4578781  19.3586121
  38.1269798  45.8474274  19.2450504  37.6221466  47.2038536  18.8020744
  84.1808243  21.3518982   6.6492434  84.7225037  21.6454277   7.3818111
  84.5726166  21.7663765   5.8805156  54.6854095   7.0317283  16.9824848
  54.2664795   7.6737347  17.5556850  55.5868683   6.9793215  17.3000584
  86.3872757  26.5179920  51.6530304  87.1642532  26.6747513  51.1164131
  85.7085266  26.2703915  51.0251579  83.9023209  16.0575771  61.1425018
  83.3491287  15.4184713  60.6933327  83.3901596  16.3226891  61.9064674
  81.1144257  10.4348145  67.2536392  81.6660995   9.9715509  67.8839340
  80.3117981   9.9150534  67.2103882  54.8358040  68.9528122  52.4234505
  55.0689964  68.2279816  51.8433914  55.2919159  68.7602615  53.2426682
  46.2275810  21.7158279  74.5570755  46.4885788  21.8547287  75.4674683
  46.6178207  22.4491463  74.0814819  41.2640724  63.6949196   2.2001352
  40.9888763  64.0331802   1.3480334  41.5009346  64.4746780   2.7022345
  28.7284527  43.4954414  62.0758018  29.4380684  43.4350662  61.4362450
  28.8913326  42.7737350  62.6831245  -0.1243947  59.9831238  12.6070070
   0.0668296  59.2624016  13.2071972   0.0885175  60.7723923  13.1049604
  47.3372688  10.1629410  15.5470428  48.2901344  10.1854744  15.6351919
  47.0590324   9.4595947  16.1336594  34.5328217  56.0946503   6.0882053
  34.2425270  55.1900826   5.9710979  33.9016876  56.4712486   6.7014556
  10.7908201  35.0000114  59.1583099  10.4269123  34.1207123  59.0551682
  11.6560221  34.8576355  59.5422211  83.9737167  21.9756355  25.4221478
  83.7550354  21.0489292  25.3240337  84.7710495  21.9788036  25.9517555
  29.1617031  18.1261387  80.9544067  29.7086868  17.9595547  80.1867523
  29.7779160  18.1525707  81.6864014  82.8776550  34.7980423  33.5966568
  82.3722916  34.0679855  33.2390785  83.4880066  35.0320625  32.8974113
  60.6978760  56.3714943  14.6280251  60.0602455  57.0084076  14.9505119
  61.1942787  56.1149864  15.4052134   9.0934000  54.8046646  16.0061665
   8.6792936  54.0112267  16.3455830   8.8166199  55.4955521  16.6080799
  31.8590412  43.7200661  16.2522736  31.2140751  43.0133896  16.2816696
  32.1564178  43.7352333  15.3425655  63.8015862  64.7898788  48.8974113
  64.7493896  64.9145508  48.9459190  63.5816422  64.3119583  49.6970673
  56.2321625  13.2959232  70.7316055  56.2169228  14.0019264  71.3777924
  55.6856461  12.6093950  71.1139984  77.4797516  64.2328339  83.9116898
  77.7566147  63.9420853  83.0427628  77.7436371  65.1520615  83.9520340
  50.0100021  30.5066795  85.9225769  49.8067703  30.8643150  85.0582733
  50.0393066  29.5593090  85.7889328  64.4215927   6.9221292  81.4691849
  64.2336197   6.8985267  80.5309219  65.0511932   7.6361251  81.5694351
  37.7895126  69.2732391  88.1267090  38.1129112  69.5143433  87.2586517
  38.3589821  69.7454453  88.7341309  35.5499725  60.1124382  45.7851143
  35.8699570  60.2638016  46.6744576  34.7760544  60.6707878  45.7107506
  85.3024750  70.5213013  23.9958515  86.0963211  70.4470215  23.4662132
  84.9805298  71.4058380  23.8221207  31.7463188  46.4233208  49.4666748
  31.5107193  46.0241661  48.6291771  32.6076660  46.0595131  49.6715012
  85.6249542   8.6193171  63.9065208  84.8908463   8.1698503  64.3251953
  86.0058975   9.1552076  64.6021805  45.3785248  40.0697136  73.0479507
  44.6965446  40.2710037  73.6887436  44.8991165  39.8456917  72.2503204
  61.8724098   8.0403042  35.8260193  61.6983032   7.6921816  34.9515305
  62.1394997   7.2773895  36.3387146  64.8116608  24.3009148  18.6739254
  63.9518051  23.8828564  18.7198334  64.8538742  24.6654053  17.7898464
  46.5125084  25.5747566  59.4581337  47.1743431  26.2069244  59.1778259
  46.6065750  24.8431358  58.8481255  40.4570808  16.9066029   5.5810351
  40.6640663  17.4492455   6.3419075  41.2909164  16.5023384   5.3412013
  45.5413704  64.6779861  41.8210907  46.2831802  64.2063293  41.4422913
  45.9406052  65.3862762  42.3262367  74.7179260  33.2095947  47.2553787
  75.3193741  32.4820557  47.4140549  73.9218979  32.9701462  47.7299614
  59.0533066  33.8835030  27.2124062  58.9360733  34.7612190  27.5758724
  59.9788551  33.8457947  26.9712353  81.7772903  32.1501541  12.6709366
  81.8518982  32.4482231  13.5774813  82.5702209  32.4764748  12.2454929
  30.3061142  53.2400589  64.0713425  30.3654213  53.6672287  64.9258881
  30.7641411  52.4076080  64.1874008  82.0293045  46.4777641  61.0049706
  82.9250870  46.1613426  60.8880157  81.6847992  46.5558281  60.1153374
  33.5927849  40.0847054  70.2899475  34.4674034  40.2783127  69.9526138
  33.1793442  40.9422188  70.3897781  37.3047752  40.2302094   4.8688965
  36.9645042  39.3355484   4.8634062  38.1069336  40.1781807   5.3885784
  27.3621292  69.8184586  87.4794388  27.2144432  70.4617157  86.7861557
  28.2367935  70.0207596  87.8115082  32.1682281  54.9530144  30.3590164
  32.9898567  55.4411392  30.3052406  32.2454109  54.2790260  29.6837273
   5.4642606  33.3114700  13.7439661   6.3318081  33.2413712  14.1423120
   4.9946146  32.5376053  14.0550833  27.3018112  37.6037788  12.7161579
  26.6510468  36.9665184  12.4218206  28.1214905  37.3101692  12.3184786
  20.6616039  61.3546219  77.4159164  21.5677776  61.0655289  77.3086624
  20.1411762  60.6756973  76.9864426  84.5633469  26.6240139  84.3139954
  84.4855804  26.4403801  85.2501907  85.5023880  26.7411118  84.1700745
  60.2191391  18.6514835  29.1749363  60.8417206  18.1718082  29.7213230
  59.9648514  18.0262661  28.4962082  30.6756802  46.8523750  70.1779175
  31.1207542  47.6621323  69.9280472  31.3783932  46.2752533  70.4768372
  52.0444336  30.1035347  32.9067650  51.5186501  29.3174515  33.0546150
  51.9093552  30.3116531  31.9822807  39.0617027  61.0300865  24.1797237
  39.9501648  60.7210464  24.3568134  38.8679657  60.7100716  23.2986526
  70.3705215  59.3114204  42.8087616  71.0633011  59.4074898  42.1552620
  70.8351822  59.2529297  43.6435661  46.8495941  35.5503654  17.1826286
  47.4120941  35.8876419  17.8798161  46.7262154  34.6264458  17.4003010
  77.3622818   1.5184389  32.0683365  77.0811310   1.7714477  31.1890335
  76.6169739   1.0383445  32.4292374  76.5390167  63.9198494  78.3333740
  75.9999161  64.0639038  77.5556564  77.1861954  64.6247253  78.3101044
  51.8422623   0.4001581  66.4318695  51.9151955  -0.5468186  66.3129272
  50.9815559   0.6206881  66.0758057  43.8916359  34.1972504   6.8431530
  43.9740295  33.4019432   6.3169141  42.9491730  34.3010483   6.9743824
  70.8937836  36.1648178  33.4098816  70.3658447  36.8649712  33.0260887
  70.2731552  35.4517403  33.5601120  76.3011703  49.8683243  15.2000093
  76.0244904  49.4386902  16.0093899  77.2214737  49.6241646  15.1017456
  78.0718460  69.6989212  81.3730087  77.6900024  68.8214493  81.3516693
  78.4128952  69.7901382  82.2627335  11.2532797  37.0706558  47.5561066
  11.0792942  36.1367569  47.6735497  12.0118208  37.1015129  46.9731026
  75.9389572  40.1426773  77.8639297  75.2247467  40.6514549  78.2477112
  76.6648254  40.7628517  77.7952194  28.3089504  52.7493095  34.0166664
  27.6038303  52.3224602  33.5300064  28.2302399  52.4029999  34.9055481
  86.1093140  51.0160179  20.6441536  85.8239746  51.2481499  19.7604523
  86.7876053  51.6582222  20.8532696  40.2702599  69.9824371  32.0806656
  39.9183426  69.1036072  31.9390774  39.4977760  70.5301285  32.2204247
  66.4048996  41.6182671  89.1697769  67.2074051  42.1183891  89.3183899
  66.6522751  40.9540825  88.5264282  39.1755600   0.2889470  64.9106750
  39.1034737   0.1978326  65.8608017  38.5949326  -0.3867056  64.5605392
  33.8544922  69.1319046   0.5485680  32.9952087  69.0663910   0.9651842
  34.3451653  69.7364273   1.1053693  19.3412056  61.0641098  44.9728966
  19.1777725  61.8896942  45.4288940  18.9564190  61.1893730  44.1054382
  68.8925934  38.6446877  83.4707870  68.8976212  38.2978859  82.5786362
  68.5895157  37.9142036  84.0100174  30.1697063  28.7469177  78.9461594
  30.9801331  28.2605782  79.0975418  29.5097580  28.0708046  78.7926254
  -0.1210941  47.6857529  53.0194397   0.0527577  47.4901390  52.0987091
   0.4615327  48.4174232  53.2229996   5.4915094  50.4177055   9.5965939
   5.8972588  51.0219231  10.2183008   5.9576006  49.5917778   9.7263403
  38.8305168   4.5995317  10.2293520  38.2279587   3.8794680  10.4155331
  39.6389732   4.3583059  10.6815062  35.1698303  68.5029602  20.4930363
  35.5099831  69.1700897  19.8968258  35.5813522  67.6892624  20.2018700
   2.3818045  46.8908348  81.6137619   2.7321670  47.1433945  80.7595444
   3.0825410  47.0999641  82.2313919  15.1452322  45.8318901  22.1640129
  15.4909458  46.4126129  21.4861679  15.8184423  45.1596909  22.2696953
  69.9551163  24.1125870  66.5052261  70.7649307  24.2187328  67.0043793
  70.0236969  24.7542057  65.7982178  22.6950684  49.5781898  66.5509949
  23.5467529  49.4829102  66.1246338  22.1910877  50.1350098  65.9575424
  48.3614426  11.6849709  80.3156204  47.5946922  12.2517719  80.2315903
  48.0302010  10.8054695  80.1339951  86.0737762  15.5132399  16.4568138
  85.2801819  15.9351482  16.7861080  86.7542801  16.1805191  16.5456390
  12.8386669  38.9768639  29.1386700  12.8226242  39.3582878  30.0164471
  13.7312136  38.6461754  29.0374947  41.1089172  14.7922430  76.7692413
  40.3640823  14.5988235  77.3384857  41.8642235  14.4284096  77.2311630
  69.4569168  54.4812164  46.0219116  68.7793045  54.8723526  46.5733566
  69.0454025  54.3944473  45.1620522  16.5249596  51.2950592  17.2594547
  15.7189674  50.7876968  17.3553410  16.2269573  52.1831131  17.0625153
  81.3092880  10.3353701  25.1820354  80.6434402  10.0098171  25.7877579
  81.5708237  11.1812925  25.5456924  48.5280342  45.8443909  42.3514557
  49.4850426  45.8252487  42.3519783  48.2952499  46.1591873  41.4779854
  43.4166298  70.7288742  28.5174713  44.1151390  70.5469666  29.1461391
  43.3022232  69.9061203  28.0418434  50.6989594  39.8808594  28.5673828
  51.1108170  40.1637001  27.7509251  51.4256935  39.5693398  29.1068649
  83.4532471  23.9300003  15.3459053  84.3473053  23.5951366  15.4148903
  83.1275787  23.5747414  14.5188856  22.9961510  28.7192345  21.4842587
  22.4899979  29.4706917  21.1754665  22.4692020  27.9585857  21.2393742
  14.7403498  23.2694836  17.4304256  14.3363142  22.7049332  18.0894184
  15.6514664  23.3521500  17.7119656  43.2647820  46.8398361   6.6644197
  43.3115578  46.0167389   6.1780505  42.3521919  47.1161537   6.5804043
  59.2045593  47.8053703  11.1952343  59.0315857  48.3602638  10.4347038
  58.3371277  47.5988770  11.5433064  66.3890533  62.0117950  62.7084808
  66.0229874  62.6700897  62.1178284  65.9806671  61.1905899  62.4344902
  78.1824799  20.3162899  47.6692657  77.7431030  19.9706116  46.8922958
  77.6589508  19.9949455  48.4033585  41.4604301  56.8232079  20.2598286
  40.7269096  56.4562645  20.7533150  41.3654366  56.4559822  19.3809929
  78.6184540  54.6386528  64.8501434  79.5141602  54.3011322  64.8536911
  78.7164536  55.5762329  64.6840973  49.2068100  55.7330322  20.2098694
  49.4099808  56.6290321  19.9412785  50.0571327  55.3477516  20.4213829
  77.2211227  42.8553391  24.6976852  76.3227921  42.8499756  24.3672352
  77.2342758  42.1710129  25.3668308  65.9346695  15.6545458  59.2686501
  65.8552704  14.9875441  59.9505844  65.0314026  15.8551302  59.0234756
  11.5289965  42.1373024  29.2922840  11.0580845  42.3232689  28.4799480
  11.9946985  41.3195343  29.1173306  70.3615341  39.4669113  88.0894775
  70.5094452  39.9308739  88.9135437  69.7564316  40.0277328  87.6041336
  70.8467941  46.3996887  71.8807907  71.4744949  46.0030746  71.2767105
  70.8350296  45.8103905  72.6349945  75.0066223  58.7714348  80.9939194
  74.9713058  59.5290947  81.5778122  74.5738220  59.0661736  80.1926422
  20.8920536  39.0457115  53.8462257  20.9045696  39.8454819  53.3204498
  20.0390091  39.0577545  54.2802773  78.4263992  28.7003670   8.5994949
  78.8906021  29.5242634   8.7476149  77.9503784  28.5436916   9.4150257
  49.6742592   9.8621149   2.3677950  50.1503525  10.3528891   1.6979368
  50.3481903   9.3477564   2.8121867  68.7514496  30.6378098  15.7693567
  67.8564758  30.4245548  15.5052147  69.2787933  29.9113922  15.4370060
  73.3463440  62.7799683  85.2215424  73.2170258  62.4152832  86.0970535
  72.4830551  62.7294807  84.8111420   3.1524947  46.8193512  22.0190277
   3.6407952  46.0721245  22.3646393   2.2436044  46.6454239  22.2637711
   9.4011869  40.6244316  35.1377373   9.7225380  41.0123978  34.3238297
   8.6870804  41.1999130  35.4117851  64.0216675  46.6629028  48.1036301
  64.8848953  46.2526131  48.1558113  63.6596947  46.3544540  47.2729263
  82.9435959  12.9386835  70.6186218  82.6995316  12.0698690  70.9377213
  83.2673950  12.7855778  69.7309570  65.7826614   1.9874530  68.1938171
  66.3661728   2.7454479  68.1593399  65.1077042   2.2333634  68.8264313
  45.4479141  28.3067875  79.3702469  44.9166374  27.5859051  79.0321503
  45.2970467  29.0244904  78.7551270  51.9770126  31.6027737  40.4360771
  51.0677757  31.8444176  40.2596436  52.4651337  31.9433022  39.6864014
  25.9330730  34.1831284  12.7161207  26.1998501  33.2640228  12.7336636
  25.8249588  34.3834419  11.7863798   3.6262491  26.4750004  63.3244209
   3.8167205  25.9949818  62.5184860   2.6783905  26.6071472  63.3061676
  66.9522934   8.1336565  67.5563278  67.6770477   8.6618519  67.2217102
  67.2767258   7.7787914  68.3840027  68.2813568  18.5263958  70.4210281
  67.3730545  18.7793045  70.5861130  68.4487076  18.8080063  69.5216293
  71.6270065  32.1611633  22.4337521  70.9412766  31.5945492  22.0802555
  71.2099152  32.6128349  23.1674156  29.9322815  62.3176689  72.3495407
  30.4265976  62.0005455  71.5936813  30.2764912  63.1964378  72.5092697
  73.4001541  45.9240646  58.8405609  73.1618347  46.4336929  59.6149750
  74.2715836  45.5810127  59.0384445  86.6609879  10.6775732  59.2932281
  86.6708527   9.9050636  59.8583527  86.7133636  11.4175425  59.8981552
  79.1389008  35.8127289  21.5054264  79.2757263  36.3713417  22.2705822
  79.1390305  36.4179993  20.7638893  32.5293541  65.0911026  87.8272400
  31.8892593  65.8026962  87.8394318  32.3400116  64.6124344  87.0202332
   6.9949088  37.8410797  44.3690376   6.9471045  37.2564392  45.1254387
   7.0100503  38.7205238  44.7466469   3.2507951   8.9256268  43.0334892
   4.1877012   8.8665228  42.8465500   3.0280547   8.0753021  43.4123917
  33.7702827  28.9617176   7.8811007  34.2076340  29.2937870   7.0970821
  32.9667854  29.4781132   7.9440198  45.8931770  29.4595585  84.1266937
  46.6541405  28.9867134  83.7896652  45.1860924  29.2385044  83.5205536
  53.9337692  34.5901337  45.5640259  54.4893074  34.9285889  46.2662086
  53.0463028  34.6299400  45.9204750  78.7697983   1.8600768  72.1474533
  79.0292511   1.6562473  71.2489166  78.2521820   1.1041124  72.4246292
  36.4973755  52.6147957  13.2139997  35.9045448  53.0792961  12.6232195
  36.2756805  51.6908646  13.0980873  14.8072414  16.0317783  83.0121613
  13.9070492  16.3570518  83.0212173  15.3472118  16.8195267  83.0762939
  53.2995911  61.4330635  17.8968315  53.2512169  60.5033798  17.6741714
  53.7424850  61.4534454  18.7451591  22.4953918  39.0920753  42.6248894
  22.8954735  38.6383514  43.3667107  21.7932625  38.5084114  42.3375206
  12.3570490  63.3491859  25.6359386  13.1562061  63.8637886  25.5229530
  12.0823202  63.1345901  24.7444763  67.1096115  23.5486412  19.7250748
  66.2637939  23.8493309  19.3928013  67.7472687  23.8827324  19.0941944
  51.9043427  16.0352745  27.0553532  51.8072281  15.0841436  27.1017532
  52.4528923  16.2570133  27.8077869  66.4239655  36.8958855   9.3572111
  66.9640579  36.1133881   9.4678020  66.6864471  37.2499580   8.5075254
  13.2077389  47.1316490  75.0739441  13.4213657  47.6097374  75.8752136
  14.0234470  47.1270065  74.5731125  25.4960556  60.4508934  19.8067951
  24.6467915  60.6362000  19.4059925  25.3019447  59.8165092  20.4968014
  76.0845337   9.5040979  62.2367935  75.2099991   9.6814299  62.5831718
  76.1558151  10.0676546  61.4663696  86.3296051  59.4645882  29.8628216
  86.9955368  59.2348747  29.2147541  85.8843155  58.6386108  30.0517921
  17.4048805  21.9151001  62.6836014  17.6021366  22.6646442  62.1219063
  16.5517712  22.1203728  63.0660896  59.7371483  66.0016403  79.4869843
  60.3502655  66.5892029  79.9286728  60.1031342  65.1276245  79.6225662
  21.0278549   3.6615765  81.6346436  20.5746479   3.7319241  80.7944717
  21.8057232   3.1373482  81.4440231  38.1151047  59.8968773  12.1725645
  39.0360947  59.6412888  12.2243595  37.6351395  59.0690269  12.1956158
  22.0291519  68.1214066  69.2734680  21.8402805  68.4594803  70.1488342
  21.2830620  67.5579834  69.0681839  83.5273132   3.3256133   2.4191699
  84.2765732   3.2656956   3.0118332  83.7095261   2.6796820   1.7366729
  62.3378334  45.0405998  84.6628876  62.9786072  44.4628792  84.2483063
  62.8578644  45.7658958  85.0089340  39.0020370  59.0974045  86.2116547
  39.3562889  58.2092514  86.2554626  38.5999489  59.2374458  87.0689392
  50.7862549  47.8183212  40.5585785  51.3969536  47.0832748  40.6132050
  49.9782104  47.4336433  40.2189980  17.7618923  56.1898384   4.3555298
  18.5956726  56.4350967   3.9544187  17.5958271  55.3018951   4.0389686
  63.9547195  69.2918396  39.2756958  64.7007294  69.8432922  39.0398903
  63.7480392  68.8125916  38.4733047   5.5859199  55.1262627   5.8303976
   4.6430802  55.0646057   5.6771545   5.9219098  54.2578278   5.6086693
  63.0688362  29.0337296  49.2335892  63.0774269  28.1778545  49.6621170
  63.1677132  29.6611385  49.9496994  53.6692123  58.7185020  71.6211548
  54.2603416  59.3797951  71.9810028  53.2520065  58.3271332  72.3886185
  57.2232819  18.2113533  44.6146164  57.0737190  17.7826900  43.7719345
  56.3510857  18.4762707  44.9067192  47.9897842  64.6102371  72.9291992
  48.1967430  63.9175453  73.5565567  47.1347656  64.3653107  72.5753860
  21.4840145  15.6572714  71.2831192  21.2661343  14.9848709  71.9285965
  21.1055355  16.4616241  71.6380920  83.0120544  40.1767159  65.4692307
  82.1837921  39.7791710  65.7378845  83.1900024  39.8002281  64.6073608
   3.5698214  14.0741358   4.8060460   3.0615809  14.0047407   3.9978952
   4.4607744  14.2653370   4.5129991  33.2927666   8.9896126  74.8853226
  33.3756409   9.6883659  74.2363968  32.3572350   8.9582968  75.0854187
  55.6184578  29.2953472  77.2232971  54.9177589  29.3955860  77.8676605
  55.8522148  28.3681087  77.2659378  15.0943871  38.5904922  85.2066193
  14.6293488  38.3325500  84.4107285  14.7469482  38.0117302  85.8852615
   4.4247499  58.0427361  10.4932232   4.6151462  57.1243706  10.3019438
   3.6474509  58.2400703   9.9706364  55.7264099  40.8185120  53.1419487
  55.5398483  41.5754128  52.5864944  55.2301636  40.9818878  53.9439964
  35.1584930  33.0756760   5.8972964  36.0926514  33.2027626   5.7316780
  35.1111679  32.8201180   6.8185363  64.8547668  23.3049850   7.4197931
  65.7932281  23.2278538   7.2478156  64.7536392  24.1722431   7.8120542
  41.8188705  44.6032219  64.1330185  42.7568436  44.7831726  64.1967163
  41.7620544  43.6503143  64.0624771  23.6756763  34.3136368   3.2590504
  23.0951385  33.9449158   2.5932806  23.0852737  34.6319275   3.9419475
  74.9550018  51.7171555  34.8604698  74.6744766  51.2156219  35.6259766
  75.3893280  52.4881897  35.2252998  77.5440445  69.8819199  57.4413109
  77.9069443  70.0371628  56.5692825  77.0574799  70.6809235  57.6439781
   4.4023795  42.7117462  33.1575851   4.8693438  43.4959641  32.8691750
   4.9546394  41.9847717  32.8699303  14.5479517  53.3076439  43.6857262
  15.0018091  53.1565399  44.5148277  15.1589489  52.9961548  43.0179749
  63.9217873   3.8517127  13.9037933  64.1969299   4.7498069  14.0880594
  64.4093857   3.3182800  14.5314331  66.3495102  71.2908783  58.4211998
  66.1735382  71.9193802  59.1213760  66.6357193  70.4990311  58.8764877
  39.9152832  48.9230423  83.3106003  39.9686317  48.9567375  84.2657166
  39.5172920  49.7577286  83.0633469  40.8005676   2.2116804  55.7361183
  40.9541054   2.2726984  54.7932854  39.8611946   2.0458469  55.8155708
  26.6066322  11.5849667  11.5520096  26.2022934  12.0060434  10.7934332
  27.2135296  10.9470091  11.1766205  61.1811333  47.0671349  38.7745895
  60.9182281  46.4924049  39.4934731  62.1377525  47.0699959  38.8078117
  76.9919662  38.9659233  67.6978149  77.7005005  38.4829216  68.1231766
  76.1921997  38.6004257  68.0759964  65.8786240  36.7999001   0.5720726
  66.5153275  36.6041069   1.2594643  65.6376648  37.7140388   0.7221234
  26.0324230  32.9713631  67.5560303  26.4155293  33.4750557  68.2741928
  25.9474144  32.0839310  67.9045563  73.6608047  51.5696602  48.1186218
  73.4939575  52.4793091  48.3654785  73.0061035  51.0662270  48.6025124
   5.4538922  61.5110435  47.9077911   5.7975945  60.6815300  47.5761185
   6.1133327  62.1594086  47.6608162  83.4910583  28.5400677  72.4721375
  83.2184830  28.4564705  73.3858871  84.2293396  27.9369106  72.3862915
  71.7437973  65.9781952  24.3116875  71.7158279  65.6447830  25.2085075
  71.6826935  65.1960068  23.7633476  61.6849403  17.3209305  35.3447914
  62.5815735  17.5219383  35.0766907  61.7679672  17.0144062  36.2477760
  58.5029259  32.9072762  86.3830795  58.9097977  33.4122963  85.6790619
  57.6678505  33.3473778  86.5418091  78.5407028  32.7862206  65.6446075
  78.6039734  33.7118263  65.8801575  79.1860962  32.6719322  64.9470215
  77.1689987  29.0579395  15.9587173  77.6597748  29.5697231  15.3157148
  77.8277359  28.5031948  16.3765106  39.1828995  26.8374977  82.7581406
  38.2541656  26.9823380  82.5772934  39.2578888  25.8914490  82.8830490
  47.1305962  52.0758591   7.0355577  46.8524361  51.7882614   7.9051237
  47.5529709  51.3069267   6.6527038  83.3816071  62.9036827  87.8150024
  82.8685379  63.2165527  88.5600510  84.1096039  63.5216751  87.7491074
  65.9180984  49.5829277   1.1255553  66.1284332  49.9285545   1.9930435
  65.4705887  50.3038406   0.6825525  78.7522812  17.1715431  31.9189091
  79.1084824  16.4726868  31.3703156  79.4971237  17.4691868  32.4412613
  50.1694031  43.6446991  63.2874870  50.0749245  43.3602524  64.1965485
  50.3979607  44.5721588  63.3492508  38.2290840  16.0548592   8.3341084
  37.6176414  16.2353859   7.6201181  37.6893311  15.6559248   9.0165672
  31.3894615  67.6188126  10.0402679  31.0127430  66.7660446   9.8232317
  30.6317959  68.1837463  10.1920042  45.3600006  66.7920074  86.3464737
  45.6929359  66.6478119  87.2322464  45.9502869  66.2904510  85.7841263
  76.6194305  70.4162903  47.9487114  77.4983902  70.0431900  48.0155640
  76.3825989  70.3078003  47.0276413  64.9767075  24.9280930   2.7020900
  65.5525665  24.1663742   2.6356907  64.1619492  24.5814228   3.0657060
   0.1459273  69.8744736  65.9183655   0.1485853  69.4810486  66.7909698
   0.0163052  69.1361389  65.3231430  76.8881454  45.1801949  12.4419022
  77.6755371  44.6381226  12.4910278  77.2135086  46.0794601  12.4831047
  43.3560791  58.2644310  13.2872381  44.0213776  58.6775284  12.7368193
  43.3421402  57.3510170  13.0013762  66.5595245  55.9469719  85.5293884
  66.3142166  56.4673843  84.7643890  67.1231689  56.5261345  86.0423203
  57.4362450  51.7956123  78.2894592  56.4805794  51.8497772  78.2894440
  57.6429443  51.2097092  77.5612946  26.5027847   0.8738315  88.8100739
  26.2200470   1.1039785  89.6951294  25.9719696   0.1113258  88.5797424
  59.5695763  58.4154015  31.9226265  60.4949837  58.4037437  32.1669998
  59.1015663  58.3211632  32.7522774  54.1250916  60.4005928  62.5349884
  54.8050385  60.3411064  61.8638954  54.3274117  59.6908188  63.1445122
  39.8917847  70.5904236  42.4932632  39.5315781  70.9892349  41.7011604
  39.1961937  70.0133209  42.8084526  16.4046764  71.2134018  27.5875435
  15.4844198  71.0102692  27.4199181  16.4743366  72.1552200  27.4314976
  42.1130409  65.0189056  34.3161964  42.1244049  65.3791580  35.2029457
  41.9342346  64.0865707  34.4387207  69.1128387  41.1142006  66.3625565
  69.3251114  41.2471657  65.4387131  69.2883759  41.9609680  66.7729263
  78.8742981   0.3367761  10.2507296  79.2666016  -0.5325692  10.1696997
  78.8801346   0.5154777  11.1910820  77.2871628   3.0304933  29.5969791
  76.9705048   2.7903187  28.7261906  78.2257004   3.1767056  29.4786358
  29.8268661  13.4337740   9.4889946  29.7755718  13.8267422  10.3603020
  29.9172611  12.4953251   9.6544428  77.6228333  45.6431122   2.0626969
  76.8789444  45.6147690   1.4609897  77.2451782  45.4460983   2.9198964
  57.6296349  67.9672394  68.7256699  57.4733315  68.5727844  68.0010223
  58.4117126  68.3090363  69.1589737  29.2500992  64.1032257  19.9005985
  29.9253712  64.7602692  19.7316780  29.6982613  63.2648849  19.7884922
  35.3965759  57.3433876   9.8335199  35.9406738  57.7473183   9.1574793
  34.6014824  57.0755882   9.3727179  68.5833206  33.2076569  36.8744926
  68.5224838  33.1282654  37.8264542  68.9491119  32.3710403  36.5872688
  83.1927795  55.1731262  80.4870377  82.3747635  54.7525253  80.2221375
  83.1837769  56.0184669  80.0380936  56.7244949  42.1262321   1.9044895
  56.1861725  42.8326836   1.5476027  56.1386871  41.6543541   2.4964297
  12.9793472  63.3872032  31.1681423  13.8213406  63.7650642  31.4221115
  12.3485069  63.7812195  31.7706604  40.3386459  62.4110832  40.5026245
  39.6544571  63.0492287  40.7048378  41.1455765  62.8163300  40.8202324
  37.3484764   4.5315413  71.8012543  37.1448708   5.0772762  71.0416794
  37.5993843   5.1544404  72.4833603  22.3606110  45.0621185  28.3928471
  22.3569546  44.1107140  28.4979515  21.4443703  45.2890663  28.2340145
  59.2904320  27.0714092  39.0193596  60.0473747  27.4118481  39.4961891
  58.5346832  27.3686543  39.5260391  32.2041473   7.5996995  13.5556908
  33.0928307   7.7638712  13.2402210  32.2891006   7.5748167  14.5087891
  19.1301594  16.2260303  63.8309364  19.8567543  16.5931454  64.3344421
  19.1597652  15.2875795  64.0171280  67.3155060  67.5821838  20.2731915
  67.4216232  67.1301575  19.4361477  66.3926315  67.4601593  20.4959869
   3.5117948  17.9607410  42.3088074   2.9082685  17.7027798  43.0055466
   3.2794633  18.8688049  42.1147118   3.8671496  58.0428543   6.9871969
   3.2099679  57.3839569   7.2112370   3.7872481  58.7042084   7.6745543
  79.8706894  10.4471445  10.0760460  80.7039642  10.4902935  10.5451155
  79.5826492  11.3579473  10.0151920  23.6461468  61.3293343  11.3614025
  23.5192280  62.2736244  11.2695274  23.5384369  61.1631851  12.2978992
  51.9022865  43.2582321  13.7902670  51.4278107  44.0734787  13.6275434
  52.2228737  42.9916191  12.9286556  26.5890408  29.3196316   1.3117679
  26.4302063  30.0571918   0.7226939  26.5340519  29.6978588   2.1893506
  71.7976608  45.0922699  27.4201221  71.4799652  44.7675514  28.2626553
  72.4916458  44.4806938  27.1739883  30.1844406  62.7888527   9.8279257
  29.9946079  61.8778877   9.6035604  30.6897373  62.7354279  10.6391306
  62.2945404  62.0558815  73.3335571  61.6872711  61.9549522  72.6005630
  63.0226326  62.5622444  72.9733963  58.9479942  12.6699266  85.4880447
  58.3006935  12.9901466  86.1162872  59.5922661  12.2064667  86.0231628
  18.7217712  62.6404839  67.3174973  18.3791752  63.1124001  66.5584488
  18.9290009  61.7677460  66.9833984  84.2562332   1.8810807  68.7578735
  83.7084503   2.1474087  69.4962769  84.0906448   2.5424445  68.0860062
  41.6908722  37.4054718  25.9872818  42.3186760  37.4422417  26.7089100
  41.9436455  36.6280785  25.4892864  57.8796921  57.3903847  70.3129272
  57.3110428  58.1603661  70.3130493  57.3513489  56.7023773  70.7175598
  51.0979996  10.1313190  77.9332428  50.3880043  10.7610569  77.8084641
  50.9966850   9.5101357  77.2120667  67.6073914  51.1622925  75.3675156
  67.3160324  50.9908333  76.2630310  66.7976532  51.2737961  74.8694000
  66.5044861  58.5996628   3.4837773  67.2562561  59.0018349   3.9189105
  66.2085800  59.2603226   2.8575182  73.0520935  67.0349274  28.3903351
  73.3130722  66.9145126  29.3033600  72.1888580  67.4455109  28.4401398
  25.1771393  62.3868294  41.8612175  25.7306881  63.1288986  41.6180077
  24.3168335  62.6014404  41.5005913  23.2648926  65.5554276  55.0408859
  23.7989693  64.7830811  54.8552132  22.7741032  65.3233643  55.8292389
   5.0981679  70.8695297   4.2897983   5.3809843  71.6671829   3.8425844
   4.9177489  70.2497864   3.5829735  82.5745773  66.2188873  82.4774933
  83.1342392  65.4724197  82.2634888  82.3677750  66.1050186  83.4051208
  57.9419708  61.0023613  44.0214806  57.3965034  61.0046730  44.8080521
  58.0498505  60.0756302  43.8075485  52.2671814   2.7014127  19.1302261
  52.6982536   3.2337711  18.4616432  51.6040993   2.2050948  18.6504097
  85.5877304  18.8345795  85.1004410  85.2607422  18.5991383  84.2321777
  85.7357483  19.7790565  85.0526352  67.5753250  63.3733788  45.6029625
  66.6688614  63.3790436  45.2955284  68.0528793  62.8860207  44.9316483
  19.6651192  67.8064117  14.4246454  19.2065105  67.0853729  13.9933529
  19.5622501  67.6303787  15.3598804  38.9736862  54.4227562  10.6418543
  38.8601189  54.6970825  11.5518427  39.6780167  53.7753143  10.6729965
  15.4722900   4.2076888  76.7161942  15.2504969   4.3645377  77.6340332
  15.3121090   5.0467691  76.2843094  30.9897194  56.1232414  75.0829849
  30.1327705  56.0486641  74.6630936  31.3935337  56.8861732  74.6693420
  28.1169281  46.8774452  58.2533264  28.4201336  46.4022331  57.4797173
  27.3830280  47.4049034  57.9380302  13.4519253  69.5969162  45.8610153
  12.7602949  68.9444199  45.7508698  13.6988478  69.8372879  44.9679985
  85.2980194  10.2118225  42.1602249  86.0869293  10.4985209  42.6202888
  85.2589874  10.7680569  41.3822098  54.2628975  27.3906937  32.1239052
  54.7681236  26.9405117  31.4469166  54.8920898  27.9795780  32.5405159
  82.3615799  34.4237633  53.9346161  82.3419876  33.4676590  53.8932266
  83.0810242  34.6228676  54.5337791  59.7869186  17.6442337  40.0241699
  60.0827827  16.7387180  39.9306793  60.5894394  18.1641312  39.9805527
  78.8586273  61.5312729   6.9695430  78.3184586  60.7863960   6.7057185
  79.3058624  61.2340775   7.7619367  59.6398582   7.8016319  26.9560204
  59.3488235   7.1876864  26.2817783  60.3435020   8.2991104  26.5393333
  43.7131195  70.2316437  54.7385941  43.8533173  69.5539627  54.0772896
  44.1915741  69.9194641  55.5066147  71.9349289  37.5189133  63.9655991
  71.8167801  37.7442093  64.8883743  72.8686752  37.6536942  63.8038025
  65.0001755  31.8464527  12.4545670  65.6340866  32.0140915  11.7572222
  64.4430389  32.6247482  12.4639702  33.2024078  22.3340187  17.0737724
  32.3983688  22.5581551  17.5423012  33.7663879  21.9414062  17.7401142
  80.3813858  66.3915100  80.8105927  81.2871094  66.1317978  80.9792557
  80.1309891  66.9013824  81.5810242  70.5268402  68.5618210  28.0922432
  70.2765274  68.8822250  28.9587994  69.7596664  68.0791321  27.7845421
  54.1644630  35.0235176  30.7278309  53.7283020  35.6028671  30.1030540
  54.8843002  34.6342583  30.2312965   5.2975588  67.9907532   8.3990593
   4.9166503  68.3949280   7.6194520   5.3595257  67.0608444   8.1807623
   0.4559771  12.4564552   3.7970231   0.2002690  12.5743132   4.7118754
   0.2093539  13.2777348   3.3716888  78.2157288   2.7650373  36.7438354
  77.4851913   2.1543963  36.6455154  78.3332291   3.1404090  35.8711815
  77.5131378  67.5371399  70.6506195  76.8281174  67.3783035  70.0011978
  77.7922058  68.4383545  70.4888535   0.8121632  59.6474075  81.5557022
   1.2655329  59.9695168  80.7766418   1.4701728  59.1285896  82.0183945
  77.1918182  54.1883850  83.7751999  77.3200607  54.5363998  82.8927765
  76.8827896  53.2930450  83.6369858  85.9713821   4.3610787  80.0862427
  85.3022919   4.4783278  79.4118500  86.0768738   5.2304296  80.4726791
  60.8925247  25.6340656  64.8385849  60.2611694  25.4021530  65.5196457
  61.6645203  25.1041431  65.0371704   4.2582750  63.4161720   1.7658194
   4.9186883  62.8939056   1.3104948   4.6730204  63.6575241   2.5940516
  10.4315863  62.3541946  74.3976440   9.8054705  63.0466728  74.1862640
   9.9191532  61.5468292  74.3551559  67.4051514  40.6139259   4.5014439
  67.8212585  39.9197006   3.9904344  67.1662979  41.2774353   3.8541882
  11.4432812  39.3826981  51.9736481  11.7316875  40.0475273  51.3482971
  12.1210728  39.3795738  52.6495323  64.8120651  62.4948082  34.5600853
  65.4866638  62.4296875  35.2360306  64.9710693  63.3419724  34.1438408
   2.0682154  65.6468964   3.4541843   1.4740521  66.3919373   3.5442610
   2.5410442  65.8148117   2.6390343  71.2236633  61.3745232  38.8675537
  71.7269516  61.0061646  38.1414413  70.3280182  61.0729866  38.7154579
  57.5360146  55.7619591  85.3143387  57.1803780  55.9597397  86.1807251
  58.3242302  55.2482452  85.4905396  24.9412556  59.6926613  42.7709503
  24.1876602  59.7361336  43.3595390  24.9625568  60.5498047  42.3454056
  22.3297501  53.4622269   9.0847616  21.7875786  52.6992149   8.8845263
  22.0717392  54.1164398   8.4354029  66.4941101   3.0426257  49.3466034
  67.1438980   3.3011532  48.6930161  66.3256149   2.1181960  49.1641998
  81.9054031  60.9937706  70.5107727  82.2667007  61.7944031  70.1303940
  82.3661957  60.8953209  71.3439636  24.3986511  55.3886185  15.9550943
  25.1303291  56.0008659  15.8774290  23.6753521  55.8209572  15.5010509
  14.6731396  15.3838968   7.0657687  15.1963577  16.1736755   7.2026019
  15.1053762  14.9329185   6.3404951  60.5780334  60.4642944  44.3578339
  59.6344566  60.5630035  44.2307396  60.7279129  59.5198517  44.3154526
  11.6730728   8.4574614  81.1283951  12.3676462   8.0468397  81.6433563
  10.8678865   8.0435419  81.4391632  12.2752914   0.2605473  64.4036865
  12.8547678  -0.1412845  65.0509644  12.6761904   0.0505621  63.5602264
  54.5993843  41.9490700  55.6178246  53.9789276  42.2780266  54.9673996
  54.5910568  42.6083946  56.3116989  25.8089924  64.3996277  48.6970406
  25.8155518  63.5501022  48.2560310  26.5873737  64.8475037  48.3657265
  15.6858950  36.9771957  21.0676861  16.3816319  36.3202057  21.0442467
  15.9034281  37.5818253  20.3582249  79.4684982  46.9113731  62.0924606
  80.0489502  46.7525749  61.3480873  79.4689865  46.0858345  62.5769424
   4.7464304  30.9038486  72.7613907   3.9262483  30.6675873  72.3281326
   4.6240807  31.8159237  73.0247955  55.6752625  29.9558640  54.6018257
  54.7673454  29.9661617  54.2988129  55.8250961  30.8389072  54.9394913
  80.9917679  50.2020760  39.8153496  81.3166809  49.5355186  40.4206276
  80.2437897  49.7893486  39.3835869  32.5380898  39.5899315  55.4462509
  32.0312500  39.0466385  56.0497246  32.6556129  40.4184647  55.9109650
  37.6898842  31.1034241  76.5079575  38.4630928  31.5830498  76.8051758
  36.9563828  31.6862144  76.7043381  18.4878330  41.5150833  72.3699112
  18.4532318  42.3682938  72.8024216  19.4198914  41.2991409  72.3403931
   9.0843878  63.9949188  77.7877045   9.0042782  64.9236145  78.0052567
   8.4774990  63.5560646  78.3837967  23.5682812  71.1626740  88.1667175
  23.6755619  71.9764786  87.6743317  22.6275368  71.1063156  88.3342133
  83.2386551  68.1316299  40.2893143  83.8983002  67.7870865  39.6873322
  82.4789276  67.5632248  40.1629868  34.0420456  53.8975906  86.6006088
  33.2864151  54.3211937  87.0078125  33.7892609  53.7864799  85.6841049
  76.8468704  20.4443874  59.4337502  76.2282791  20.5973949  60.1480064
  76.8426056  21.2608662  58.9341736  43.2090797  64.3227921  84.7054291
  43.1975594  64.1371536  85.6443863  42.3195801  64.1262436  84.4114914
  81.6196518   4.1435170  32.5196190  80.8554611   3.8340957  33.0059357
  82.3518829   3.6440709  32.8810425  53.6321831  13.7715721  41.6254082
  54.0572205  14.6210585  41.7435150  53.7443008  13.3286495  42.4665298
  21.7841816  40.9544945  32.3689194  20.8759270  41.0434914  32.6576805
  22.0464611  41.8424988  32.1262398  84.2702332  26.5196190  36.7313995
  83.9533997  26.5535145  37.6340065  84.7332230  25.6840019  36.6712990
  37.2518349  42.8400879  10.2886953  37.2378006  43.7847633  10.4423857
  36.8250465  42.4656830  11.0593481  24.8964081  69.0237961   3.5704203
  25.6444054  69.0704803   2.9749780  24.1970692  69.4911804   3.1135790
  76.0324097  55.4553452  71.6900558  75.5210800  54.9708633  72.3381729
  76.0412369  54.8879890  70.9191742  69.5261993  30.5305729  21.4471512
  69.8024597  29.6159573  21.5053368  68.5730133  30.4884338  21.3703117
  61.1961327  53.8872185   2.3617153  61.9873848  53.3956223   2.5819113
  60.9466667  54.3182068   3.1791799  69.5580978  60.7019920  29.4900627
  69.6772995  61.0121307  28.5923786  69.0538483  61.3941917  29.9176388
  18.6797714   6.5804167  68.7190170  18.6405964   7.4624596  68.3492966
  17.8273392   6.1965160  68.5135651  59.4835587  41.7711639  25.2683411
  58.5625420  41.9178734  25.4838314  59.9600639  42.3944473  25.8167000
  79.2354660  25.5654087  56.3388901  79.7517929  26.1135693  56.9297867
  78.5915451  25.1418343  56.9065018  20.0518169   5.5148711  14.6923437
  20.3239021   5.3407245  13.7913027  19.2558498   6.0393262  14.6050644
  37.6573410  39.8779259  85.1451263  37.8327332  38.9866905  85.4470673
  38.3377762  40.0484276  84.4938507  74.9001617  41.9755096  47.8261032
  74.3546066  41.5783005  47.1472588  75.7123413  41.4693069  47.8073082
  32.9557838  10.7718372  40.4125404  33.7001228  10.7210970  41.0122185
  32.4959297  11.5713148  40.6686630  60.9099922  23.9037647  32.8734627
  61.1218071  23.0793171  32.4356804  61.6863747  24.1035976  33.3964615
  64.5877838  60.4149361  22.1551170  65.3787842  60.9340363  22.0098877
  64.5484085  59.8231010  21.4038429  76.1119537  24.1432247  30.4895535
  75.9897766  23.5218754  29.7717590  76.4861832  24.9196301  30.0731659
  81.0947800  63.3886757  16.5222149  81.7485962  63.0853996  17.1521187
  81.5898590  63.5395164  15.7169991  27.5514698  68.6389313  12.6366377
  27.3339787  67.8125381  13.0679159  27.2154236  69.3130417  13.2272940
  68.1331482  45.5571175  15.6946249  67.2763214  45.7754936  16.0612144
  68.4199982  44.7930756  16.1948204  38.3173294  59.4245453   2.6727624
  37.7837257  58.7904472   2.1937892  37.9779053  59.3960304   3.5673063
  86.1343842   7.1595335  10.6486864  86.1575928   7.0426111   9.6989374
  85.2416306   6.9203362  10.8977070  34.4318237  40.7927628  52.1565590
  35.2786331  41.2387085  52.1397400  34.5946388  39.9880562  52.6486702
  28.8469505   5.4113278   7.1665111  29.3480034   4.6429925   6.8929443
  27.9319382   5.1462550   7.0731354  86.4353180  15.7326498  85.2937851
  86.7673798  15.1401758  85.9682770  87.1626892  16.3303471  85.1208038
   9.4945164  28.7712841  63.4933968   8.9527149  29.5243492  63.7291489
   9.6871624  28.8963509  62.5641632  49.7226486  43.0438080  43.4039230
  48.9561768  43.3565750  42.9233780  50.2074852  42.5195618  42.7664795
  72.2115173  46.9613724  61.1743851  72.9102707  47.5355453  61.4879112
  71.8511581  46.5669441  61.9686165  71.1258774   3.3003154  52.9649506
  71.7416992   4.0266027  53.0624237  70.5028992   3.6016357  52.3036385
   9.7507305  58.9425507  28.5985222   9.9539499  59.8594017  28.4132805
   9.3946352  58.6053467  27.7764988   2.1088536  64.3972473  50.7177353
   1.3184980  64.5289917  51.2413902   2.5624931  63.6719208  51.1470833
   6.3176765  50.3432655  55.2268448   6.1375594  49.9606514  56.0855637
   7.2424169  50.5877953  55.2627831  49.9329605  11.6419325  24.5518265
  49.3685646  11.5114756  23.7898102  49.5386696  12.3787546  25.0185814
  81.9972000  14.4285593  76.3654251  82.7949371  14.8891163  76.1051712
  81.7346649  14.8484077  77.1845932  29.6111259  62.7740784  76.2349319
  30.0065632  63.1857758  75.4665756  28.6741695  62.9475288  76.1440353
  66.0668945  71.0709152   0.5820540  66.8744888  70.5575867   0.5595096
  65.3767776  70.4409103   0.3745235  36.4797440  64.3365707  12.4853716
  36.5058250  63.3839302  12.3957863  35.5841560  64.5752029  12.2461843
  50.7250824  17.6155586   8.8128643  50.5437202  18.1716614   9.5705509
  50.4648476  18.1452351   8.0592384  76.7628326  62.8934669  19.6933918
  77.6023178  63.1649628  19.3221855  76.2032089  62.7388992  18.9323654
   6.6165519  52.8698959  80.0083847   7.0586228  53.7188568  80.0165100
   7.2551770  52.2710037  79.6214447  78.5316162  23.0612793  35.1083298
  78.6914673  23.3532887  34.2108841  77.5960388  23.2099514  35.2455215
   5.7634659  38.2142601  28.9003124   5.6974144  37.5426216  28.2215137
   6.0598559  37.7408371  29.6776505   0.8553494  68.4805603   6.6937437
   0.1157857  67.8937683   6.8516936   1.3987253  68.3973541   7.4773574
  46.6244049  31.0685120  17.5051289  45.6821175  31.2324905  17.5430622
  47.0225945  31.8962898  17.7743149  30.8579025  41.3393517  85.3028259
  30.5227661  40.7597809  84.6187134  30.1501656  41.3853989  85.9456482
  12.2839975  30.6726112  26.3423862  13.2034369  30.7153759  26.6051292
  12.0555553  31.5757065  26.1222401  16.2860985  16.5232182  61.1600914
  15.9712143  17.0043011  60.3948212  15.5923157  16.6282139  61.8111458
  51.2857094  71.3985825  84.4068680  51.7959442  71.5203247  85.2075348
  50.4422112  71.0619583  84.7092438  33.9845467  40.5108528  81.4483109
  34.6455002  41.0831718  81.8379593  34.3428383  39.6288223  81.5477066
  62.0159111   7.3311887  74.5653534  61.5942307   8.0008984  74.0269241
  61.3340912   6.6748457  74.7087555  47.8630600  63.7393761   5.0576739
  46.9763031  63.7563477   4.6976676  48.2917252  64.5047607   4.6747060
  45.1199913  30.4182682  71.9194641  45.6999168  30.8431244  71.2874680
  45.7121506  30.0055981  72.5481720  48.8726997  14.3028584  25.3415165
  48.3432808  15.0091391  25.7118092  49.0758476  13.7391701  26.0879879
   3.0563798   1.7273221  26.7660675   2.2385375   2.2067919  26.6338768
   3.0875359   1.5621104  27.7083874  66.6896820  38.2203979  38.1998291
  66.7295380  37.3241234  37.8661499  66.2517471  38.7146835  37.5069122
   3.8556616  45.5196648  59.3368568   3.9552402  45.8759079  58.4540176
   3.6951389  44.5857658  59.2015915  38.0906181  35.0481834  87.4519730
  37.9295807  35.2458496  88.3745956  38.7131233  34.3212242  87.4678879
  80.0283432  61.4735413  65.7673569  79.6722641  61.1515198  64.9392624
  79.3744125  61.2267761  66.4213562  44.4771881  54.7923164  10.3301535
  43.7419662  54.4295311   9.8361254  44.2328835  55.7042274  10.4881430
   5.4395790  35.9624557  37.6022186   4.7409482  35.3943443  37.2775650
   5.7594695  36.4177132  36.8233452  63.8147202  33.1372185  23.8155746
  62.9236679  33.4794807  23.7440834  64.3310242  33.8779259  24.1333942
  80.7766342   1.5774293   8.8095083  81.5359802   1.0161608   8.9663591
  80.1159821   1.2648357   9.4276190  46.8895988  47.5595436  23.1001110
  47.2339706  47.5528984  22.2070293  47.4921417  47.0028229  23.5932999
  12.4255438  45.7473755  82.2240982  12.2697325  45.5336914  81.3041611
  13.0265570  45.0677986  82.5293732   7.1579485  48.0623283  36.9735069
   7.0233517  48.7625999  36.3349648   7.0306063  47.2554626  36.4745216
  47.7872620  20.8964844  76.6939774  47.6273880  21.7415218  77.1141968
  48.7354851  20.8680649  76.5663147  80.7367325  67.5204773  67.8790741
  81.4272614  66.9188385  67.6008072  81.1420593  68.0486984  68.5667648
  78.2588120  43.2569351  34.7291031  79.1257172  43.1562347  35.1222382
  77.7154617  42.6094017  35.1782188  51.8701591   4.5955372  42.2614670
  52.3902550   4.5484204  41.4592743  51.8189735   3.6899436  42.5672646
  36.6185799  29.2289753  73.6227264  35.7787895  28.7704544  73.5954895
  37.2732582  28.5339146  73.5554810   2.0869555  30.8024616   7.3891602
   2.3977082  31.5094929   6.8236752   2.8727307  30.2946758   7.5915046
  14.5864506  42.2727242  74.6657715  15.1420822  41.6814346  74.1579514
  13.8137569  42.4058914  74.1167297  76.3367233   3.3391232  64.4229202
  76.7442551   3.8076007  63.6944427  75.5751343   2.9084868  64.0346451
   1.8703204  34.5856895  81.4726486   1.9935802  33.7075043  81.8329620
   2.7413311  34.9814796  81.5030518  43.0760117  38.8898811  79.5957565
  43.1201973  38.6578636  78.6681519  42.3557701  39.5178719  79.6515274
  86.6036911  32.5480499   5.7152348  85.8717880  31.9313812   5.6985474
  86.1987000  33.3954887   5.8997927  44.4128189  41.1491585  55.2661591
  43.7330513  40.8007774  55.8430328  44.9324951  40.3842049  55.0191460
  86.0041046  24.7401180  87.4433517  85.1679230  25.1150360  87.1668091
  86.3674545  25.3859272  88.0492706  55.0888062  64.2048721  68.5090408
  55.2529488  63.9935417  67.5900040  54.1912956  64.5373535  68.5217438
  36.2307549   0.6427587   0.1421911  36.6462669   1.4690735   0.3887383
  35.6738243   0.4225661   0.8889005  80.1544952  64.3518829  36.5382042
  80.0409393  65.2969055  36.6395264  80.5289001  64.2480698  35.6634026
  68.9790955  14.2438345  84.1414185  68.4465179  14.6788168  84.8072891
  68.5160675  14.4075794  83.3198166  40.9465942  32.8022194  80.0548325
  41.2808456  32.7250671  80.9484558  40.5981979  33.6923943  80.0054550
  86.2336960  11.8247528  50.9019585  86.5009995  10.9547777  51.1984787
  86.1032715  12.3231649  51.7086830  75.2404404  46.0675278  26.7697773
  74.6602707  46.8263245  26.7075996  75.8581696  46.1784782  26.0470524
  27.6622925  60.0916328  12.7328157  27.3192120  59.2459450  12.4441280
  27.1065407  60.7372131  12.2962418  84.8698502  22.0021133   0.8056697
  85.4027634  21.3578701   1.2716997  84.7239151  22.6995811   1.4447898
   2.0361862   9.6096411  39.1177368   1.1328999   9.6841850  38.8099251
   2.3563712   8.7970066  38.7261543  13.8964853  32.1267700  73.9559708
  14.6925926  32.3598518  73.4783554  14.2081480  31.8323193  74.8117752
  78.4122314  62.7621956  13.4738722  78.5074081  62.6120377  12.5333261
  77.7035446  63.4018059  13.5438004   1.7355709  27.4610901  81.3352509
   0.8394798  27.7691879  81.1998672   2.2217453  28.2442837  81.5930710
  14.0054255  50.4772301  17.5945530  13.8066225  50.5405006  18.5287399
  13.4771748  49.7407837  17.2866039  86.2104797  24.2771244  23.9071712
  85.8427734  24.8467751  23.2315044  85.4995651  24.1641254  24.5380974
  40.3556480  32.9775658  72.1018066  40.0486603  32.1526184  71.7257004
  39.5773697  33.5342979  72.1254883  47.9054985   2.0355556  51.4795303
  48.7885971   1.8310010  51.1720810  47.4627762   2.3982301  50.7122650
  24.6986332  63.0799332  34.1889954  24.4453812  62.4451675  34.8591957
  25.1887112  62.5670509  33.5463409  64.1129456  52.4007950  12.1356325
  63.1943092  52.3585510  12.4012470  64.2977142  53.3369789  12.0604181
   3.0191700  37.8888512  34.4717865   2.4148285  38.3898315  33.9240456
   3.6466379  37.5130386  33.8543053  78.7518845  31.7468586  76.7416840
  78.1901093  31.3932037  77.4313049  79.3852921  32.2941628  77.2058868
  17.4731712  47.7875252  64.1429367  18.1750813  47.6449585  63.5079346
  16.6674328  47.6725769  63.6391449  15.0417070  64.9553223  28.4073257
  15.6071205  65.7273178  28.4308395  14.3719826  65.1287079  29.0688686
  62.7063446  29.7114449  33.0572548  63.1248207  30.1029930  33.8239326
  61.8601799  30.1544113  32.9938622  40.8300972  65.7192383  22.4855824
  41.6993599  65.9984589  22.7730751  40.9219589  64.7806015  22.3220024
  56.9699097   9.7581768  14.1396151  57.4066696   9.8802147  13.2966566
  57.4904404   9.0892963  14.5844517  14.1671410  64.3427277  38.2933235
  14.4019814  65.2553253  38.4614067  14.3483295  63.8928833  39.1185760
  39.7431679  65.8743134   8.4908400  40.3817635  66.5514297   8.7143145
  38.8932304  66.2846832   8.6503010  22.2394009  53.2852707  76.3751907
  22.6271286  54.1502991  76.5079422  22.8838692  52.6760826  76.7354507
  53.0722923  12.7753353  71.4818726  52.3348503  12.6902590  72.0861740
  53.3879776  11.8797245  71.3616409   8.0242319  54.4695969  42.7709885
   7.4566150  53.6996155  42.7366982   8.7954950  54.2214813  42.2612610
  83.3794327  19.7401905  43.4402351  82.4656677  19.8695869  43.1862259
  83.5322342  18.8034763  43.3159370  63.2389336  41.0412483   2.9573517
  63.4381256  41.6063690   2.2108986  63.5759315  41.5183830   3.7156425
  36.9273872  12.3696365  12.9303465  37.0843201  11.5093298  12.5411491
  36.9294395  12.2095661  13.8740654  83.4584732  51.5932655  45.8756447
  83.7204056  52.5099487  45.9611931  82.5063934  51.6060677  45.9736786
  42.0527267  54.0627289  62.9610176  42.5735703  53.4489975  62.4430542
  42.2184753  54.9157333  62.5595894  81.2022934  31.1332340  24.6295242
  81.1119385  32.0437355  24.9106903  80.3189850  30.7715511  24.7015133
  65.1396103  69.5201874  32.9957619  64.7185211  69.6309586  32.1433296
  65.2187881  68.5722504  33.1024208  73.5326233   4.4254336  61.9266930
  73.9838638   5.2200842  62.2115593  73.9858475   4.1672845  61.1240883
  42.1945152  47.5951042  11.0830040  42.4269829  46.6719971  11.1833105
  43.0209236  48.0283890  10.8695936  14.5601616  47.5926895  28.3743572
  15.3698959  47.9626999  28.0227108  14.7922964  46.6965790  28.6179504
  81.6884079  51.8192673  82.3769913  81.3087921  51.0007896  82.0572586
  81.5721130  51.7824440  83.3263855  26.8503647  46.7924538  29.5072727
  26.4088173  46.6055679  28.6788158  27.7451363  46.4779358  29.3780632
  13.5767641  24.3789577  14.9713907  13.6465759  24.0463600  15.8662300
  14.4804420  24.4141521  14.6577673   5.5617495  49.1745338  85.3079224
   6.1417227  49.5089912  85.9920273   6.0230837  49.3614235  84.4903183
  74.2389984  69.3652496  19.1927528  74.2772369  68.4286804  19.3866901
  73.9486847  69.4095306  18.2817154  44.8412857  26.3756466  15.2215014
  44.9204292  26.7498722  16.0989552  45.5083733  25.6898003  15.1925573
  71.8453217  13.7938519  44.8944092  72.5995331  13.6524286  44.3222198
  71.6523819  14.7275963  44.8099785  36.4415207   2.8757751  15.4868717
  35.7348175   2.2544894  15.6623898  37.2255554   2.4514046  15.8353434
  10.2297249  31.8182964  87.4649277  10.6855555  32.2431717  86.7383347
  10.6948633  32.1164207  88.2465897  79.3720169  49.7689247  54.9128342
  79.2553635  49.9942627  53.9898796  79.2582932  50.5977516  55.3779640
  85.0670319  23.6489658  58.3228989  84.8297348  23.2800350  57.4721298
  85.1848602  24.5837746  58.1541328  34.0503235  20.7852802  11.3239422
  34.0009766  20.3460426  10.4749031  33.1373672  20.9348068  11.5696707
  59.0297623  46.4305840  16.8522701  58.4396591  45.8999748  16.3170471
  58.4523621  46.8890114  17.4627476  78.1019669  29.1964607  48.1991386
  78.0801697  29.9960556  47.6733932  77.1819611  29.0030766  48.3792267
  48.2485046   7.4317498  46.9378281  48.6134415   7.9594779  47.6481476
  48.5227852   6.5370040  47.1389008  54.4991379  59.7026558  59.6279068
  55.1839867  59.7017097  60.2966499  54.8504601  59.1567039  58.9245300
  28.5243225  31.5325642   9.6443958  29.3557186  31.8169098   9.2647095
  28.1605225  30.9272423   8.9982796  14.8087606  31.2533855  25.6922436
  14.5016060  30.6954269  24.9777031  15.7442856  31.0625076  25.7599983
  72.8890381  33.2209702   6.8324132  72.7664871  33.8753128   6.1446276
  73.2771301  32.4704628   6.3825774   8.1939268   2.7267978  57.5097313
   8.4626055   2.9117568  56.6098213   8.6472826   3.3859313  58.0353165
  73.4539337  12.1711102  52.2804756  72.7911987  12.0664902  51.5977821
  74.1945953  12.5817518  51.8343582  19.8547916  49.9049034  78.9786530
  20.1423759  50.5448380  78.3274918  19.6692924  49.1143379  78.4718704
  46.3120155  18.5177708  77.2293625  45.8308182  19.0107574  77.8939285
  47.0393715  19.0905228  76.9861755  34.2324333  35.5048218  62.6518631
  34.8690758  34.9897461  63.1474571  33.8027573  34.8686790  62.0800858
  35.2291183  64.1761703  79.7544403  35.3757286  64.2786865  78.8141022
  36.0987015  64.0026169  80.1149063  51.8706665  39.2326126  57.1314583
  51.9346924  38.5937614  57.8413849  50.9300117  39.3575935  57.0058289
   9.3506994   0.5015411  58.0682793   9.9945736   0.5198947  57.3602409
   8.9114761   1.3503284  58.0146599  64.2082596  49.5022888   7.5856075
  65.1165161  49.3262863   7.8312335  64.0421295  50.3900414   7.9026685
  40.0121346  37.9443169  85.7725449  39.5520325  37.1643829  86.0827789
  40.7207489  37.6031952  85.2268982  73.6824722  52.7507744  70.5686798
  74.1681671  53.3604736  70.0131607  72.7627029  52.9271927  70.3708496
  10.7564192  48.2205582   9.2506914  10.5065536  48.0572968  10.1601667
   9.9499311  48.5196152   8.8307238  43.8754959  57.6962814  10.1003990
  44.4083176  58.1324425   9.4354963  42.9791183  57.7645035   9.7716398
  26.2771282  71.2551956  76.3933716  26.5160007  70.4149628  76.0019989
  25.5009918  71.5337906  75.9073410   2.4948163  34.2612076   8.0741224
   2.6981673  33.9188995   7.2036591   1.9869391  33.5659065   8.4922771
   9.7535105  36.6230316  80.7343292  10.3889627  37.3278542  80.6091995
   9.7810869  36.4396095  81.6733932  68.4336472  58.4710350  41.0752907
  67.9989243  57.9351120  41.7386436  68.9179993  59.1267967  41.5768967
  24.6217155  66.6004028  73.5860138  25.4973640  66.7672729  73.2372589
  24.3535767  67.4353714  73.9696350  46.5559883  33.3091202  71.9629211
  47.1774864  32.9001961  72.5652084  46.6232300  32.7908363  71.1609955
  33.5800133  68.1151047  73.0437851  34.1045303  68.8996429  73.2038193
  33.3777504  68.1488266  72.1088104  31.6950569   7.1256323  82.0049210
  32.2783966   7.8119650  82.3287888  32.2810440   6.4104934  81.7570801
  17.1996956  68.9256134  25.7734222  16.7376690  69.5709991  26.3084431
  16.8056259  69.0081787  24.9050198  81.8226242  11.6729879  22.8649559
  81.1195908  12.3214645  22.8269081  81.5918503  11.1127357  23.6059647
  60.2527313  16.1299171  73.5690308  60.0202065  16.5087852  72.7213135
  60.9277191  16.7136765  73.9152222  11.9831581  56.0981712  66.3024979
  12.6098690  55.4393730  66.6015701  11.9205723  55.9577332  65.3577271
   3.7405710  35.3864403  72.5288773   3.2393944  35.4836578  71.7191849
   3.1364713  35.6606750  73.2188721  13.1255302  60.6714439  20.7445927
  13.7391605  60.2244759  20.1615753  13.0966434  60.1225357  21.5282364
  26.5269032  64.7117233  82.2284927  27.0052013  64.2427063  82.9122238
  27.0962601  64.6618195  81.4606628  62.9918404  48.2494888  34.9606094
  63.3422966  48.0545502  34.0914612  62.5250015  47.4534149  35.2146950
  84.9295883  18.8625374  39.9431152  84.2931061  18.5670815  40.5941315
  85.7606812  18.4861279  40.2326660  57.2435799  58.2654648  52.1678162
  57.7925987  57.4813881  52.1623917  57.5103683  58.7500725  51.3866539
  57.4339485  23.7816811  76.1206055  58.2625656  24.2501087  76.0196075
  57.2438583  23.4401131  75.2468643  33.1565552  36.7569695  86.9812927
  32.4399910  37.1957626  86.5227890  33.0740051  35.8370514  86.7299576
  60.6189613  38.2798729  83.9220200  61.0965843  37.6305275  84.4382172
  60.6556168  37.9470444  83.0252991  50.3359756  14.6626225  79.4182816
  50.3643684  14.7544279  80.3706436  49.7293205  15.3445597  79.1299057
  38.5738869  42.8048973  50.8871078  38.1970177  43.2460289  50.1257896
  39.4632111  42.5771675  50.6160507  21.9255772  44.3818855  36.7323990
  22.4569473  44.5523796  37.5100937  21.0928001  44.0597076  37.0772400
  53.8960342  20.3247337  83.7348175  54.8449783  20.2099228  83.6842651
  53.5680466  19.9755306  82.9061356  78.6947632  58.5583229  73.2465591
  77.8562164  58.6157074  73.7045822  79.1362534  59.3826447  73.4510269
  84.8675919  69.8782425   7.1264000  85.5931396  69.4945297   7.6189113
  85.1167679  70.7948227   7.0079379  85.0068436  21.6739349  12.3389730
  84.6856613  21.0102024  11.7286177  84.2701187  22.2751713  12.4484529
   0.6476887  35.1118240  84.2200012   0.7229493  34.9715500  83.2761307
   1.4663253  34.7695389  84.5790329  43.3138199  26.2521839  88.0309296
  43.9475060  25.9323673  88.6731033  42.4801521  25.8712883  88.3068695
  83.0568695  56.7805023  38.0433960  82.1991730  56.7051048  37.6251907
  83.6488800  56.3009911  37.4638939  47.6235580  51.4528809  47.6117134
  47.9959335  50.6506386  47.2456894  47.5483513  51.2759247  48.5494003
  56.7570419  33.7365913  11.7090816  55.8248329  33.5262642  11.6545105
  56.9378700  33.7815437  12.6479702  43.5417442  55.6935425  78.2311020
  42.6322327  55.4486160  78.4014816  44.0278893  54.8718147  78.2993622
  28.8494606  63.8991661  87.0070496  28.7829952  64.8219833  86.7616501
  29.7017117  63.6225662  86.6703186  28.4149666  56.8539009  52.6164055
  28.8716946  56.0155792  52.5467949  28.8016129  57.3951836  51.9281120
  17.6377621  49.0495987  13.2915230  17.0963764  48.3417892  13.6410046
  17.0174122  49.6306190  12.8512793  71.8163452  26.3165970  23.6938725
  71.5444870  26.1723919  24.6002560  72.4501724  27.0320644  23.7448711
  39.7837029  38.1371918   1.9145817  40.3700371  38.4864502   1.2434194
  39.5816460  38.8893471   2.4710560  82.1338348  32.3795128  19.3704700
  82.7777023  32.4347610  20.0765972  81.7747345  31.4951496  19.4424305
  19.6317883  49.3918381  65.7500687  18.8824921  49.1715240  65.1966705
  20.1644897  49.9760551  65.2104874  83.1811829  62.1923561  17.9057579
  83.0481033  61.2971840  17.5940094  84.1234055  62.3380165  17.8206844
  83.8176041  57.5322533  21.9871426  84.6977768  57.2609062  21.7265472
  83.6284866  58.2922478  21.4368038  77.9429321  67.4574890  20.5242176
  77.8761292  68.3408356  20.1616459  77.0355606  67.1662445  20.6141434
  69.4337234  25.8036098  75.7101974  70.3152466  26.1722622  75.6533051
  68.9035110  26.3618011  75.1414032   3.4185326  37.2613983  43.6162338
   3.0413382  37.9303360  43.0448532   4.0577679  37.7342987  44.1491280
  36.9863586  34.4208069  73.1627197  37.4869576  35.1768456  72.8560562
  36.5801697  34.0657997  72.3720169  82.0020599  53.9771042  13.8161602
  82.1746979  53.0741997  13.5493412  81.1564560  54.1865501  13.4195204
   3.6691172  54.8267403  30.5702915   4.0300350  55.7122879  30.5281658
   3.3333263  54.7471771  31.4631214  19.4028664  64.2945175  52.5554428
  19.0147209  63.9699516  51.7428970  20.0241966  63.6134033  52.8128586
   2.2965879  59.6959343  35.7526207   2.2459025  59.5522690  34.8076210
   2.7468817  60.5357094  35.8434029  43.0560188  56.3110199   3.9990213
  43.9895821  56.2929840   3.7883837  42.6700325  56.8745689   3.3284533
  49.3211517  16.7647171  60.6775246  48.9213219  16.4640255  61.4935837
  48.8550491  16.2862453  59.9919205   4.2586727  55.7236786  82.4820633
   3.7256145  55.3249817  83.1699066   4.5587668  54.9846230  81.9529419
  30.8219242  10.3801928   3.1812968  31.4824429  10.5321207   3.8572149
  31.3185349  10.0573149   2.4293921  16.3508873  39.4054146  59.1449013
  15.7382803  40.0013733  59.5759201  16.1990337  38.5596352  59.5666046
  45.1863480  33.0393524  65.1939545  44.6841240  33.6583672  64.6640320
  44.5466003  32.6721802  65.8039856  48.4320259  71.8235092  81.3556442
  48.1621513  71.0059814  80.9372406  47.7471809  71.9998703  82.0007095
  49.3727417  41.7950821   5.0630546  50.0904732  42.2872200   4.6644382
  48.5873489  42.2956047   4.8420048  54.8713722  47.9119453  29.3298054
  54.6701965  47.7016602  28.4179192  54.1257706  48.4344864  29.6252079
  53.1977158  45.0668411  10.3510780  53.7636452  44.3568382  10.0480070
  52.6999969  45.3242798   9.5750399  75.4002991  20.7287655  71.4576492
  75.1902008  21.6583672  71.3685837  75.0683517  20.3300514  70.6532440
  24.9468594  50.2582664  53.8647118  25.4610882  49.5841293  53.4204826
  24.5724125  50.7803040  53.1551361  85.6715088  62.3763657  64.8944244
  84.8988190  62.3138390  64.3329315  86.0250244  63.2484474  64.7191315
  79.0308533  32.7774315  12.0190144  79.9091797  32.7610092  12.3991413
  78.7506027  33.6888428  12.1028137  69.2239075  48.1342545  45.6433411
  69.3751221  47.7041473  46.4849892  70.0861893  48.1586456  45.2284889
  67.4187775  30.8556786  66.7125626  66.6484146  30.2920017  66.7835464
  67.0664444  31.7455769  66.7256012  74.6703262  40.9205437  50.6115761
  74.4573898  40.0529175  50.2678909  73.8674774  41.2101593  51.0449257
  74.0895309  50.3480873  66.5800171  74.7395401  49.9860458  65.9778137
  74.5929794  50.5947189  67.3558655  13.8243008  55.9001884  49.9715652
  14.7773952  55.9451904  49.8952942  13.6710711  55.3380661  50.7310181
  68.3475037   2.7233276  26.8997459  67.8168335   1.9348650  26.7859764
  69.0089111   2.4757082  27.5458546  57.4057083  24.7953701   2.2109113
  56.4808083  24.7553864   2.4542067  57.8635635  24.3779869   2.9405632
   0.7949921  42.9943924  51.8936958   0.8850362  42.1082649  51.5431252
   0.1043180  42.9223022  52.5524826  37.6713829  39.3487282  71.1338654
  38.3268204  40.0108261  70.9141846  37.0477448  39.8067856  71.6973267
  61.6239662   3.2514346   9.6319532  60.8631401   3.6921592  10.0102911
  62.2409363   3.9584715   9.4430637   0.4201063  70.3585129  11.0828381
  -0.1169272  69.7764893  10.5451841   1.1955339  70.5304260  10.5486174
  79.7530518  13.6572084  22.8502865  78.8996506  13.7623825  23.2708569
  79.6596146  14.0974407  22.0054798  73.9538193   3.5966313  71.3130035
  73.3818970   4.1419277  70.7728195  74.5340271   4.2190323  71.7514114
  71.3690643  24.1146679  44.8899460  70.9542313  23.4962349  45.4913445
  70.6668396  24.7165413  44.6432648  81.5725250  59.1462288  27.3638115
  81.8861465  59.5081596  26.5350285  82.2545624  59.3709984  27.9966850
  55.6886368  39.1913681  85.2009659  55.7377014  38.5123825  84.5280609
  55.2817917  39.9369850  84.7596512  20.0439281  42.5516701  19.7688713
  19.5754528  43.2027092  19.2464581  20.1537361  42.9655075  20.6249752
  65.3406982  49.2827568  38.5982361  64.9019852  49.2132263  39.4461288
  65.8676910  50.0789680  38.6658134  26.2979527  28.4744205  85.6492386
  26.7547493  28.1703129  86.4335098  25.4516754  28.7856159  85.9704895
  55.3830833  20.1684933  86.3012619  54.6593399  20.2152042  85.6765671
  55.5028992  21.0709686  86.5969238  72.6760101  64.4510040  87.8603134
  72.2905350  65.2758026  87.5647583  73.4171753  64.7148209  88.4055786
  74.0928574  69.8887100   4.7750816  74.5943985  69.5517731   4.0326796
  74.7390594  69.9917526   5.4736786  32.2091026  57.3339653  12.4786797
  31.9230309  56.4764557  12.7934427  31.4970970  57.6308403  11.9119854
  53.1396332  47.1956062  12.2047911  53.0990868  46.8667030  13.1027937
  53.0285378  46.4169502  11.6592798  80.4833679   3.1810360  59.5870514
  80.6052246   2.2329760  59.6376953  80.5192642   3.4760776  60.4969368
   0.1551242  33.3075371   2.9235797  -0.3350902  32.5025330   3.0905745
   1.0670094  33.0726891   3.0954592  19.9658508   3.6587551  22.9468307
  19.9793262   2.8567321  22.4245186  19.0649414   3.9746401  22.8774700
  31.1336632  40.4023514  14.6979265  30.9054928  40.4119873  13.7683687
  30.5780258  41.0771751  15.0879412  49.5077858  55.6130104  45.6795845
  48.7343864  55.0696182  45.8306084  49.3583832  56.0089340  44.8210068
  29.0272007  64.2177429  65.7456131  29.0498199  63.6520119  66.5174103
  29.2707596  65.0826874  66.0754395  68.9718094  66.0053024  88.2127380
  68.4660492  66.0108871  87.4000778  69.4172897  66.8524551  88.2234192
  30.8213596  39.3561516  11.0318747  31.1961327  40.2273636  11.1613550
  30.8779163  39.2089882  10.0877476  48.2766304  32.7694740  74.1377335
  48.5361748  32.0871735  73.5185928  48.9908180  32.7994843  74.7743378
  53.8432236  67.4594269  11.3828869  54.0987625  68.1370087  12.0088425
  53.2868652  66.8654327  11.8867397  15.5045376  51.5308418   3.9725673
  15.8850040  52.3817902   3.7549398  15.6601725  51.4320564   4.9118495
   4.5401344  57.1903191  60.9404221   4.1666369  58.0358200  61.1891327
   3.8691332  56.5517654  61.1817474  67.3185883   6.4034109  35.2736130
  68.0918198   6.3050156  35.8291779  66.5967102   6.0702701  35.8066597
   7.5027347  36.0649872  88.6754837   6.9269805  35.6501198  89.3178406
   7.3935270  37.0037842  88.8270187  35.3280830  15.7670975   2.2842677
  35.8758354  15.9077702   1.5119890  35.8190002  16.1669426   3.0021517
  43.1106644   4.4309878  75.7201843  43.8057022   4.9799876  75.3572006
  43.2266197   4.4934425  76.6682816  31.2877674  60.5861778  57.6389809
  32.0015984  60.2366447  58.1723709  31.0374279  59.8597336  57.0681534
   6.2473326  33.9044838  63.5301857   5.6625452  34.4834366  63.0412369
   5.7439837  33.6544380  64.3050079  34.5176048  40.8506775  39.1273537
  34.7991180  40.4314461  39.9405174  35.3014488  41.2936974  38.8024597
   9.1330175  26.0282478  63.5168190   9.7296228  25.5969067  64.1285706
   9.3071833  26.9625225  63.6309547  41.5017967  41.8161812  50.9997864
  41.9473076  41.0058784  50.7524757  41.4871178  41.7989769  51.9567184
  44.1439323  36.6929893  17.0920105  44.5425644  37.4572678  16.6758366
  44.8801384  36.2208595  17.4810219  10.8635807  54.9868622  33.0968742
  10.9403782  55.7659683  33.6476250  11.7388363  54.5994797  33.1065598
  60.1994591  13.9334116  47.9664421  59.8458252  14.3783159  47.1962242
  61.0644379  13.6294537  47.6913795  63.6922646  53.4083557   7.5560474
  63.2422104  54.1760330   7.9086919  64.1362381  53.0229950   8.3114376
  46.2186127   9.0510540   7.4677110  46.4087181   8.6659145   6.6122813
  45.8622208   8.3270273   7.9824939   6.6387396  65.7585983  28.5800247
   6.1267543  65.2728119  29.2266407   7.1323271  66.3964691  29.0955067
  55.7560387  28.1551533   1.3923421  55.3366280  28.1402988   2.2526357
  56.6050568  27.7359314   1.5325274  86.5853424  26.2032986   6.5248713
  86.7896042  26.2047710   7.4600229  86.9656677  27.0175514   6.1953597
  23.7960873  32.9754448  17.1459618  24.0609531  33.7895012  17.5742016
  23.3099823  33.2592506  16.3717613   2.6985981   2.7866447   0.9210015
   2.6465366   3.0543664   0.0034796   2.3810725   3.5455680   1.4103323
  26.9025993  54.7759323  71.1762695  25.9836979  54.7260818  71.4396439
  27.2553272  53.9079208  71.3721542   3.0563252  55.7669563  56.5204391
   3.9982927  55.9370232  56.5230064   2.9829009  54.8234138  56.6638565
  64.4813919  63.7910843  72.4102783  64.9476852  64.3825150  73.0010529
  65.0618362  63.7007256  71.6545334  73.5493393  15.9452906  46.7830887
  72.7342758  15.5899754  47.1375580  73.3428955  16.1555328  45.8723679
  75.1863098  49.0393410  55.9332047  74.4223175  49.1086655  56.5056953
  75.6745758  49.8482666  56.0863838   7.3222165  68.9398499  63.9112015
   7.5607462  68.6005936  63.0485077   7.5060291  68.2175598  64.5118179
  25.5520744   5.7360888   6.9563618  25.8099537   6.6535764   7.0455008
  25.3080444   5.4687099   7.8424716  80.4558258  28.0704632  79.3634415
  80.9847641  27.2745399  79.4178925  81.0343246  28.7645645  79.6793442
  24.6524792  57.1782684  55.6964722  24.8493443  57.3488579  54.7753983
  23.7564678  56.8415642  55.6915092  64.3621750   2.3182051  52.2709656
  63.9863358   1.6500087  51.6978302  64.0393982   2.0941920  53.1438141
  12.1125011  44.4534302  67.8217773  12.6541939  43.7294922  68.1359634
  11.8874884  44.2118187  66.9233246  18.0755539  63.6620560  88.7823334
  17.2897682  63.9416809  88.3126678  18.7599087  64.2598114  88.4813766
  75.4289551  46.2084732  34.5380058  75.1382370  45.4574623  35.0554008
  74.6205673  46.6616096  34.2984161  24.4406605  37.5025902  85.7603073
  24.7647934  37.6747627  84.8762741  23.4888649  37.4696198  85.6642456
  15.4873629  66.2379379   3.0028889  16.3816376  66.1840973   3.3399441
  15.0429382  66.8414688   3.5982614  72.3951874  28.6463184  84.5103989
  71.8483047  28.8928242  83.7644882  72.1930161  29.2982807  85.1814423
   3.5798080  55.7142906  75.5818253   4.2268848  55.4917488  74.9124985
   3.1883204  56.5317612  75.2740784  75.0120926  59.4146309  54.9765892
  74.4100571  60.1271057  54.7617378  75.1459198  59.4908180  55.9213219
   5.0347686  47.5304108  43.3307724   4.2171783  47.3499718  42.8668556
   4.9201422  47.1185150  44.1871796  47.2909431   6.6025238  70.9572601
  47.1535034   7.1746979  71.7122192  47.9213142   5.9501863  71.2627411
  81.5659714  25.0214901   4.2649970  82.2696304  25.5244617   4.6750178
  81.4750137  25.4042702   3.3923926  76.0929718  56.7866669  25.1689396
  75.5352020  56.3660812  25.8233318  76.6007004  56.0690613  24.7901421
  74.6655197  32.1548233  25.4865856  73.8966599  31.7020321  25.1400814
  74.3081436  32.8059235  26.0903912  54.0844650  69.8317490  20.2275982
  53.1821136  69.6302185  20.4753571  54.5961609  69.0986328  20.5695667
  44.6590767  42.6552505  65.6052780  45.5566711  42.8208618  65.3169632
  44.1998100  42.3792458  64.8120956   0.8662651   2.6823339  76.5638351
   1.5636201   2.9673405  75.9733276   1.0553823   3.1270821  77.3900681
   2.8248911  18.0683899  30.2350922   2.8243189  18.1491203  31.1888809
   3.0785098  17.1599655  30.0717678  55.3949165  64.7625198   0.0697734
  55.4860229  65.6302490   0.4634559  55.9726067  64.2024307   0.5882382
  54.4732895  31.8843746  65.1508636  54.2936821  32.8245163  65.1610336
  54.3972359  31.6160774  66.0665359   3.5452187   2.6063650  57.7925148
   4.0790124   1.9711783  57.3151970   3.3387139   3.2803638  57.1449699
  45.4466972  60.9413109  58.7037659  45.3592072  61.0735931  57.7597961
  45.3811226  61.8207474  59.0759506  55.0252724  23.5706596   2.2975049
  55.6731110  23.1849136   1.7078122  54.3679733  23.9514332   1.7150934
  26.3745899  10.1353474   4.3106513  26.2785797  11.0417423   4.0183139
  26.6087627  10.2056961   5.2360950  58.8496056  24.1773415   6.9108710
  58.4565506  24.7105980   7.6017947  59.7665482  24.4511814   6.8893356
  61.9102058   2.2345874  37.4193611  61.0439835   2.4769340  37.0920143
  62.2482491   1.6187103  36.7692451  25.1315651  58.3333588  37.3163452
  25.6491318  59.0512199  37.6810799  25.7509594  57.6079521  37.2365723
  58.8667908  58.2335129  21.7772408  59.4287758  58.7569237  22.3485966
  59.4697914  57.8286018  21.1538086   1.0304878  56.0807533  52.3168373
   1.2022226  55.1427956  52.2333145   1.5473485  56.3522682  53.0753670
  78.9397049  60.7398872  10.3159542  79.6283264  60.8303185  10.9746294
  78.2400818  61.3181190  10.6199408  19.6381550  22.5893116  30.5802250
  18.7647362  22.5647240  30.9710789  19.5256710  23.0928383  29.7739754
  20.0508213  22.5831604  74.0025177  20.3007030  23.4914608  73.8328629
  19.9869385  22.1860905  73.1339035  66.0716248  66.9066925  42.3145103
  66.7417755  67.2491226  42.9060173  66.1403122  65.9557648  42.3996048
   2.0658879  14.4101944   7.2132220   2.1685231  13.6371040   7.7682266
   2.6456008  14.2492390   6.4687371  78.7778320  67.3170471  64.2080078
  79.0658493  67.3519745  65.1201782  78.0261307  67.9085159  64.1713715
  42.4394989  20.0920105  81.4308472  43.3591614  20.3533421  81.4773712
  42.2555122  20.0290623  80.4936066  59.7581940  57.8133202  47.0302048
  60.0206032  57.8195953  46.1096992  60.5641441  58.0034866  47.5103149
  77.8735886  34.4199867  19.1387691  78.8222198  34.2944946  19.1629581
  77.5943146  34.3109818  20.0478096  50.9687042  65.0221024   9.3864498
  51.1753883  64.4947205   8.6148376  51.3095284  64.5136719  10.1223631
  66.6508560  19.0348091  54.6568947  67.5328369  18.6631966  54.6726379
  66.2033463  18.6208878  55.3948898  68.7975388  36.8931770  52.8154411
  69.6942825  36.6579933  53.0537186  68.8081894  36.9400177  51.8594475
  10.8917999  57.9124565   2.7342491  10.4642324  57.2118378   3.2267451
  10.2135954  58.5797119   2.6291749  39.5634384  15.0123234  69.6290665
  39.2692337  14.7402020  70.4983368  39.0793991  14.4490681  69.0251770
  58.5424042   5.1883745  79.7894669  58.6526070   5.2397490  80.7389145
  57.8981400   4.4923077  79.6604385   8.7109776  34.7847137  26.8460331
   8.5279818  35.0539398  27.7461777   7.8862076  34.9262695  26.3813305
  82.3544922  64.2593460  38.2008591  82.3114777  63.4197464  38.6585236
  81.5202713  64.3215561  37.7356339  54.1404648  61.4703255  31.0195904
  53.6087341  62.1286125  30.5722084  54.8423080  61.2684364  30.4008083
  54.8176575  53.2084694  53.1244316  54.1076965  53.5540543  52.5833626
  54.6268845  52.2736359  53.2013893  56.5853691  24.6719933  49.0697060
  56.4230995  25.1175766  48.2382278  57.0489769  25.3188286  49.6015930
  38.8758087  28.6973476   4.1252069  39.5911446  29.2118549   4.4991188
  38.9137306  28.8811626   3.1865878   8.7621460   1.2570443  35.2689476
   9.2753725   1.1418438  36.0686722   9.1475344   2.0240836  34.8454437
  27.6464024  43.2427597   5.6289830  27.3752499  42.4625549   5.1452532
  27.7106495  42.9505424   6.5382218  24.8070202  67.8166275  10.5451612
  25.1531639  66.9429321  10.7270079  24.3161545  67.7148361   9.7297335
  29.8532219  43.1040726  58.9160957  30.0737209  43.9283752  59.3498421
  29.0351906  43.2877884  58.4542465   5.1995697   2.8755915  86.5665588
   4.4536586   2.8394299  87.1653366   4.8108625   2.8014321  85.6949844
  17.0520878  52.5222664  58.7095833  16.2781124  52.2531471  58.2148399
  16.8061962  52.3964844  59.6260719  39.5743103  43.2896500   2.5292873
  39.5849037  43.8780403   3.2842159  39.0997543  43.7747154   1.8542025
  76.6676178  59.8496590  13.1113558  76.8657913  60.7044945  12.7289715
  75.8032913  59.9591751  13.5078077  81.2037582  61.4815788  79.3781815
  80.8358307  62.3464737  79.5593338  82.1088409  61.5373306  79.6846695
  64.7309494  24.7571564  27.1181679  63.9054909  25.1969070  26.9145145
  64.5805206  24.3481216  27.9703960  65.9463501  58.3928528  59.6140175
  65.2511597  57.7394295  59.5366402  65.4836426  59.2282066  59.6797600
  81.3192749  47.9532127  17.5772514  81.9624863  47.5309410  17.0078697
  81.7371292  47.9716988  18.4382305  14.3988438  16.7753029  26.8877640
  13.6180010  17.1771240  26.5069008  14.7095385  16.1701851  26.2143154
  26.3934460  56.8164673  88.1404877  26.5458374  57.2572060  88.9764023
  26.0490131  57.5016975  87.5677261  43.6496658  63.8487434  30.4462299
  44.1584511  64.0731735  31.2253342  43.8875999  64.5174103  29.8039684
  73.0905762  59.1605415   4.5674982  72.1442871  59.2411728   4.6869402
  73.4636917  59.8046875   5.1692424   0.7630380  38.7759438  68.2635803
  -0.1713052  38.6470108  68.1004486   0.8499954  39.7147369  68.4289093
  36.8925285   3.5355587  58.7832680  37.2856674   2.8757432  58.2120247
  36.0021935   3.6424189  58.4484291  80.1221695   0.3357319  43.2866783
  79.6709137   1.1371583  43.0215111  80.3627090  -0.0875704  42.4625511
  53.2326241  25.6228962   1.0258255  52.4666252  26.0259171   0.6171010
  53.1756096  25.8791924   1.9463112  75.1774597  24.4576378   0.2041965
  75.1490402  24.9248695  -0.6307396  74.2769394  24.4892807   0.5271400
  51.9306412  41.5841675  17.2317314  51.4187355  41.2119293  16.5136604
  52.8238029  41.6299362  16.8905525  51.6187248   9.3650799  34.7933426
  52.0986328  10.1932602  34.7992706  50.9131393   9.4925880  35.4274750
   8.0236702  62.6227951  46.3407516   8.5475855  61.8220787  46.3163261
   8.2304831  63.0694771  45.5198174  50.1254120   9.7612791  15.8057165
  50.3926506   9.3278713  14.9951782  50.2924576   9.1132832  16.4901352
  46.8246613  18.2788582  71.2680588  46.4014702  17.7055607  71.9071732
  46.5583725  17.9279442  70.4182434  55.3245049  63.1292725  74.0067291
  55.4636421  63.0051994  73.0678558  54.4453583  63.5023232  74.0713272
  60.8430977   5.9843888  83.1993713  60.8435822   6.9234309  83.3849258
  59.9162292   5.7494678  83.1551132  72.0830078  63.7241020  69.6034698
  71.5857468  64.4102554  70.0486069  71.4156876  63.1581039  69.2154388
  36.2272530  35.5259705  53.5464935  37.0788422  35.1544952  53.3162041
  36.4349709  36.2642822  54.1191902  16.3360424  54.9824104  61.3199005
  16.6808910  55.1700592  60.4469185  16.4903202  54.0456619  61.4421005
  83.1353378  70.9044647  71.3485031  83.3451843  71.7877426  71.0451660
  83.4053040  70.8961411  72.2668076  79.4718475   5.2702050  31.4207592
  79.2460938   5.9891958  32.0109444  80.1701355   4.7981925  31.8744392
  22.5695629  44.1208076  86.3240356  21.6511517  44.3043709  86.1264038
  23.0147896  44.1902313  85.4795303  81.4903793  44.0537262  88.0619049
  82.0463867  44.8066063  88.2625504  81.0082932  43.8892708  88.8723221
  77.3530731  34.7495537  87.7864151  76.7692032  35.3675880  87.3466797
  77.5902710  34.1189270  87.1065063   5.8211088   1.9093497  68.5283661
   6.5415440   2.4278424  68.1700745   5.8863516   2.0310521  69.4755554
   7.8101149  18.2614765  18.9332333   7.7124205  19.0903969  18.4646416
   6.9442129  17.8562260  18.8861408  74.5215073   5.8278065  20.2657280
  73.7654419   5.6183228  19.7173576  75.0765991   6.3744969  19.7096329
  65.0575333  39.1903915  56.4710426  64.2835922  39.5754547  56.0599785
  64.7832718  39.0018463  57.3685188  67.4335175  34.1622429  11.7509413
  67.7092667  33.9830513  10.8520060  66.5625229  34.5490685  11.6616926
  64.0051956   2.2476814  23.8836613  64.2503204   2.9657331  23.3000965
  63.6774902   2.6808276  24.6718388  15.4996166  48.2580757   8.7764339
  15.7964420  49.1445274   8.9821739  14.6044416  48.3731880   8.4576178
  20.1183434  37.1846275  56.4420166  20.9583473  37.6420708  56.4049568
  19.5692654  37.6400185  55.8037643  69.9767532  11.0829153   0.7223545
  70.6666870  10.7437258   0.1521108  69.5187454  10.3024979   1.0344552
  38.1941528  70.8042755   2.1191130  38.5675774  70.1584930   2.7189081
  37.6943512  70.2851257   1.4891002  14.4863977  59.3668747  58.2438202
  13.5920649  59.7051086  58.1991234  14.3837242  58.4153442  58.2269783
  64.7145081  47.8140030   5.5508418  63.9677048  47.3832397   5.1349626
  64.3395309  48.2673836   6.3058681  60.3120537  70.3179245  53.4946327
  59.9611397  69.6129913  52.9504356  60.9032173  69.8775253  54.1052055
   9.6852627   1.6219108  15.3467665  10.4101505   1.6878915  15.9683905
   8.9133635   1.8796444  15.8507271  52.5246544  59.5377235  -0.0788410
  53.1814041  58.9226837   0.2477121  51.7050896  59.2481995   0.3220665
  55.9035835   5.4947553   6.9057841  55.6820450   4.5638680   6.9302940
  55.9877663   5.6964664   5.9738731  62.7189484  49.0733681  45.6923523
  63.3031960  49.6701088  46.1600990  62.2862816  48.5713959  46.3830414
   0.6876636  24.0162430  34.7278938   1.3216441  23.4347591  35.1476288
   1.1550435  24.8450947  34.6240044  66.0229187  70.6155014  38.0123329
  66.0881577  71.3997269  37.4673882  66.7057419  70.0339890  37.6779366
  70.2418365  49.1333656  36.7318230  71.1697311  49.0272064  36.9415054
  69.7965469  49.0697098  37.5767441  84.0013123  28.5678711   4.9904656
  84.0060883  28.5453949   4.0335412  84.1117554  27.6537609   5.2520690
  21.9200344  16.8164806  16.0736046  22.3948593  16.7241020  15.2476263
  22.3012371  16.1497250  16.6448784  73.0629120  46.9829941  78.3739548
  73.3168030  46.1061935  78.0858841  72.1079483  46.9495010  78.4300919
   7.8708954  63.7812920  36.5030556   7.1442299  64.3842545  36.3461189
   7.4997392  62.9129944  36.3464203  45.2467842  40.6097679  48.4100952
  45.1130600  40.3663368  49.3261147  45.6046906  39.8211060  48.0024796
   8.4179115   4.0320940   9.0370502   9.0264626   4.6540847   9.4358301
   8.5047617   3.2392342   9.5662603  55.8624611  14.7308388  16.0893364
  55.8539352  14.2875128  15.2410307  55.3938942  15.5512238  15.9355669
  82.0941544  30.9977074   4.5789008  82.0539856  30.1132240   4.2151589
  82.9850922  31.0761948   4.9199390  18.0518913   0.8719469  69.9247131
  17.7321205   0.0109843  69.6550446  18.8160172   1.0282331  69.3698120
   9.8373222  48.6225662  46.4970436   9.5376606  49.0515404  45.6955338
  10.5380964  48.0379944  46.2082100  29.9679165  11.0021915  73.6084061
  30.5685730  10.7419500  74.3067703  30.5317211  11.1436539  72.8479156
  10.4873695  13.9463072   8.5811520  11.2519922  13.5493889   8.9983330
  10.8534136  14.5403519   7.9259005  63.1748695   9.3990688  68.9077911
  62.4912338   8.8753300  68.4899750  63.7506790   9.6589012  68.1886520
   4.9503231  36.9675751  56.8648300   5.7824044  36.8590889  57.3253746
   4.7319946  36.0887985  56.5544815  51.8656425  46.4922905  32.1612549
  51.1349335  46.7246246  31.5882645  51.4613380  46.3409195  33.0155754
  77.2822189  63.0532799  54.5155716  77.2425003  62.3976746  55.2118721
  77.2180176  63.8920021  54.9723587  17.7710533   3.6378801  29.3887482
  17.9610348   3.4473951  30.3073654  17.7647057   4.5937495  29.3386993
  27.4359455  55.9195328  42.8882866  26.9724522  56.3421097  42.1652145
  28.3162441  55.7600670  42.5478821  23.1411247  66.3196793  22.4156475
  22.4794064  66.9260941  22.0830631  23.1020012  65.5719070  21.8193703
  67.0697632  59.1814651  15.4422693  67.4457703  58.3816757  15.0745907
  66.7129288  59.6478577  14.6863728  39.2117729   8.0614367  82.1928864
  39.0073357   8.5961580  82.9600296  38.8584480   8.5572624  81.4542694
  40.8199615   8.8600922  73.8633118  40.9733925   7.9551759  74.1350021
  41.2197723   9.3886061  74.5540009  12.6501541  56.5262833  40.7295570
  12.8159285  56.3831329  41.6613579  13.4632416  56.2631226  40.2984314
  50.8865814  46.3423500  68.7770615  51.5935211  46.5400238  69.3913803
  50.4904327  45.5403595  69.1178055  49.6739960  24.1968918  58.4802628
  50.3561478  23.7271080  58.0004654  48.9090843  23.6234703  58.4320297
  79.0268860  57.3594551  44.3893318  79.9174042  57.6585846  44.5730057
  78.5708160  57.4361572  45.2273941  37.1933403  67.4954681   8.7940321
  36.3516350  67.7210770   8.3979702  37.0391006  67.5585709   9.7366142
   9.9139881  40.3127251  45.1423912   9.8408537  39.5493011  45.7151604
  10.3133221  39.9737129  44.3412476  34.8933640   1.6236609  83.0588531
  33.9545059   1.7427573  82.9153442  34.9483986   0.9542800  83.7408524
  24.8751793  58.4011269   1.3325080  24.1541748  58.8041611   0.8488246
  24.5488682  57.5330544   1.5695841  16.1827984   1.3270190  77.0968475
  15.5920715   1.0204043  77.7847824  16.0402775   2.2729368  77.0627975
  22.8050404  59.2311745  30.0715313  22.7163277  60.0680084  30.5276775
  23.4140949  58.7274551  30.6114883  78.1254349  66.1535873  75.3793106
  77.3615646  65.5946274  75.5217667  78.8401031  65.5419312  75.2022018
  61.5817642   4.9399753  51.1212654  61.2378654   5.8332376  51.1142044
  62.5270195   5.0480633  51.2263145  51.0517502  35.2801666  59.9774704
  50.9394264  36.0076256  60.5893707  51.9775963  35.3107376  59.7364120
  27.8650970  68.4758606  74.8962708  27.3135319  68.1652985  74.1782455
  27.8520355  67.7623444  75.5342102   9.2050276  32.4245186   3.3655000
   9.5814409  31.6448631   3.7737658   9.5220366  33.1519508   3.9008338
  53.5924149  55.7617416  63.8147469  53.0293999  55.3285713  63.1731834
  54.4800339  55.6318817  63.4808311  47.3187714  10.5504751   3.0803673
  47.5108871  10.7959414   3.9853919  48.1745834  10.3566475   2.6979485
  49.8117104  44.7654915   2.1312816  49.3118286  44.0330429   1.7709110
  50.3931961  44.3639717   2.7769508  86.7254715   1.5448779  70.1256866
  87.5020676   1.1674418  69.7125549  86.0160599   1.3692645  69.5075226
  50.4375992  37.4425888  55.1153259  49.7820129  36.8661575  54.7226944
  50.8854446  37.8397522  54.3683777  37.2463760  36.4322319  30.5175304
  36.9482918  35.5396843  30.6928387  37.1878815  36.8749237  31.3641911
  78.0332260  68.5088501  38.5324669  77.1426849  68.6434021  38.8566055
  78.3018646  69.3678741  38.2066574  63.7676888  33.9925423  72.6786880
  63.0996780  34.5782700  72.3224335  63.3848190  33.6576614  73.4895477
  74.8385925   5.3055878   4.6363139  74.7048111   5.6005030   3.7355583
  74.3439255   5.9288521   5.1683631  74.2013321  42.3649406  81.4743576
  74.6218338  41.5658989  81.7920685  73.2639999  42.1976891  81.5727158
  54.3277893  45.7500954  26.0444851  54.1258469  46.6466980  26.3119774
  53.7382507  45.5808563  25.3096161  68.7445068  45.2047081  29.1405869
  69.5173569  44.6501541  29.2473526  68.8217621  45.8594055  29.8345833
  39.9004669  11.4409809  86.1609955  40.3747559  11.7899790  85.4063568
  40.0174332  12.1015406  86.8437958  29.3170757   2.0289772  83.5706329
  28.6354675   2.6253574  83.8804245  29.3338757   2.1564705  82.6221085
  20.5014954   4.9855952   4.5990925  21.4006271   5.2775102   4.4488273
  20.2884865   5.3072515   5.4751043  39.1269798  68.1310730  53.5279732
  39.1271019  69.0784531  53.3912468  39.9487267  67.9551086  53.9862328
  49.2763557  51.4142532  12.6301327  50.0701103  51.9016266  12.4095497
  49.1590729  51.5597496  13.5689125  62.8985786  45.3026848  20.8829231
  63.3262291  44.4782448  20.6513004  62.0297813  45.2416763  20.4858074
  72.6341324  35.9831429  25.6981964  73.0374908  36.5761299  25.0642414
  72.4841614  36.5259933  26.4721813  40.1246452  59.6880035  33.8870926
  39.5590019  59.2693329  33.2382545  40.8877144  59.1131439  33.9461403
  82.6157761  60.2240601  32.6489067  83.5209351  60.1056328  32.3609962
  82.5149841  59.6137276  33.3793640  47.3665543   9.3332100  12.4122114
  47.3661537   9.8513937  11.6074028  48.2514381   8.9719172  12.4640121
  13.4704447  38.9818764  68.1554108  13.5771961  39.6160049  67.4463806
  14.1679239  39.1957855  68.7750854   6.6219802  44.5517426   9.0378780
   6.5614333  45.4637299   8.7535486   6.4920607  44.0423431   8.2379627
   2.6835628  19.4212227  66.2811966   3.2510834  19.5199986  65.5167389
   2.9929662  20.0858269  66.8966599  39.3721695  22.1050186  12.1445084
  39.5014076  21.9263306  11.2130575  38.7850533  21.4102211  12.4424696
  61.4386024  42.5083580  29.4106827  61.8599548  43.3187294  29.6970310
  61.8619270  41.8227654  29.9273911  59.4674835  67.9174500  52.6131592
  58.7862892  67.2614441  52.4653206  59.9116440  67.9959793  51.7688904
  25.2320232  38.1985512   7.7215505  25.6920776  37.8252144   6.9697514
  24.6568470  37.4955864   8.0236149  27.6889133  57.5019608  74.9043045
  28.0720501  57.7603645  75.7425613  27.5174599  58.3291397  74.4541855
  60.8222160  51.6549530  61.8570976  60.4636612  51.3891716  62.7038727
  60.9562187  52.5991402  61.9394493  64.0074692  64.7777176   7.9259791
  64.6097717  64.7777176   8.6699257  64.1891937  65.5998611   7.4706845
   3.4856005  43.6006813  42.2125053   3.5680020  44.3263512  41.5937614
   4.3305888  43.5714226  42.6612473  56.9593163  11.2325115   0.1504891
  57.7451591  10.6897192   0.0867836  56.2337418  10.6158695   0.0528823
  47.6200218  24.3715420  63.5151367  48.2275429  24.7607536  62.8861160
  47.7487869  23.4278221  63.4200363  18.6549625  41.2785873  22.6756878
  19.3815365  41.8901787  22.5562096  19.0408993  40.5359955  23.1402817
  25.8384380   4.8414893  42.6609764  24.9480972   4.8984866  43.0077858
  26.2971344   4.2651215  43.2722282   5.1824732  65.6273804   7.3907299
   4.5880909  65.0258484   6.9422917   6.0543118  65.2657776   7.2314558
  36.3984451  62.0767555  87.6559677  36.6370430  62.8633499  87.1654892
  35.4514656  61.9999313  87.5395279  82.3663254  38.2439728  85.0457764
  83.3015900  38.0471191  85.0982971  82.2191162  38.8928108  85.7339325
  71.5685120  14.8608065  61.1238899  72.0555267  14.0885611  61.4114342
  70.7436295  14.5117655  60.7862968  82.8675156   8.5634251  47.3239212
  83.2969513   9.1540709  46.7050858  82.0562363   8.3061771  46.8858795
  60.7728767  37.0640450  25.3878555  60.7378082  36.8113556  26.3104343
  61.7074928  37.1404991  25.1958199  62.3905563  70.9950867   0.5977888
  62.8512650  71.5204926   1.2519523  61.9981575  71.6381149   0.0072210
  41.8474960  10.4533634  75.8378754  41.3043785  11.1669216  76.1726685
  41.6692276   9.7200899  76.4267349  48.2412453  46.8520126  20.9690876
  49.0029068  46.3535728  20.6730061  47.4894791  46.3330536  20.6831474
  47.2821960  47.5753822  33.8091736  47.5704231  48.3458138  34.2986526
  48.0938110  47.1454697  33.5395584  82.7771530  40.1736565   1.6913781
  82.3602371  39.4998436   1.1543612  82.8132706  40.9437370   1.1240108
  72.3417511  43.8134270  35.8755341  71.9273529  42.9510689  35.8465691
  73.2663193  43.6409645  35.6976051  76.3195343  12.8509083  14.0271397
  76.3927002  12.0436630  13.5179911  76.5104523  13.5480242  13.3995943
   7.4267521  52.0961380  68.7645645   6.9175720  52.7343941  69.2641602
   7.1004720  52.1780968  67.8684311   1.4629413  39.8704224  29.0221252
   2.3102326  40.0403328  28.6104717   0.9881333  39.3395233  28.3826447
  81.4545975  17.3429089  27.7595901  81.7585220  18.2430286  27.6427917
  81.9371414  17.0242558  28.5223770  56.2331009  34.1199112  87.0598755
  55.8885040  34.9868813  87.2739944  56.0367775  33.5871239  87.8304749
  47.4842720  41.3729973  44.5186272  47.1701393  41.9600182  43.8309021
  47.5533295  40.5191193  44.0915985  37.5765495   3.0014493  12.1608686
  36.6210022   2.9506528  12.1849174  37.8132858   3.4466395  12.9744987
  66.6545029  49.2144394   9.1969938  67.5927887  49.3901787   9.1264696
  66.4551697  49.3461266  10.1239004   8.2392569  55.7340889  83.0946579
   8.3334646  54.9071388  83.5674286   8.7968712  55.6337700  82.3231430
  54.6281586   4.0326433   2.2957106  54.6596642   4.3024044   1.3778498
  55.2210083   3.2827866   2.3454530  50.0498390  52.2053490  35.6802368
  50.5535049  51.3989410  35.5695229  49.8308563  52.4753227  34.7883873
  58.4477005  58.8541031  64.1340027  59.2701950  59.2245064  64.4542084
  58.6155586  57.9135971  64.0747910  25.3734131   9.3726244  88.2565689
  25.7387466   9.5295839  89.1272736  24.5225143   8.9671869  88.4233704
  71.0842972  60.1458511  80.0185471  71.2748032  61.0415306  80.2972870
  70.7465286  59.7170334  80.8048401   4.4135399  17.3936577  85.3773422
   4.5114307  16.4916706  85.0722733   4.1707549  17.3096199  86.2994156
  68.4482193  29.4845715  10.2746286  68.8551636  29.7461643   9.4486780
  67.5114899  29.4521408  10.0804043   3.0116928  69.8933563  26.4014225
   3.1277399  70.1760025  27.3085461   2.1464663  70.2218170  26.1570301
  80.6470871  24.4034576  75.1295776  79.9694824  23.8223324  74.7840576
  80.2875137  24.7258549  75.9560165  56.9070702  41.1043320  12.0758791
  57.1954308  40.5833511  11.3264399  57.6048737  41.7469902  12.2035294
   6.6961622  27.7098141  80.0684509   6.5146389  28.4236546  80.6797714
   5.8804045  27.5995312  79.5799713  67.2475510  24.3358173  41.2079735
  67.4377213  23.9935589  40.3345184  66.2935257  24.4091587  41.2339973
  81.1811142   5.7857032  38.1457634  81.5440979   5.4863291  37.3121872
  80.2472382   5.5841880  38.0865059  60.7361984  28.8473015  70.3360596
  61.4738808  29.3145027  69.9439163  59.9786339  29.4054508  70.1605759
  23.5664349  29.6799221   2.4431963  22.9090118  30.2813644   2.7929044
  23.9359131  30.1406174   1.6898859  18.1194286  64.9945221  34.4035072
  17.7588348  65.7367325  34.8886032  18.6286812  65.3939667  33.6982841
  27.1629982  54.1599388  87.5812607  26.5875244  53.5237007  87.1566849
  26.5866699  54.8893585  87.8093414  55.6387177  68.7825241  45.8812599
  55.5008774  69.5474930  45.3226357  55.0177536  68.8963547  46.6007576
  84.4274979  25.2626095  27.8171005  84.5471878  24.5820560  28.4794865
  84.8910294  26.0228691  28.1683407  60.6367760  66.4932404  39.8926964
  59.7238693  66.4649811  39.6062851  60.7669144  67.3939056  40.1894989
  70.1375885  20.3971157  71.7711716  69.6538773  20.7736416  72.5063477
  69.4755173  20.2610378  71.0934067  28.4357605  67.7054825  68.1789932
  28.5781689  68.3248215  67.4631958  27.5193119  67.4437332  68.0904770
   8.5748072  53.0000992  83.9619293   8.9603977  52.2111473  83.5809937
   7.7380853  52.7073669  84.3230896  84.5379333  34.8890686  17.9450836
  85.2409210  34.3736687  18.3405609  84.1759644  34.3193817  17.2663593
  54.7276382  13.5188684  33.1771202  55.6360474  13.3897734  33.4498100
  54.2127075  13.0345325  33.8224869   6.8402629  39.6755562  20.5311928
   5.9139829  39.4964752  20.6929550   7.1534367  38.9062195  20.0555096
  54.1776543  25.4721603  44.5281372  53.3725548  25.9779854  44.4177094
  54.1545410  24.8277073  43.8207626  85.5032349   1.3163295  84.7064362
  85.1655731   0.6305286  85.2825394  84.7281189   1.8146511  84.4473953
   9.9270868  24.9962482  -0.0943970   9.6490107  25.5666828   0.6221979
  10.3637371  24.2628841   0.3389001  85.5354233  52.1829567  71.8519287
  86.0050430  53.0093651  71.9647980  86.2234573  51.5356369  71.6975784
  12.1717901  38.3533859  63.1764183  11.2597542  38.0733833  63.2539940
  12.6292219  37.8734970  63.8668480  32.0237083  54.5494652  84.6795578
  31.1758766  54.1076393  84.6326141  31.8480816  55.3534203  85.1684799
  60.0592194  24.3248081  48.6856003  60.6751213  24.5829391  49.3713570
  60.5910950  24.2781506  47.8911438  67.1872025  52.9611092  33.6871681
  66.6047363  52.2026176  33.7278786  67.4649048  53.0987167  34.5928040
  70.4394531  35.6907082  70.0364838  69.8111267  35.6395988  69.3161850
  70.2638016  34.9110718  70.5633087  17.9860287  56.1364326  29.3635998
  17.8660202  55.9864731  28.4258671  18.2130947  57.0638885  29.4307079
  52.8820114  24.2029610  69.6419296  52.6559296  24.4897442  68.7571259
  53.8250427  24.3528461  69.7086563  70.0199661  47.0853462  78.5025253
  69.7947311  48.0151138  78.5346832  69.9538498  46.7913284  79.4110489
   9.7695923  53.8958397  25.7125568   9.1181974  54.3012657  26.2848740
   9.3027782  53.1735268  25.2923393  44.7219658  58.6001816  66.8819351
  44.6614075  59.4817047  67.2500076  44.8794441  58.0351028  67.6383209
  72.2209091  49.4261551  48.8704414  71.3683014  49.1319580  49.1909637
  72.8192139  49.2667885  49.6004181  47.1331902  50.8443680  50.1917496
  46.4223938  50.3059235  50.5397148  47.9134293  50.5394592  50.6548805
  85.8085403  26.7579365   9.2371750  84.9738312  27.0345116   8.8590231
  86.1039276  27.5140324   9.7444201  11.2148438  27.9319992  68.6952591
  11.5082951  27.6636333  69.5659485  10.2722960  27.7651806  68.6982040
  10.2503653   6.1770835  84.2840576   9.7900524   5.3383784  84.3143387
  10.7795630   6.1312399  83.4877701  43.4718361  59.1901054  71.9558411
  42.5153580  59.2154236  71.9286041  43.7030907  59.7038116  72.7296982
  43.5595169  13.4398184  20.1566238  44.4530411  13.2196608  19.8932285
  43.0037651  12.9161558  19.5794334   8.8678398  71.3873138   7.0150752
   8.4458942  72.2031784   7.2844443   8.1416283  70.7918320   6.8300014
  54.6016731  68.5321579  41.1622925  55.5435905  68.3619156  41.1562042
  54.2078323  67.6914444  41.3953819  58.4601555  54.3370285  27.7344036
  59.1030464  54.4180298  28.4389324  58.8029480  54.8903465  27.0325756
  66.9226151  32.4665070   7.9711208  67.0362396  32.5266190   7.0225916
  65.9814072  32.3411789   8.0921316   2.1416430  68.5491486  82.4171448
   1.4367464  68.8564148  82.9871750   1.8684690  67.6714325  82.1502609
  22.2557869   7.0295925  15.0343399  22.4106159   7.2847528  14.1248598
  21.4465427   6.5191808  15.0054541  63.9641724  47.4221458  69.9814758
  64.4102402  46.7543182  70.5023041  64.4629822  47.4622383  69.1655045
   4.7614198  66.2694321  26.5698891   5.3495536  66.1995621  27.3218517
   5.2504711  66.7875290  25.9306431   6.2756963  53.7582169  29.4255829
   6.9941573  53.8511353  30.0512142   5.4886417  53.9542656  29.9338570
  26.1171875  36.2081718  61.5462685  25.7390995  35.6919403  62.2581558
  25.5959187  37.0108109  61.5294151  12.5386238  52.8025894   3.4144044
  13.4907846  52.7211647   3.4691060  12.3950968  53.5486794   2.8321815
  31.4873390  37.9709625  75.5192642  31.6551838  38.4198647  76.3478470
  31.5448494  38.6601830  74.8575211  47.5487518   7.8062892  24.7210922
  46.6673889   7.6094089  25.0383720  47.8138428   8.5815630  25.2159748
   6.5353804  29.6828480  22.5843430   6.9466233  30.4321613  23.0152054
   6.7577929  29.7868080  21.6591644  81.2325516  40.9662361  38.5087013
  82.1859055  40.9227371  38.5825424  80.9664078  40.0682678  38.3110771
  13.2493792  11.7117605  84.1295166  12.4861050  11.2330770  84.4527969
  13.1903849  12.5692568  84.5507660  71.4086456  24.6151829  17.1175880
  72.1228409  24.7403450  17.7424774  71.5915833  25.2405224  16.4163666
  18.0713978  19.5508461   0.0230976  18.4668312  20.0989761   0.7009019
  17.1290512  19.6807919   0.1295418  46.1278839  56.7629623  46.6852646
  46.6002083  55.9362259  46.5870171  45.2050095  56.5101128  46.7097626
  70.3714905  22.0251045  86.1774292  70.1950836  21.1007977  86.3528519
  71.3096695  22.1247616  86.3390427  53.7653465  24.7202549  25.9155636
  53.0925484  25.2380638  25.4734726  53.8021202  25.0814438  26.8012390
  57.6200790  52.2866898  43.2150421  57.3107796  52.0183372  42.3498535
  56.8284760  52.3221588  43.7520142  75.2949524  68.9715958   2.5098915
  76.1949081  69.1743774   2.7652254  75.3179398  68.9434052   1.5533829
  21.3296967  47.7342377  59.5311012  21.3368397  48.2317467  58.7133827
  21.2239742  46.8234215  59.2563896  75.4266052  50.5718765  63.7807007
  74.5491180  50.8653641  63.5355186  75.9446945  51.3756027  63.8236465
  58.9665833  67.3456802  59.7390938  59.1162872  67.1318436  60.6600151
  58.1009407  66.9850616  59.5471344   3.0543180  64.5578537  19.3664074
   2.1853218  64.7582016  19.0186443   2.9548216  63.7005615  19.7803860
  81.4785919  23.5902214  26.4704742  81.7392883  23.8964729  27.3390808
  82.1986847  23.0256557  26.1894627  85.0175400  70.6871948  73.6642303
  85.5943069  71.4009399  73.9365387  84.5787888  70.4132538  74.4696426
  67.4137878  20.3771019   6.4640756  66.6562881  19.9148445   6.1052675
  67.8747635  20.7139988   5.6958079  59.2114830  16.5640697  11.8494549
  59.2199936  16.4959202  12.8041878  60.0278282  17.0151787  11.6342468
  80.7587509  21.4100819  19.6505375  81.4734039  21.6685371  20.2325211
  80.9171600  21.9008541  18.8441372  70.9959717  68.8553238  48.8047676
  70.5170288  68.7849197  49.6305313  71.9151230  68.9145889  49.0653038
  33.5971336  33.1531677  64.6186142  33.5423241  33.2146339  65.5722656
  34.5356369  33.1126060  64.4347687   3.1664960  34.2530823  67.6302795
   3.6181121  34.8027954  68.2706604   2.3997991  34.7652893  67.3732758
  14.7909632  62.5378799  67.1120071  14.0628672  62.6261520  67.7270813
  14.7840395  63.3551712  66.6137848  15.9383945  53.2333488  34.9122124
  15.3781195  53.9351158  35.2436485  16.2209606  52.7620888  35.6959839
  71.0676041  13.0742092  63.9132385  70.7204590  12.5612984  63.1834145
  71.8664246  13.4724503  63.5675240  29.2993755  42.3122368  73.7156372
  29.9031086  42.8094826  73.1638336  29.8002834  42.1236305  74.5092010
  22.2080421  44.3950996   5.6523352  23.0368481  44.7356148   5.9890270
  21.5413284  44.9637833   6.0374656  46.5500450   1.5589145  10.0287066
  45.7626381   1.0642074  10.2556229  47.0171089   0.9958088   9.4114609
   8.4470024  48.5973625  43.1696663   8.9093266  48.6246490  42.3319626
   7.5726218  48.9327736  42.9717026   9.8177023  67.9836426  81.7756729
   9.3800735  67.4197388  82.4134216   9.1197958  68.5391846  81.4284897
  74.9287109  61.0892143  48.8699913  74.9382935  60.3072395  49.4219437
  74.1051178  61.0305099  48.3857536  57.1222038  50.1040039   1.7039429
  56.5114784  50.0221062   2.4364324  57.8422279  50.6311493   2.0502269
  35.0248909  29.4764652  77.0867462  35.3545303  29.7083187  77.9549713
  35.6233101  28.7966080  76.7770386  80.2420959   4.9658394  48.7731018
  80.3131027   4.5308342  47.9234161  79.4731750   5.5298233  48.6899261
   9.5143852  48.1190338  80.6488953   8.6536407  48.3292122  80.2867126
   9.9718571  47.6732521  79.9359894  29.7077484   3.7938504  25.4945698
  29.8165379   3.5978034  24.5639992  30.4912338   4.2919264  25.7276001
  21.0952148  59.7448311   2.6601889  20.4410362  60.2162132   2.1443591
  20.5824203  59.2086792   3.2650158  63.9477539  18.9820843  38.0148048
  64.2419739  19.0430584  38.9236183  63.5368881  18.1197300  37.9534149
  86.8550949  65.1264877  57.3578758  86.3516388  65.7137146  57.9217339
  86.5165787  64.2537766  57.5578995  73.6764908  41.1695061  29.7933521
  74.2856369  40.7216835  29.2063046  73.0950012  41.6562233  29.2092190
  31.1194229  31.9087563  63.6133614  31.9297905  32.3539581  63.8610153
  30.4733772  32.2159653  64.2493515  61.0211067   3.0233908  77.5096207
  60.4850235   2.4220762  76.9926453  60.5655251   3.8630261  77.4488983
  59.1212883  16.2706928  43.2727051  58.8898964  15.3418827  43.2715149
  58.6148186  16.6446266  42.5516701  85.2161102  17.8982372  23.8680115
  84.6773224  17.9881763  24.6540470  84.5851135  17.8366528  23.1508751
  61.7075806  36.9657326  49.6164436  61.7980423  37.4933357  48.8229179
  61.7894630  37.5949936  50.3330765  25.6857967  63.1069870  19.8261452
  25.9350529  62.1927719  19.9614830  25.6962776  63.4904404  20.7031193
  27.4444008  44.2756767  20.0998993  27.2440853  43.9849052  20.9895935
  27.5166283  43.4663315  19.5939636  51.1555634  27.6547241  64.6657715
  51.5368690  28.2623920  65.2994690  51.6587906  27.7976246  63.8641624
   6.5695744  24.0277271   4.1065111   6.3721952  23.5526772   3.2992935
   7.5152287  23.9292221   4.2172651  57.1276245  12.5533199  27.9209824
  57.2199059  12.4111595  28.8630581  57.2771797  11.6912050  27.5328808
  26.8962879  48.4369431   8.0477362  26.2101688  48.4539986   7.3805165
  27.0434608  49.3578110   8.2635412  30.8563404  49.6885529  81.7271042
  29.9501057  49.4639511  81.9381104  31.2896690  49.7599030  82.5776215
   2.7677460  49.6053963   8.4721060   3.0578458  48.8799591   7.9191012
   3.5772791  49.9827538   8.8163319  65.0366592  28.2093086  13.2297087
  65.5214386  28.8884163  13.6987839  65.6057663  27.4405155  13.2658186
  63.8948059  35.5571175  58.0871429  64.8503876  35.5094185  58.1156883
  63.6961403  36.4796143  58.2476463  24.3331375  39.4244576  28.1150818
  25.1454601  39.9186287  28.0048008  24.4625607  38.9281349  28.9232559
  50.3770103   8.2816086  32.4541588  50.7083549   8.4372911  33.3385849
  49.9817276   7.4108582  32.4963036  48.3773613  19.4164467  25.3625774
  47.9836273  19.3607769  24.4918842  49.1995201  18.9324265  25.2850437
  46.5898361  20.4046497  64.9281387  45.6837120  20.7015820  64.8444672
  46.5183296  19.5008698  65.2352219  76.3593750   7.6376324  45.8820457
  75.4908600   7.2365031  45.9136848  76.7134552   7.3755007  45.0322495
  83.0679016  27.0192108  33.2178574  83.9620972  26.6793575  33.1841431
  82.5391541  26.2742367  33.5036392   9.8385382  61.3670311  10.6464930
  10.5059967  61.9654160  10.3108330   9.2341518  61.9296455  11.1306591
  50.0965462  45.5404091  13.9170618  49.9088745  46.4770393  13.8559875
  49.9020538  45.3160019  14.8270321  27.9677792  60.7601624  66.6098404
  28.6467628  61.3124733  66.9973526  28.3832378  59.9034767  66.5112839
  10.2461939  18.0292912  86.1858444   9.6734962  18.7778263  86.3530121
   9.6637850  17.3559399  85.8342285  78.7052536  11.0239954  38.1674690
  78.3334198  10.7893620  39.0177193  79.1901855  11.8324919  38.3330154
   3.6805100   1.8010371   4.1354375   3.4763410   1.0129396   3.6320002
   3.4221056   2.5240304   3.5638263  56.8601112  40.6657257  31.9784679
  57.1588249  39.7667923  32.1160240  57.4609299  41.0201073  31.3229809
  51.2667122  34.8328362   8.2885342  51.7340508  34.6146812   9.0949068
  51.2190208  35.7888451   8.2904987  84.2763138  58.7730827  70.6144409
  83.6042328  58.1233177  70.4086609  85.1043396  58.3126755  70.4779739
  74.9296417  50.2905960  19.0823631  74.7745895  49.3683014  18.8784943
  74.6145935  50.7625313  18.3114834  84.2436905  51.8364182  80.2207947
  85.0533218  51.7894669  80.7292557  83.5591049  51.9830856  80.8735199
   2.1928079  59.0200577  22.1939888   3.1138754  58.8533783  21.9937763
   2.0223157  58.5056343  22.9829941   2.7128878  19.4048424  79.1084442
   1.8260325  19.5496197  79.4382324   3.0274179  20.2783909  78.8756027
  76.4072266  39.8181801  56.7907448  76.1502457  39.9895325  57.6967430
  75.6297989  39.4283524  56.3909073   8.7150126   9.0155611  84.2620010
   8.8263578   8.1528893  83.8624573   8.3146772   9.5479956  83.5746307
   7.4966283  56.6951485  71.6985397   7.8474770  55.9283905  72.1515427
   7.7647796  57.4371033  72.2406006  68.2181091  36.5202522  32.4025307
  67.4768829  35.9209671  32.3149490  68.2135468  37.0271149  31.5905552
  47.9142647  66.7819824  82.2331390  48.2067375  67.2853165  81.4733047
  48.1210022  65.8737259  82.0127869  26.6739235  19.0377140  77.8994751
  25.8328819  19.4583416  78.0782318  26.4753971  18.1014233  77.8860474
  16.9293633  57.1858635  36.2552109  16.2237682  57.7554855  35.9487877
  17.7221336  57.7135544  36.1588478  10.4867592  29.4844360  74.3110504
  11.0057898  29.9294491  73.6411209   9.7352762  30.0599823  74.4533691
  37.3592224  29.8064785  84.2591705  36.7051506  30.2729225  83.7387390
  38.1264763  29.7548885  83.6891785   8.3239679  57.8156738  57.2356796
   8.7491179  57.7019653  58.0857086   7.3899555  57.8635902  57.4395370
  76.1240082  12.6736298  74.4036560  76.5723343  13.4125013  74.8151245
  75.6217728  13.0658455  73.6893997  10.2030697  29.9747772  32.1544342
   9.8450737  30.8213615  31.8872871  11.1190586  30.1573944  32.3638306
  64.7571259  17.1767941  82.8305740  65.3881607  17.5820751  82.2357864
  64.2094345  17.9026604  83.1295547  65.0280151  63.0421638  44.8355598
  64.4765625  62.6765327  45.5272598  64.8439484  63.9813194  44.8538017
  22.8652611  22.1254311  19.9951630  22.3091335  22.7997074  20.3854256
  22.4711952  21.2989273  20.2741547  24.9618511  42.2125854  14.9580545
  24.0901299  42.3479118  15.3295641  25.5627384  42.4813919  15.6529722
  13.6647549   1.1212503  28.3806973  12.7985353   0.9028483  28.7244949
  13.9017124   1.9340745  28.8272400  40.6352348  12.5960627   3.6466460
  40.5955086  12.0390987   2.8691854  39.7573395  12.9708357   3.7179050
  11.6179609  38.6892395  70.3921432  10.7804308  38.6806602  69.9287796
  12.2577610  38.4139214  69.7355728  85.9563141  27.8090420  88.7563248
  86.8828812  27.5910702  88.8572998  85.7030869  28.1766376  89.6030731
  19.9457970  23.3985825   5.1494098  19.0036182  23.5485764   5.0717530
  20.0471649  22.4525585   5.0445514  21.8828468  58.7881470   7.2975974
  21.1832047  59.4410095   7.3199944  22.1531410  58.6953049   8.2111368
  83.0093384   4.9879370  53.2057915  83.9350662   4.7445226  53.2028999
  82.6491318   4.5691738  52.4240494  32.7726021   2.5822067  87.6680527
  32.9170609   1.6850611  87.9688721  32.0664597   2.5087702  87.0260239
  84.7430649  18.1942616  82.3576584  84.8731079  18.8516350  81.6741486
  83.7924423  18.1087570  82.4299850  66.2917557  52.2434006  65.5993271
  66.1330566  51.5618668  66.2524414  67.2004471  52.1098480  65.3297348
  67.5390854   3.3259761  85.6168976  68.3272934   2.8572745  85.8912659
  67.8046112   4.2451787  85.5887527  85.6434860  65.6948929  26.9223461
  85.9281006  66.1585693  26.1348000  84.7551422  66.0143661  27.0805035
  31.0022583  44.8411751  20.9818134  31.1552696  45.4338379  20.2458992
  30.9287128  45.4177055  21.7423611  50.4568634  63.9874954  55.5962753
  49.5101318  63.8735657  55.5128937  50.8302269  63.3083839  55.0344582
  65.8210983  70.9612274   4.6578064  66.5853424  70.8088150   4.1019931
  66.0497971  71.7351685   5.1725259  18.1481247  41.3559303  66.0391006
  18.1311302  41.5297012  66.9802399  19.0498886  41.0887718  65.8611069
  39.0167198  25.7726822   5.2124500  38.5747414  24.9236336   5.2106481
  38.3799553  26.3749905   4.8277559  10.8781109   5.5194941  79.2005615
  10.6091681   6.1310787  79.8860245  10.1464119   5.5145288  78.5834503
  53.1407242  65.4005127  20.4915752  53.1675720  65.4359665  19.5354099
  53.7926445  66.0422134  20.7734470  56.3101540  35.6409874   7.8093958
  57.0792885  35.8997879   7.3017650  56.6327515  35.5562515   8.7066040
  42.3443451  59.7512550  50.7133255  42.6817474  60.5858650  51.0386200
  42.6740952  59.6927490  49.8166275  54.5595360  41.4990616  48.9816971
  55.3362846  41.3634415  48.4390182  54.1901703  42.3249397  48.6690865
  58.2037354  31.7662926   5.8585835  59.1388397  31.5834560   5.9501510
  58.1633263  32.6905975   5.6131029   8.0507565  38.7646446  66.1781921
   8.6735706  38.0948448  65.8958817   7.2753267  38.2723389  66.4475937
  81.4278336  48.7789421  45.9833031  81.3773193  48.3741837  45.1173668
  81.6564331  48.0590096  46.5712395  84.0075073  49.5972443  22.1444569
  84.4887466  48.9252701  22.6272545  84.6741791  50.0364113  21.6163330
   7.9029336  54.0345383  55.7706604   7.3769813  54.8007927  55.5416183
   8.5906658  54.0085411  55.1053925  52.9749947  35.6568794  87.9590988
  52.4697266  35.9594154  87.2045135  52.7193527  34.7407570  88.0667953
   6.3143616  55.2383461  38.4095955   5.9546299  55.8854294  39.0163193
   7.1492763  54.9813347  38.8008652  46.2213783  69.8638687  69.1140671
  45.7146034  70.1132584  69.8868637  47.1184120  70.1260071  69.3210526
  61.6836281  70.3352127  50.2228088  60.7264709  70.3300934  50.2151070
  61.9313698  69.5631638  49.7140961  57.2811089  47.1215477  87.8922653
  58.1398315  46.7784424  87.6450653  56.6583786  46.4880638  87.5357056
  20.4515400  16.5578213  85.1882172  20.1210442  16.6021271  86.0854568
  19.7003174  16.2686367  84.6702728  51.7074394  51.9924850  68.8486633
  51.3075714  51.4886284  68.1398163  52.4206581  52.4729156  68.4282684
  43.9683380  58.1413002  17.6103039  44.0457878  58.8023682  18.2982140
  43.3159561  58.4981422  17.0075645   9.5417099  12.4185276  82.5175400
  10.3714685  12.5993404  82.9591751   9.7144375  11.6357889  81.9943619
  20.6014862  38.4372940  65.3169556  19.8117371  37.8977852  65.3551483
  20.9191208  38.4611702  66.2196045  77.3061981  51.5760612  88.5837936
  77.7504654  51.3079987  87.7794342  77.9599075  52.0890503  89.0589142
  26.7440071  61.2744904   6.6811628  26.8013802  60.5250587   6.0884671
  25.8096390  61.4788017   6.7191868  51.1171837  29.2049351  30.1425896
  51.7390366  28.8049660  29.5346775  50.6858292  28.4630489  30.5665836
  84.0613632  44.1084442  73.7916183  84.0552902  43.1862640  74.0480957
  83.8779221  44.0970001  72.8522339  28.8595753  34.2208824  73.3974457
  28.1820583  34.3343391  72.7308655  28.7829018  33.3045540  73.6633453
  30.1239052  21.5861301   4.8821521  29.9611225  20.6591320   4.7077646
  30.8488235  21.5885582   5.5072289  48.4436874  28.1380577  66.0378113
  49.0067444  27.5351677  65.5522995  48.5928040  28.9891968  65.6260376
  65.2105637   6.0523930  19.6807976  65.4639816   5.1366029  19.5653038
  64.5889969   6.2200694  18.9724369  61.2990799  27.4004860  67.5519943
  61.7027168  27.1701145  68.3888016  61.8742943  28.0720501  67.1854477
   0.3756746  66.1592331  46.5151863  -0.5034999  66.5236893  46.6174507
   0.7650985  66.2249374  47.3871155  11.4994097  31.7633934  64.8395386
  11.8704910  31.0001869  65.2823029  12.2081566  32.0851898  64.2824402
  84.7544327  47.9020958  11.8698092  83.9136276  48.3070335  11.6569414
  85.2643814  48.6057510  12.2711220  51.3360367  28.3129425   7.4204512
  51.5218773  27.3742504   7.4439797  51.8388596  28.6380062   6.6736350
   6.9607205  52.9402161  66.2899094   6.5001731  53.7687225  66.4229507
   7.8472867  53.1970329  66.0363770  79.7091675  31.0182533  59.4821281
  79.4226761  30.1676369  59.1495514  79.2512436  31.1155739  60.3170319
  22.0451717  61.2743340   4.9266963  21.5040359  60.6787109   4.4083939
  21.9527988  62.1218643   4.4915028   1.8998516   2.8899789  22.7420654
   2.3348713   2.2065578  23.2518940   1.0230298   2.5436568  22.5763054
  54.4049911  14.0984707  18.2710304  54.9344330  14.4138889  17.5386143
  53.5023842  14.2822161  18.0107117  10.7224226  40.9067993  77.8830261
  10.0809031  40.3079262  78.2651749  11.3875303  40.3337555  77.5016022
  64.6124496  23.4086266  61.0336418  63.9534569  24.0816078  61.2041016
  64.9384613  23.6094036  60.1563492  36.1507492  41.0567398  23.8334064
  36.9827080  41.0023880  23.3631687  36.0481453  41.9875069  24.0318336
  71.3283157  42.5193901  49.6175385  71.9060974  43.2203140  49.9193649
  71.5025482  42.4529762  48.6786728  30.4045162  19.2317066  83.0745239
  30.9476185  19.9724751  82.8051987  29.8905792  19.5662308  83.8095016
   7.0774956  30.8870792  64.2604294   6.2640791  30.6000805  63.8454361
   6.8258910  31.6531448  64.7762451   0.6764286  40.0709610  77.1644516
   0.4262120  39.1517715  77.0711136   1.6319216  40.0547180  77.2192307
  49.0500717  26.2866306   5.5967464  49.4557533  27.1532497   5.5717463
  49.5787468  25.7926788   6.2234411  66.1746674  11.8968153  19.1756077
  66.6328888  11.2975903  19.7648411  65.4588699  11.3751535  18.8126602
  55.4235115  13.7648697  13.6364546  54.8944702  13.0081158  13.3841219
  55.9859734  13.9271317  12.8791313  12.2895708  34.2764053  75.3662872
  13.0238695  33.8026161  75.7568741  12.4927530  34.3044128  74.4313202
  34.9164925  64.8609085  44.8907890  35.2409019  64.0812378  45.3414574
  34.8584251  65.5268173  45.5759315  41.9398689  22.9405155  84.7595520
  41.7662201  22.0859013  84.3649521  41.3425331  22.9854240  85.5061493
   1.5267539  24.7601013   4.9296594   0.9631668  25.2940655   5.4895558
   2.4162109  25.0305901   5.1575480  37.8567581  68.7050095  26.5132713
  37.7116432  68.2622604  27.3494244  36.9907341  69.0216980  26.2564774
  21.0003395  62.1694641  52.9234161  21.5141296  61.3939476  53.1488647
  20.1070976  61.8423462  52.8169212  57.3377914  64.4410477  41.8081474
  56.7218094  63.7961426  41.4604492  58.0911179  63.9235878  42.0926933
  50.8047333  11.3134604  89.3639374  49.9449120  11.1064558  88.9977570
  51.3914719  11.3216581  88.6076965  68.2256317  62.9850197   3.5146081
  67.4977646  63.1030312   2.9042747  68.1543121  63.7244377   4.1182680
  31.9584484  30.5230598  79.9706726  31.2134399  30.0588245  79.5889893
  31.6871548  31.4409046  79.9845047  69.4064789  16.3809738  67.7500381
  69.3838882  17.1921616  68.2576752  68.5622025  16.3566933  67.2996521
  80.6347733  70.1635132  52.7152443  81.2990036  70.7535629  52.3590660
  79.8428802  70.3656387  52.2169724  46.9729652  37.5054398  31.3688145
  47.4849014  37.7881927  32.1265793  47.4429741  37.8627739  30.6153984
  22.5283279  26.8677292  28.8449421  22.0166855  27.3778267  29.4728374
  23.3201313  27.3866348  28.7034626  67.0386581  59.1102905  73.7662964
  66.7986984  58.8871803  74.6656723  66.3041534  59.6333809  73.4451828
  71.7559052  17.7287045  23.5445042  72.1086884  18.4283161  22.9946671
  70.9539948  17.4553032  23.0990639  72.8810120  62.2678604  80.8558502
  73.6614456  61.9655457  81.3203430  72.5590286  63.0009384  81.3804016
  78.5167465  70.1533203  84.4235001  77.9458771  69.4811172  84.7956314
  78.2072906  70.9718857  84.8113327  60.1700706  24.5607681  35.7752457
  60.3683281  23.7578583  35.2933121  59.2179146  24.6431866  35.7219467
  48.2961731  23.4759750  73.5545120  48.3209457  22.6596775  73.0552368
  49.1623383  23.5367107  73.9573746  63.2169838  61.0421562  63.2824440
  62.9537659  61.7403717  62.6829071  63.3713074  61.4874001  64.1156158
   7.5661359  29.0699329  13.7786474   8.4406538  28.8127518  14.0707235
   7.0696387  29.1920757  14.5878477  61.3021126  67.6594009  81.1719360
  61.1910172  68.4979477  81.6199646  62.1402588  67.7402496  80.7167435
  36.7176094  48.9539871   2.0804482  37.4833069  49.3685074   1.6828122
  37.0232353  48.0845757   2.3391974  20.9326668  25.1505108  73.3780746
  20.9682980  25.0562687  74.3299561  21.8490620  25.2157459  73.1093826
   6.9380121  25.6212063   7.8705015   6.1366429  26.1439362   7.8423386
   6.6752405  24.7619972   7.5404339  74.9752197  65.9446106   7.6358843
  74.4258499  66.6503830   7.9769368  75.2357788  65.4478073   8.4114628
  81.0049515  19.8274403  11.0604486  81.9130707  20.1272736  11.0197449
  80.5622940  20.3086071  10.3613338  15.8356628   7.7289610  68.2117538
  15.6407509   6.8295031  68.4748459  15.5188942   7.7888675  67.3104706
  57.2038765  65.6206284  57.1698570  57.3191986  65.0566254  56.4051170
  56.2921333  65.4884567  57.4296341  50.8186111   7.4543338  83.7947464
  50.9900017   6.9181342  83.0205765  51.2918625   8.2700253  83.6306992
  67.2670135  23.3110790  87.1662979  67.7500839  23.4493656  87.9810028
  67.8216476  23.7000141  86.4900208   3.4496543  48.9730759  69.2518845
   3.3548710  49.8934975  69.0067978   4.3260856  48.7339554  68.9503555
  64.2409821  71.5351486   8.0376949  63.6350975  71.2574692   7.3506513
  63.6912956  71.6380768   8.8145380  41.9609566  33.9214363  20.5751877
  41.6254883  34.4872627  21.2705555  42.8006897  33.6048965  20.9081745
  52.4637375  51.5058365  53.6083984  51.8289566  51.5207748  54.3246841
  52.4225082  52.3855743  53.2334480  54.0840645  68.3430023  37.2704964
  53.9648399  69.0733566  37.8776131  53.5218201  67.6498184  37.6163521
  22.0160694  49.4524574  51.7110558  22.7651215  50.0346375  51.8383865
  22.1123276  48.7860184  52.3913689  17.9872818  38.7386398  84.5057678
  17.9861526  37.9784431  83.9241028  17.1660595  38.6689682  84.9925613
  80.9450378  56.1046410  56.3162117  80.2105255  56.6911774  56.1353989
  80.7945328  55.3498573  55.7471085  25.4476814  45.2259102   6.2591786
  25.6060429  45.4932480   7.1645436  25.9006271  44.3869286   6.1744623
  54.0560226  52.6733704  87.7706985  54.6414337  52.7452011  87.0167999
  54.4498024  53.2395134  88.4345169  78.7507095  34.6484642  33.7975731
  77.8253098  34.8676300  33.9063568  78.9162140  34.7655373  32.8620872
  14.1666193  32.9817657  48.8561897  14.2566423  33.9076195  49.0818520
  13.4789715  32.6590462  49.4386177  12.9079866  68.1648483  36.2928658
  12.3129215  67.9982910  37.0238800  12.4399443  68.7914581  35.7410202
  16.3741322  13.6795635  18.9970913  15.5021210  13.8336439  19.3605270
  16.8340492  13.1885176  19.6779613  60.3357468  44.2920113  19.8834190
  59.7916565  44.0035896  20.6162281  59.9486198  43.8693542  19.1167870
  30.4623699  70.6274261  12.4566412  29.5455532  70.4997177  12.2129831
  30.5066147  71.5358887  12.7549276  54.3185081  71.5246277  71.1179657
  53.9629669  71.2785110  70.2639999  53.5534515  71.5721817  71.6912537
  10.1708994  61.4107285  33.6198463   9.9883833  62.0912018  34.2678261
   9.3380232  61.2828178  33.1657677  15.9840851  39.7513390  68.8110352
  16.3873177  38.9049988  69.0042801  16.6923389  40.3853455  68.9235001
  73.2806549  67.8690643  58.8795929  73.1068878  66.9280853  58.8552818
  74.2349701  67.9356232  58.9126053  58.9359016  15.2144680  70.2676620
  59.2248230  14.4485931  69.7714844  58.0529823  14.9902792  70.5616455
  15.3236580  36.7721481  71.9843140  15.5437813  35.8943405  72.2961349
  16.1507893  37.2527199  72.0180435  85.1914902  22.4890232  38.1081543
  85.8655548  23.0756111  38.4513588  84.9269943  22.8873005  37.2789078
  69.7413483  47.8319359  51.9977837  69.4271774  48.2384834  51.1901665
  70.1600647  47.0205879  51.7103500  45.9613953  43.8935585  25.0708981
  45.7161407  44.7271538  25.4723949  46.9032784  43.9692612  24.9180584
  41.9515495  58.2746124  15.6285868  42.4887238  58.3012390  14.8367739
  41.4680634  57.4511452  15.5624332   9.5105505  62.4495010  28.7488060
   9.0599346  62.9728165  28.0859947  10.3085432  62.1483154  28.3143806
  77.5090866  27.9338322  44.4377632  77.4763794  28.6288700  43.7804298
  77.2436218  28.3614864  45.2519302  83.0267105  11.6993332  48.6657295
  83.9348602  11.5402660  48.4084587  82.5341568  11.6539602  47.8462372
  22.5339546  35.9799995  65.5662231  21.8617039  35.4092216  65.1940308
  22.1063461  36.8325500  65.6471024  36.1074066  70.6262589  76.2732086
  36.7974358  70.9225006  76.8667908  36.2582932  69.6855316  76.1810608
  35.3909187  29.7460232  21.0418911  35.6778412  29.9934559  21.9209137
  35.8082962  30.3855648  20.4648170  39.4615936   3.2542903  88.1615829
  40.0547104   3.9463751  87.8692398  39.1057053   2.8863676  87.3527451
  58.8607254   5.1660824   5.7418208  59.6104355   5.0005741   5.1701822
  58.1380577   5.3502598   5.1417670  71.2294464  30.3423119  86.3661957
  71.8589630  30.7155266  86.9831772  71.1690140  30.9903126  85.6642914
  66.1145325  17.5984554  32.6915588  66.9481277  17.6745148  32.2272606
  65.6358643  18.3932400  32.4561348  65.9002304  15.4958448  16.6803303
  65.4864807  15.0871716  15.9200478  65.5197220  15.0425186  17.4326248
  66.5861816  43.7845802  56.8199806  66.5759354  44.3153152  56.0234604
  65.6623001  43.6640663  57.0393944   0.9012175  29.9142380  83.8995132
   0.6633793  29.0161190  84.1298294   0.0719954  30.3922272  83.9117126
  67.2635040  46.0183983  46.9052925  67.3284531  45.3017654  46.2740593
  68.0844345  45.9804115  47.3960762  49.2243767  34.3816185   4.7860184
  49.0662804  34.6475677   5.6918378  50.1775589  34.3844299   4.6984553
  72.0123291   4.9315586  59.1433945  71.4532776   4.3355327  59.6418343
  72.7354965   4.3833046  58.8389473  22.7022915  42.2716522  55.7225952
  22.1731186  42.4440575  56.5013657  23.4538078  41.7764320  56.0484924
  39.8426704  12.6545925  88.8027191  39.9132690  12.0636234  89.5523834
  40.3146515  13.4421558  89.0732956  48.1728592  28.7834129   4.2951455
  48.1725655  29.4625797   4.9696569  47.5665970  29.1072235   3.6289446
  72.7620621   0.4291467   2.9940624  72.7464828  -0.2708073   2.3413348
  73.1243744   0.0171711   3.7784324  59.3780136  12.3527803  69.8919449
  59.9499550  11.6931477  70.2843704  58.7071419  11.8462763  69.4341049
  14.0081701   7.3888836  19.7998505  13.7667103   7.6931777  18.9250164
  14.2229252   8.1882114  20.2806683  84.5938034  15.4045334  75.3773041
  84.3780975  16.2869358  75.0755310  84.8797989  14.9446983  74.5880051
  70.5116806   9.3700418  87.1306381  71.1827316   9.2842579  87.8078079
  70.2533417  10.2910900  87.1647568  55.4351883  56.6757393   3.9090106
  56.1821213  57.1697540   3.5709634  55.0416985  57.2538490   4.5626044
  37.3736000   5.2501960  80.3296814  37.4755516   5.4169865  81.2667084
  36.9965668   4.3716488  80.2824173  83.9722214  13.8925943  58.4221535
  83.4763947  13.8392143  57.6051216  83.3742828  14.3162737  59.0379410
  78.7248993  32.5239449  80.3329926  78.0678482  32.9020958  79.7485962
  79.0986786  33.2762527  80.7918472  60.8616867  12.2189713  44.8770447
  61.5997925  12.8247471  44.9438934  61.1517792  11.4355001  45.3442192
  79.8742447  44.9818611  20.9777565  79.6025238  45.7419548  21.4922047
  79.5588837  44.2290497  21.4778137  51.5243073  59.8597603  47.1215706
  51.5056076  59.5596428  48.0303116  51.8851471  59.1202812  46.6324921
  86.1295929  42.6997147  26.7712574  85.6659164  43.1308975  27.4891129
  87.0347214  42.6344223  27.0757484   7.9646945   9.9768772  81.8951340
   8.8833151   9.9215050  81.6318817   7.4794540   9.9893398  81.0701370
  61.5326004  44.1674957   3.4694214  61.7040977  44.0170708   2.5398021
  62.1409836  43.5838661   3.9227157  73.3276291  27.3767281  57.2220840
  73.1123581  28.2616005  57.5168533  73.0913620  26.8144131  57.9597893
  53.2239494   8.8394899  18.5368958  52.4291611   8.9567709  19.0572720
  53.6957855   9.6670456  18.6304646   1.2280229  39.0125999  13.5527248
   0.6513042  39.3126831  14.2552767   1.5742153  38.1774788  13.8672915
  37.9417915  64.4915543  47.1582069  38.1383400  64.0893478  46.3121376
  38.2887344  65.3808212  47.0870285  86.5825195  54.1184235  30.2096272
  85.6991653  53.8481026  30.4603024  86.7670670  54.8770256  30.7634315
  79.5559845  24.2830315  10.9583616  80.1598663  24.8149376  10.4400644
  78.9186325  23.9566593  10.3231506  26.8697357  40.8534317   1.6298821
  26.4416981  40.0880165   1.2462683  26.2812424  41.5817032   1.4310634
  62.4238815  35.8586159  63.3750381  62.8733788  35.3481178  64.0485229
  61.5047760  35.8509789  63.6422691  40.8598900  66.2568970  86.0580826
  40.7503738  65.3774414  85.6964111  39.9670219  66.5646973  86.2138824
  24.6296062  58.9701958  87.1600647  24.6867695  59.9055901  87.3549881
  23.7184238  58.7423286  87.3446045  42.4090500  19.8383121  45.7431831
  42.3646088  19.6118908  46.6721573  42.0874863  19.0583858  45.2909164
  72.2503967  41.2634125  63.8979912  72.7435989  40.4514008  63.7812920
  71.3568192  41.0404968  63.6371117  14.3060627  66.8646698  39.7124863
  14.2266054  67.8122864  39.6031952  15.2210855  66.6754990  39.5046959
   2.2693253  31.8727112  40.1449242   3.1058083  32.3181839  40.0104599
   1.6325095  32.5814590  40.2364273   2.5311882  56.8708725  68.6069717
   1.7990689  57.4724579  68.4715881   3.1882560  57.3930092  69.0672684
  48.2654533  66.9078293  68.7330017  48.7845955  66.2286224  69.1635895
  48.2242775  67.6191254  69.3722229  32.0871696  48.5356827  53.8756523
  31.4772892  47.8576317  54.1663818  32.7454453  48.0632133  53.3660698
  73.6966095  49.0862503  22.5290890  73.5210571  48.1673698  22.7317486
  74.1648560  49.4154968  23.2962761  15.7863150  28.6841221  71.7290955
  15.9908295  28.9341106  70.8280334  16.6259956  28.4103146  72.0981445
  78.4289932   4.5452704  69.2633209  78.6925812   3.8900230  68.6172562
  77.5417404   4.2895336  69.5155563  40.1689453  46.6900520  14.6686020
  39.7996407  47.4887810  14.2919407  41.0108948  46.5835266  14.2258739
  65.9096146  11.0898514  54.5742493  65.4948120  10.3540258  54.1239929
  66.6121292  10.6911478  55.0878029  55.5363617  63.8530121  34.0579872
  54.8198433  64.4327316  34.3163643  56.2316475  64.0351486  34.6901550
  48.8999710  43.0876617  73.0849228  49.2092552  42.1887054  72.9733582
  48.2168427  43.0248184  73.7524643  11.2510109  19.3356056  83.9634171
  12.0517025  18.9137993  83.6516418  10.9807596  18.8097248  84.7161789
  11.9279833   2.3082323  52.3407249  12.4321795   1.4992967  52.2533073
  12.3086967   2.7467048  53.1016655  44.6485252  54.6357956  38.8216705
  45.5908852  54.7820244  38.7391663  44.5696945  53.9503174  39.4850998
  33.5237999   8.8328514   9.6498156  33.5946617   7.9308810   9.9623213
  32.7185364   8.8445187   9.1324692   0.3808076   1.1964360  56.8434486
   1.2827085   0.9054843  56.7087135  -0.0497984   0.4536396  57.2666054
  19.7784443  51.1825981  61.4506416  19.9095707  50.2389259  61.5429230
  20.5264244  51.4787521  60.9319382  76.9352112  60.0510902  39.9471893
  76.2407379  60.7027626  39.8509254  77.4140472  60.3251190  40.7294006
  76.6896362  46.9574928  73.6900711  77.1866226  47.4760475  74.3227921
  75.7999039  47.3069038  73.7402191  31.7542057  37.5553970  14.2861776
  32.7099686  37.5558815  14.2337551  31.5160732  38.4816284  14.3264179
  20.9407501  55.3195801  35.2576370  21.1733589  54.6738930  35.9248772
  20.5466061  54.8048897  34.5533791  38.3836365  32.2102394  24.6786556
  39.1548958  31.7932873  25.0627670  38.6655312  32.4748459  23.8030109
  62.3339844  57.1938362  29.5858593  62.3008499  57.1274605  30.5401802
  62.6825790  56.3497734  29.2990227  41.9370232   2.4147472  19.7137470
  41.4257355   1.9082102  19.0826893  42.8162155   2.0392666  19.6661034
  54.9038467  57.7133026  55.7868538  54.0061111  57.4736328  56.0167694
  55.4215546  57.4655685  56.5529060  63.2189102  20.2055702  26.9738445
  62.3587723  19.7857304  26.9854012  63.0494690  21.0898266  26.6488667
  49.4495239  56.6018944  84.2938919  49.8311348  57.2836494  83.7408905
  49.3438835  55.8509598  83.7097931  72.1340637  51.3979950  68.6987610
  72.6876602  51.5741158  69.4595184  72.7397842  51.3938141  67.9575958
  77.4844742  33.3636856  43.8535347  78.4134064  33.5942764  43.8658028
  77.1734619  33.6677246  43.0008545  65.9945068   9.3202953  81.8196564
  66.5790329   9.6671047  81.1456528  66.5640335   8.7990885  82.3855362
  16.1781597  66.1307297   0.2825811  15.9420347  66.6101074   1.0767311
  15.4039316  65.6052628   0.0808858  34.4990959  42.5496635  26.5337257
  35.0121994  41.8436432  26.9267788  33.5886955  42.2792091  26.6531067
  10.3170958  38.4324722  27.9585590  11.1551628  38.6422195  28.3707275
   9.6749334  38.5213814  28.6627998  11.1855841  18.5677109  28.4944172
  10.8707371  19.2740726  27.9303608  11.1070757  18.9170284  29.3821354
  10.7276764  37.7099266  58.5349312  10.4111853  36.9545593  59.0303993
  11.0116005  37.3447876  57.6969032  75.4091415  35.6183472  30.7012482
  74.5531311  35.2699547  30.4520512  75.3966293  36.5254822  30.3959885
  14.5722675  30.4343338   1.3901830  14.3901596  31.3575611   1.5654526
  14.8685246  30.0848904   2.2306314  41.8233986  43.0328712  84.8186417
  40.9828339  42.7340240  85.1655884  41.6125870  43.3927460  83.9570847
  82.1055527  38.8550453  23.1606865  82.5674515  38.5784721  22.3692360
  82.7359161  38.7148285  23.8672390  71.6448746  13.8337736  53.9905891
  72.2357178  13.2347956  53.5341301  72.0466995  14.6957216  53.8819160
  60.0718613  60.0580254  68.4865417  60.5409279  60.8721619  68.6692657
  59.1467781  60.2936363  68.5568542  17.4750290  13.1524372  71.6945496
  17.8634453  13.9815035  71.4152451  18.1302853  12.4925385  71.4678192
  24.7981586   1.8663255  55.8856354  24.0856266   2.4597147  56.1231575
  25.0986347   2.1819196  55.0333748  23.2280636  32.7183685   1.0918033
  23.4892349  33.1751709   0.2922083  22.3094521  32.4907188   0.9484246
  25.0570965  63.8971367  51.3518791  25.0941181  64.2437515  50.4604073
  25.5419025  63.0729218  51.3087196  60.9730568  10.3140068  57.8116493
  61.5576859   9.6202850  57.5063782  60.1669960   9.8583822  58.0543556
  41.7774391  28.7852821  81.2464447  41.3766327  27.9721241  80.9392624
  41.9734116  29.2728577  80.4463806  74.6443405  10.4037914  18.4427624
  75.1263123   9.5772762  18.4711647  74.3160629  10.4588995  17.5453072
  75.8713989  68.8568420  50.9549332  75.9768982  69.7968521  51.1015205
  75.6333618  68.5058517  51.8130531  17.0583153  43.7881775   9.8573542
  16.8644829  44.4251328  10.5450678  17.4655437  44.3037605   9.1612415
  22.3390121  36.1525383  10.6431122  22.6084538  35.8849106  11.5217533
  21.5874672  36.7274208  10.7877560  36.8169403  64.8922195  86.6257935
  37.0767975  65.7027512  86.1879044  36.1021843  65.1524353  87.2068634
  50.5390472  44.3955193  47.7489281  51.2809410  44.3129883  47.1497498
  50.6581154  43.6831551  48.3770943  43.2779541  68.7827606  77.3854980
  42.5201492  69.3174896  77.6222153  42.9897003  68.2838974  76.6211166
  73.1486130  33.8741951  59.4332619  72.6815338  34.6117210  59.0406723
  73.8183441  33.6445847  58.7890816  21.6930790  71.5949326  26.3534775
  21.7387447  70.8285141  26.9251003  20.8264961  71.5418243  25.9504337
  74.7919693  67.2477646  44.3870201  75.3701859  66.4859848  44.3470802
  74.1180191  67.0038986  45.0214958  83.8819733  41.1468964  26.1847191
  84.0828323  41.1780701  27.1200886  84.6766968  41.4675140  25.7582779
  82.0397949   6.7954068  34.9510422  82.0994263   7.3842568  35.7033272
  82.8143158   6.9979639  34.4263420  71.3215256  15.6192789  36.6570091
  70.5516052  15.8873692  37.1585922  71.1843948  15.9962959  35.7879372
  43.9493790  18.0731564  12.3656616  44.3104858  17.9565849  13.2444363
  44.3799400  17.4000912  11.8385649  47.7091866  69.0349808  12.2472677
  47.0133018  68.6167450  11.7402601  48.4664268  68.4605331  12.1339779
   0.7925822  20.5228119   1.8913095   0.8573086  21.1676445   2.5957479
   1.5691170  20.6770515   1.3533175  10.2731752   0.4268913  50.1230240
  10.0566988  -0.1426276  50.8612785   9.5313053   1.0283496  50.0589294
  13.2846737  59.0615196   1.1786032  12.4551439  58.9978523   1.6519511
  13.0538998  58.8864250   0.2662887  24.5666676  40.7785339  18.0735531
  23.8938637  41.1809006  18.6227970  24.1572800  40.7004738  17.2118454
  28.9148598  25.7687778  87.8887558  28.8409176  25.4921684  88.8021317
  28.0657902  26.1626415  87.6883011  21.0465031  63.8738708  43.1085739
  21.9215794  64.2587662  43.1568298  20.8695049  63.7981949  42.1709290
  73.0618591  25.4240189  28.2289772  73.6055069  26.2100391  28.1756496
  73.0980530  25.1698723  29.1511116  47.5829430  38.7710075  43.5635185
  47.2562103  37.9701614  43.9735451  48.1170578  38.4642372  42.8308220
  63.5628815   2.8269489  65.2667160  63.0223961   2.2272141  65.7809448
  62.9504585   3.2380867  64.6566925  74.0220947   9.2209015  74.2278595
  74.0849228  10.0410109  74.7174530  73.3401489   8.7238665  74.6796799
  67.0060120  52.6884308  71.3870163  67.5863495  52.9683685  72.0948792
  66.2609406  53.2872543  71.4371643  58.5631714  62.8483772  22.9901428
  58.4958267  63.2067451  23.8751678  57.6668816  62.6005707  22.7632370
  85.1993179   2.2555931  65.5733109  86.0316238   1.9610858  65.9431229
  85.4017258   3.0998082  65.1701202  39.7598228  38.3442879  55.8027916
  40.6375084  38.5742683  56.1077538  39.9092636  37.7289772  55.0849571
  24.2865963  14.2550793  76.2792435  24.9121437  13.5489721  76.1169662
  24.5209770  14.9330530  75.6454849  45.1638641  69.4706116  86.2326202
  44.6396408  69.5443878  85.4351349  45.5779610  68.6100235  86.1682816
  35.7671776  70.9411316  56.0911598  36.1276855  70.2013931  55.6022263
  36.0556297  71.7132797  55.6045189  13.4693413  66.9213791  87.3681488
  13.2920914  67.2577667  86.4897079  14.1242170  67.5205460  87.7264328
  56.8810425  11.9682817  38.4237404  57.3859978  12.0968485  37.6207962
  56.1800880  12.6181049  38.3724976  12.4041948  19.7772732   1.6325793
  12.5380640  18.9364529   1.1951663  11.6454449  19.6347523   2.1984570
  46.8128052  12.2119360  13.7053719  47.1825371  11.4572859  14.1636667
  46.9761658  12.0333576  12.7792759  72.3719864  21.9548206  20.1904163
  72.5702438  22.6105652  20.8589420  73.2039261  21.8146858  19.7382202
  50.3843040  14.8934050   8.7129164  50.6370201  15.8148365   8.6551952
  50.6628761  14.5159264   7.8785672   4.4426084  62.6198959  63.7836838
   4.3328848  62.7697144  64.7226944   4.7797084  63.4498978  63.4464989
  79.4831696  63.2757988   2.1703556  79.6614075  62.8972549   1.3094451
  78.6147690  62.9463005   2.4017446  65.4094696  16.5808525   2.5941679
  66.2270889  16.0857849   2.5427809  65.6862564  17.4868279   2.7313821
  78.4096603  38.3236465  32.2654152  78.3597641  37.3860245  32.0793800
  77.9107590  38.7347679  31.5595055   2.3360662  67.8260880  71.0699997
   2.9563124  67.3892288  71.6536789   1.6633122  68.1760788  71.6540680
  72.4337769  50.2026215  14.0905428  72.4596024  50.9682846  13.5166779
  72.0696564  49.5060387  13.5442638  71.1754456  39.9314804  57.6883888
  71.3119431  40.7632370  58.1420212  70.8174896  40.1794853  56.8359833
  10.7313242  48.0228653  55.9191208  10.3521204  47.8684616  56.7843361
  11.5667992  48.4546547  56.0973701   9.4684410  37.5322113  63.5276642
   8.5300379  37.6921425  63.6279373   9.5431108  36.5804672  63.4580841
  38.0628242  26.5200977  73.9868622  38.4060631  26.3534260  73.1090012
  38.4600143  25.8411007  74.5322418  83.3609619  45.4447212  46.2746391
  83.3621902  44.5083809  46.4733810  82.8045731  45.5243797  45.4998322
   3.7750666  59.9929161   4.8780069   4.4778786  60.4165382   5.3707852
   3.5646596  59.2095680   5.3862677  82.2726898  63.3366508   1.4286216
  82.0938263  63.0976295   2.3380768  81.9338608  64.2278824   1.3441297
  35.7195625  13.4743204  85.0028076  35.7197342  13.3893852  85.9562302
  34.8547325  13.8274279  84.7939606  73.4340744  17.0850945   6.0706282
  72.9929962  17.0207005   5.2235556  72.7226868  17.0944405   6.7109971
  66.8442078  22.8261471  71.1880035  66.0942841  23.3264790  70.8662720
  67.6052094  23.2615757  70.8039246  72.4986877  17.2795849  26.3346500
  71.6669312  17.4996967  26.7541332  72.4076462  17.6024914  25.4381695
  15.1631441  37.0773773  26.0927181  15.2664175  36.6385689  25.2483158
  14.2942495  37.4767075  26.0504360  42.3527985  50.4159622  88.0955048
  42.2976379  50.5420532  89.0427628  43.2091370  50.0112495  87.9572220
  56.1942520  45.2930717  40.6370201  56.9720306  44.7648163  40.4574738
  56.4790268  46.1954460  40.4925804  19.9248028  60.4359169  83.1329498
  20.1931686  61.2985497  83.4493027  20.4825153  60.2758293  82.3716660
  54.4819984  56.6907158  74.6862030  53.6809464  57.1308365  74.4018860
  54.9468193  57.3492889  75.2023926  17.7444038  58.4183884   0.3531017
  16.9699001  58.3960190   0.9151281  18.2305641  59.1892281   0.6458198
  77.3382187  27.4448242  23.4919624  77.9737167  27.8159657  24.1040325
  77.3122406  26.5130081  23.7093925  23.1582603  61.6564255  26.4483757
  24.0474606  61.4772873  26.1426525  22.6005192  61.1061630  25.8984947
  20.4681225  68.0532837  23.6236877  20.6381512  67.8691025  24.5474854
  19.6654930  67.5702591  23.4269447  60.6162033  42.3470306  86.5137634
  60.8462830  41.6041603  85.9556961  61.4440765  42.6099396  86.9159241
  10.9494982  14.2756224  70.5700302  11.5095167  14.4948511  71.3147125
  10.1217527  14.7197647  70.7538986  23.4547939  51.4244652  44.6381340
  23.0295219  52.1950912  44.2619591  23.3857136  50.7560768  43.9564323
  16.8812962  38.0219307  18.7731056  17.4900475  37.2975349  18.6285172
  17.3239555  38.5833740  19.4095516  25.0249844  13.4694576  48.0475693
  24.2179871  13.1264744  47.6637077  25.7068138  12.8675137  47.7492371
  23.5008450  68.1358948  15.9997425  24.4479771  68.1891174  16.1275692
  23.1394062  68.1316681  16.8860703  37.4276886  56.9555321  42.6510429
  38.1716423  57.5490303  42.5484810  36.8858833  57.3649712  43.3256073
  29.7671680  54.3495216  52.5804634  30.4998569  54.0079155  53.0930099
  29.0057602  53.8641396  52.8980980  74.9539795  57.0726166   9.6580238
  74.5186157  56.2247047   9.7459688  75.5444946  57.1177940  10.4100113
  62.8976326  52.3992805  50.5105057  62.7452278  53.1773605  49.9742241
  62.2532921  51.7636833  50.1989479   7.9747467   5.7832355  30.1192112
   7.5426970   5.1781530  30.7220726   8.9098034   5.6434307  30.2687283
  59.9019318  35.8874779  42.7145119  60.7407608  36.1507530  42.3359833
  59.3785477  36.6889076  42.7177544  82.0835876  20.0285168  25.1130390
  82.4089508  19.1320171  25.0314655  81.2919846  19.9485283  25.6452045
  76.2937469  69.5900345  45.2414742  76.1101074  68.6906967  44.9700089
  77.0251923  69.8628006  44.6875610  82.6269302  52.4351883  26.7366905
  82.5744705  52.9950294  25.9620590  82.4419479  51.5550308  26.4090710
  30.4948750  53.7342949  71.6610107  30.1314335  54.4396324  72.1964035
  30.6702671  53.0278206  72.2825928  80.7462845  33.1758957  73.4382248
  81.3744812  33.7843246  73.8273544  81.2512360  32.3779640  73.2815018
  12.6463718  62.4982872  10.5173731  13.2507687  63.0886650  10.0674944
  13.1967726  61.7746658  10.8168154  47.9144440   8.8054857  68.4715881
  47.9468155   8.0831251  69.0987854  47.4049988   8.4625330  67.7373657
  78.9161606   9.5657454  57.0457802  79.2662964  10.4512529  57.1433296
  78.0928116   9.6845617  56.5722771  29.4395218  53.1385117   9.1050100
  29.0413685  52.5822945   8.4354362  29.3841686  52.6222687   9.9091644
  60.5318985  32.1581688  63.0884209  61.3333321  32.4800301  62.6756935
  60.3773613  32.7621002  63.8147926  54.6391869  17.8962917  72.1615372
  54.2472343  17.1386852  71.7272110  54.7110405  17.6353722  73.0796814
  59.8280945  63.6302147  82.7951279  58.9724503  63.8700027  82.4393082
  60.4327507  63.7435684  82.0617981  21.0938244  66.0476761  75.9099808
  20.9282818  66.7455139  75.2760620  20.7913628  65.2511368  75.4737778
  32.5933418  46.9290390  56.5482368  31.7080364  47.0117455  56.1938019
  32.6441116  46.0244904  56.8571815  69.3984070  11.2656622  11.1500683
  69.0320892  10.4680586  10.7681417  68.9167175  11.9767056  10.7274313
  72.5130005  28.0019150  73.1267700  72.2487106  27.8108444  74.0267029
  73.4084702  27.6695309  73.0644226  46.2261810  22.8037701  27.0335770
  45.6295395  23.5348110  27.1942902  45.6549301  22.0386333  26.9667149
  17.0111046  45.7232208  11.6319628  16.7919426  46.4612389  12.2007618
  17.6915989  45.2475433  12.1082935  61.0442963  21.5654850  59.8463631
  60.2796021  22.1183681  60.0069695  61.2638321  21.7212925  58.9277992
  83.9399033  60.1295586  28.8416214  84.1449890  60.9727669  28.4376755
  84.7886887  59.7830734  29.1168346  15.4340963  67.7277069  13.3884945
  15.8564148  68.3194885  14.0111237  15.6195030  68.1102905  12.5308905
  47.3871803  42.0179482  19.4994850  48.0258675  42.2095909  18.8127651
  46.6748238  41.5680161  19.0452385  73.3176498  63.3422661  54.5452576
  74.0199432  63.1667747  53.9189835  73.6450119  62.9960594  55.3754425
  84.4379196  62.4760513  40.5975761  83.7265625  61.8718567  40.8100624
  84.1448746  63.3207436  40.9394112  59.2379684  71.1098251  48.7004166
  58.8079643  71.8691788  49.0937538  58.5213737  70.5111465  48.4899368
  68.4909210  49.5636940  79.7290421  69.3821945  49.5014458  80.0725403
  68.0091019  50.0479469  80.3995514  19.5163708  69.1611557  83.2561417
  18.8056946  69.6799774  83.6329651  19.0784645  68.4095535  82.8566971
   2.4481249  30.3873844  53.4094048   2.9916897  30.3332405  54.1954308
   2.9309726  29.8897133  52.7495461  19.9072323   7.6614652   9.6914949
  19.1478386   8.0714092  10.1056166  19.5330753   7.0423722   9.0646276
   9.6449089   1.3078138  79.3038025   8.9667015   1.5001528  79.9513168
   9.1682692   1.2103401  78.4794617  60.3597488  12.6054440  22.3109417
  59.7753868  12.1877737  22.9436378  60.8015289  11.8764925  21.8754063
  86.6625977  25.9292717  79.3692093  87.2775497  26.6515121  79.2410431
  85.8103104  26.3544350  79.4645081   9.5070066   1.4674869  64.4236603
  10.2650089   0.9273172  64.2003174   8.9836969   1.4888355  63.6224556
  79.7923050  66.0766220  19.2021923  80.5527649  66.6577377  19.2178535
  79.0975723  66.5797958  19.6269207  26.1239128  30.2666721  76.5537872
  25.4815636  30.2806244  75.8442612  25.7071514  29.7508698  77.2440720
  22.7766914  65.0131378   1.4569006  23.5380173  64.4369278   1.5247068
  23.1326618  65.8444214   1.1430755  78.0456467  18.1154327  60.3571091
  77.2419968  17.6750813  60.6336479  77.7912369  19.0317078  60.2477989
   7.9076505  10.2399311  70.9941483   7.9556799  11.1545391  70.7159042
   8.6665239  10.1233110  71.5657654   8.5919399  42.7167206  10.1660957
   7.9791017  43.3951912   9.8826551   8.7469692  42.1910057   9.3813515
  24.6571579  53.7940407  20.6151485  25.0545940  52.9243240  20.5719204
  23.7900410  53.6807442  20.2259140  39.5266571  53.1257782  60.9673157
  38.8507309  52.4820023  60.7553978  39.2029266  53.5624428  61.7551956
  42.9202080  37.4093285  74.1310806  42.9624672  36.4536057  74.0988388
  43.6885223  37.6997643  73.6395798  75.6563644  29.4200516  46.8876152
  74.8838501  29.6137543  46.3566360  76.1731491  30.2253304  46.8612938
  62.6153221  38.9031372  35.3937683  62.7276649  39.7798576  35.7611542
  61.6925507  38.8653145  35.1421776  16.5076199  20.6195679  18.1006260
  15.9793673  19.9104958  18.4672298  17.3808708  20.2405682  18.0005150
  40.3482666  21.1463623   6.7450275  40.0268440  21.9894981   7.0644650
  39.5568848  20.6614342   6.5109572  53.1720543   7.5683413  28.1054173
  52.4808197   6.9066062  28.0823612  52.9615669   8.1081200  28.8673649
   8.7339544  36.2111549   4.9942536   8.0858984  35.6174469   4.6150904
   9.4245329  35.6346436   5.3213105   5.2439456  67.9487915  21.9919453
   4.8044357  68.3443756  21.2392311   5.2733183  67.0140076  21.7881050
  36.3834076  38.4476051   1.2948052  36.3796539  37.7094955   1.9042403
  37.2842751  38.7704887   1.3152210   2.3691690  16.5879974  46.7743340
   2.8637753  16.6733131  47.5893898   1.8048507  15.8277559  46.9150772
  17.1148167   8.1148777  88.3123322  17.4891701   8.8944159  88.7227097
  16.4045467   7.8533869  88.8983154  21.7159424  18.9152527  84.3415985
  21.4014759  18.9189930  83.4375381  21.2889347  18.1571560  84.7405777
  52.3867798  28.5471859  38.1686172  52.2588234  29.4805145  37.9990425
  51.9938164  28.1103821  37.4129639  28.8053360   2.7760456  14.0098867
  28.7714901   3.7279813  13.9155235  28.7107277   2.6250722  14.9503593
  28.8841152  55.3542786  26.9089546  29.4813900  54.9640808  26.2708015
  28.0954113  55.5571899  26.4059582  21.1938534  44.6755295   0.4226013
  21.1585255  44.3104286   1.3067310  20.4219131  44.3172112  -0.0155178
  76.0553589  63.0756836  80.9656067  76.4416199  62.2613831  81.2880173
  76.3666611  63.1476402  80.0633087   2.4456911  40.4644814  61.9177933
   3.1352019  41.1269608  61.8738708   2.5053396  40.1152916  62.8070297
  14.1979523  70.3663712   6.4528332  14.6435471  70.1333694   5.6383476
  14.3872833  71.2971115   6.5716333  16.8948898  56.4318848  58.7592278
  17.3530521  56.1992798  57.9516296  15.9760761  56.5045929  58.5009079
  34.6209145  46.6727715  30.0698071  33.9067497  46.0733032  30.2862206
  34.6376762  47.2971039  30.7951756  17.8908138  17.8618546  15.9674635
  18.6811428  18.1919079  16.3948727  17.9112320  16.9175205  16.1225433
  19.2119789   6.3861704  29.5963116  18.6188240   6.9445553  29.0937138
  19.6868744   5.8840013  28.9340954  40.2125778   4.5223207  79.5525055
  39.4388428   4.9201422  79.9516373  40.7926903   4.3341355  80.2902679
  17.1172428  54.4457092  43.2223320  17.9223347  54.7674942  42.8167305
  16.7924709  55.1880798  43.7318802  30.8220329  38.1992989  81.4504166
  31.7431259  38.2235909  81.1911240  30.5407791  37.3061676  81.2518082
  69.2673798  62.2824402  54.6214066  69.2993240  61.3348007  54.7525253
  68.9951553  62.6325607  55.4696655  40.3630638  45.7065239  36.2984161
  41.2403183  45.4036598  36.0640450  39.7728615  45.1224174  35.8222733
   8.0482054  55.1426620  78.8468018   8.6114531  55.3940697  79.5787735
   8.6564035  54.9221230  78.1413345  60.5669823  58.6220627   2.6325562
  60.1826859  58.9957542   1.8395221  61.2588081  58.0426445   2.3133655
  19.5229683  13.6515980  12.0302382  19.4076519  13.0728292  11.2766056
  19.8167934  13.0729656  12.7338600   8.3246870  38.6711235  41.0907974
   8.2718210  37.8071785  41.4994926   7.4141059  38.9562492  41.0147781
   6.4776664  55.4094429  58.0165634   6.1100750  54.9851799  58.7918777
   7.2984729  54.9441147  57.8553886   0.4601218  70.7650299  25.8743668
  -0.2558008  70.5823669  25.2658253   0.1597387  71.5220566  26.3772640
  38.7407112  64.9576035  40.6793556  38.0816689  65.6144791  40.4548492
  39.1067047  65.2598724  41.5105667  73.7498245  44.2001495  49.6533775
  73.9866409  44.1860809  50.5807114  74.4885101  43.7817802  49.2111664
  25.7504253  70.5172119  14.4813871  25.0519409  71.1713638  14.5022011
  26.4853020  70.9647675  14.0620003  63.4382973   1.8751696  34.8796997
  63.4894600   0.9976025  34.5009003  62.5353775   2.1514938  34.7228241
  20.1235104  38.7656593  73.5856323  20.1272392  38.0868378  74.2604828
  20.0632839  39.5873947  74.0728226   4.3566260  33.9842644  39.9748039
   4.6721892  34.2941284  40.8237076   3.8137319  34.7003860  39.6451530
  51.7043266  39.5435143  41.8418884  52.1166458  38.8936806  42.4110451
  50.7688751  39.3470001  41.8923912  37.2252998  52.3958702  43.6985283
  37.7813263  51.6337128  43.8603401  37.7861328  53.0034447  43.2162895
  85.2505798  44.1418381  28.8035164  85.5201950  44.0765724  29.7196388
  84.5707932  44.8157158  28.8013363  67.3834152  59.8420258  88.0196228
  68.0640335  60.4394989  87.7097549  66.8213806  60.3851433  88.5722275
  35.5463066   1.9256016  21.7799034  36.1672363   2.4321804  22.3034058
  36.0035744   1.7657038  20.9543285  77.9079742  70.2354355  70.7709198
  77.9622345  70.7422333  69.9607010  77.0586929  70.4710083  71.1443558
  72.6722031  35.2410927  43.8615685  72.5476151  35.6180649  42.9905891
  73.6076050  35.0427094  43.9051247  53.4715881  22.9454842  38.6698875
  52.5968018  22.9193726  39.0575790  53.5015869  22.1809349  38.0947380
   5.5986018  65.2465897  63.6945381   5.5957360  65.3253632  64.6484909
   6.5204005  65.3290634  63.4501724  16.2517414  47.2126427  46.2216988
  16.6707287  46.9196892  45.4124641  15.3681364  46.8469582  46.1798897
  10.1847916  53.9342041  51.1344261  10.3577843  54.1463776  50.2172089
  10.5719919  53.0674210  51.2568970  67.8399048  58.1548195  29.5631485
  68.3719254  58.9490089  29.5136681  66.9367523  58.4681091  29.5142441
  66.1223526  41.2215271  73.4819031  67.0295868  40.9189415  73.5217743
  65.9750900  41.6488380  74.3256760   1.9764044  67.3842545  19.3241329
   1.6556414  66.9198837  18.5510235   2.8018453  67.7780685  19.0416565
  45.9027481  15.0106630  85.4390182  45.9149628  15.1904287  86.3791046
  45.0551071  14.5931454  85.2860031  76.8881531  67.4595032  80.9361572
  77.2683105  67.0944138  80.1371460  76.3201065  66.7651978  81.2700729
  77.5225143  62.8117905  37.5258522  76.6297150  62.7445335  37.8644066
  78.0782242  62.5650139  38.2651215  79.0463486  37.0286407  15.1226921
  79.1695404  36.1304779  14.8155174  78.4434433  36.9484177  15.8618155
  64.1928787  48.0628967  43.5031395  64.9846268  48.2877464  43.9918213
  63.5083847  48.6069107  43.8926849   2.3825812  53.2794228  74.3387909
   2.7198777  53.8638535  75.0176849   2.7387772  52.4199791  74.5639801
  25.8260021  39.3511696  10.2308502  26.0841904  38.6276588  10.8019018
  25.8751678  38.9877396   9.3466930  73.5572433  21.4427128  74.4350815
  73.9169235  22.1989574  74.8987122  73.1737137  21.8101635  73.6387634
  13.2344751   7.2230024  72.7031021  12.5736094   6.7040443  72.2446594
  12.9448128   7.2277174  73.6154099  33.8783607  12.2776308  78.4949951
  33.3996544  11.4493103  78.4640884  33.3678131  12.8700590  77.9430847
  62.6067238  40.0063248  81.8882828  63.1425438  40.3747139  82.5907211
  62.8566170  40.5044518  81.1100464  63.4158897  12.5832310  38.2127686
  62.8440056  13.2248802  38.6340332  63.6795273  11.9958649  38.9210930
  46.7739487  71.9151917  28.4561787  46.9411545  71.3252716  27.7211456
  46.2490425  71.3959808  29.0653782  57.3120842  56.1236801  14.2021761
  57.1718216  55.1798058  14.2774067  56.8720703  56.4929848  14.9678345
  45.5082283  29.5881367  76.9006729  45.2891579  30.4754086  77.1852570
  46.4623528  29.5450058  76.9640121  22.4900703   7.7197795  84.8391724
  22.9062061   7.5063658  85.6743469  23.1809139   8.1415606  84.3282242
  46.7083855   1.3888731  23.6992912  47.6640472   1.3566495  23.6557236
  46.4959450   2.3183057  23.6141109  13.6599989  34.0113106  88.0510864
  12.8526230  33.7783203  88.5094452  13.4356356  34.7993889  87.5562897
   3.9796658  61.6118355  15.3608179   4.7918472  61.3942490  14.9033804
   3.5754833  62.2912941  14.8211823  32.1992798  28.7351570  88.5701141
  31.5154228  29.2126026  88.1004181  33.0167732  29.0342636  88.1720352
  40.3264236  10.4380465  49.7631454  40.7219086   9.7108831  50.2438316
  39.9968834  10.0411177  48.9568710  41.2334709  48.1257477  80.8928299
  40.8691025  49.0045433  80.7871017  41.0684967  47.9068069  81.8099365
   0.6507482  52.9501038  82.0080719   1.2483445  52.5899353  82.6633453
   1.0014598  53.8198776  81.8164291  28.1348248  55.3874512  10.2662973
  28.0909138  55.0188179  11.1485739  28.5499420  54.7032013   9.7412128
  22.6532364  47.4398499  44.6500931  23.3706818  47.8502197  44.1672859
  22.9650269  47.3997803  45.5541992  44.0513802  61.4856491   7.4584241
  44.1158485  61.4125328   8.4106474  44.9461441  61.6674080   7.1710391
  74.0118179   3.2352893  26.1158905  74.1635361   3.3370595  25.1762848
  73.3327408   2.5635068  26.1774750  64.2061005  19.2757397  64.5119095
  63.3585739  18.8349915  64.5725021  64.2533035  19.5805759  63.6057777
  45.6633148  71.6707077  77.9417038  45.1119957  71.1039963  77.4021530
  46.0725098  71.0774307  78.5716324  59.3789253  50.3738403  50.7226944
  59.7039337  51.1506424  51.1778679  59.9854279  50.2530632  49.9920769
   2.1538560  52.7715263   6.6871681   2.5052168  53.0812340   5.8523879
   1.2066685  52.7421684   6.5522394  72.4264221  45.7447357  47.7589645
  73.1119766  46.2182541  47.2877693  72.9007568  45.1221542  48.3099899
  39.7012062  65.4520187   5.7754750  39.3246803  64.5944977   5.9732270
  39.8344650  65.8583450   6.6318474  72.0850983  21.1821709  39.7826843
  71.6840439  20.5510597  39.1851158  72.2956467  20.6714649  40.5643997
  53.2534752   0.4498774  25.5680428  53.2126427   1.3693962  25.3052692
  53.1989822   0.4711603  26.5234528  62.7547226  51.9904785  65.2502060
  63.1984863  52.6184769  64.6801910  62.9964104  51.1342049  64.8971939
   3.8577638  12.3007822  16.4577141   3.6072130  11.3832874  16.5656948
   4.0330901  12.3925619  15.5211945  78.7706451  39.9048004  65.1002502
  79.2014084  39.0651703  65.2605362  77.8359833  39.6982880  65.1000519
  24.4232426  55.3563690  76.8591537  25.3428211  55.1691780  76.6705704
  24.0537395  55.6161346  76.0152283  57.0353699  40.0280113  36.1755981
  56.8657913  40.4070435  37.0380440  57.9253426  40.3080521  35.9616928
  57.4119492  52.1341400  34.5000000  57.5511169  52.5351105  33.6420441
  58.0149460  51.3909645  34.5177040  53.1815567  38.2015572  82.4007797
  53.0661545  39.1167412  82.6564178  53.9551697  38.2060509  81.8370972
  14.1991549  41.8602142  37.6281433  14.5798712  41.5380211  38.4451370
  13.5710640  41.1842308  37.3736305  68.9398727  17.1575565  64.2117920
  68.7750244  16.5067310  64.8940582  68.1343842  17.1719379  63.6948624
  50.8289680  14.4346581  39.2024078  51.0063858  13.5201387  39.4224243
  50.7912064  14.8814754  40.0480804  59.6417160  20.5594959  63.5565376
  60.4791145  20.7798386  63.1485634  59.6965065  19.6184196  63.7226868
  25.4863605  64.3562164   0.5113151  26.1120415  65.0366669   0.7598120
  25.2067280  64.5987854  -0.3714075  49.6645012  69.1697540  40.8429070
  50.4157600  69.2176743  41.4341278  49.3320580  68.2785263  40.9498062
  39.8189011  54.7436180   6.9056225  39.0718307  55.1128120   7.3765965
  40.0092888  53.9245491   7.3629041  48.0978851   5.1960874  42.1354332
  48.7909737   5.3763661  42.7705421  48.5366669   4.7191334  41.4310036
  59.0729942  46.6857796  28.3891869  58.1704521  46.4960823  28.1329422
  58.9937286  47.3602104  29.0637913  19.1501617  59.7662506  49.6162453
  18.4743633  59.1415138  49.3531265  19.0920467  60.4688034  48.9687309
  67.5340881  11.9400911  47.9664803  67.3925018  12.1316051  48.8935738
  67.7688904  11.0123472  47.9466972  22.3211803  60.8242989  19.1769333
  21.8849564  60.0022888  19.4010792  21.9213428  61.4732590  19.7559071
  61.7706795  71.3807449  39.7485275  62.6480331  71.0334625  39.5876617
  61.9049911  72.3192978  39.8800774  27.0829277  55.2116051  76.1984787
  27.7554817  55.2138824  76.8795776  27.2488346  56.0088539  75.6953888
   6.4993305  42.5394478  58.0759659   6.3106494  43.4765282  58.0258713
   5.9158115  42.2139473  58.7613754  63.0860405  59.0593376   9.2504702
  63.3918877  59.9501114   9.0795584  62.2658157  59.1755905   9.7299967
  23.8406811  47.3051720   5.5165029  24.3289433  46.5143967   5.7456365
  24.5120411  47.9794846   5.4125047  71.6035004  60.0958557  23.4524059
  71.7571793  59.1513405  23.4748917  70.7852097  60.1938515  22.9655437
  59.2796097  23.4509010  60.5338478  59.0255928  24.0634804  59.8435936
  59.6860237  24.0003510  61.2040443  78.5983963  45.3606491  30.5663948
  77.8218307  45.4906006  31.1107254  79.3227081  45.6861610  31.1008453
  49.2450943  21.7477531  28.1899242  49.2230949  22.5163345  28.7600365
  49.9751778  21.9128990  27.5933228  39.1306725  62.9775505  88.0810089
  39.0398445  62.5487976  88.9319839  38.7360878  63.8408546  88.2044525
  77.3675156  62.5424423  73.5713348  76.9657059  62.0709000  72.8416519
  78.1798477  62.8964958  73.2094040  74.5554276  56.2021561  83.2522507
  73.8860092  56.4605026  82.6187134  74.1663666  55.4665337  83.7252426
  50.0482216  30.7240448  20.3550892  50.9922142  30.5659409  20.3656178
  49.7274513  30.2095490  19.6143894  27.0629406   8.0609093  81.5208206
  27.8140583   7.5161185  81.7558823  26.8104763   7.7574077  80.6488266
  70.0117493  51.9675941  34.1449013  70.3172531  52.5038795  33.4132652
  69.0819244  52.1800270  34.2257080  39.0616951  20.1332588   0.6046152
  39.4690742  19.6370354  -0.1053383  38.7319069  20.9270573   0.1834756
  70.9480820  32.3257942  59.9463387  71.8145142  32.7303009  59.9026642
  70.3826065  33.0091171  60.3062477  42.5973434  66.4648056  19.6155109
  42.1151962  65.8375015  19.0767632  42.1317253  67.2922897  19.4942532
   5.1397924  61.7131119  60.2359734   5.8793297  61.4002991  60.7569962
   4.3682413  61.4874535  60.7556076  13.9112368   6.7884398  82.3602219
  14.0471115   6.4043431  83.2263870  14.7070541   7.2939768  82.1948776
   1.8752513  53.1867867  23.8543739   2.5631373  52.9514656  24.4770050
   2.3440199  53.3889732  23.0446777  71.0780640   2.4792349  45.0754623
  71.1454010   3.1379211  45.7667160  71.6400452   1.7631259  45.3714294
   6.6390028  58.7925606  85.8887711   6.1446428  57.9732285  85.8656464
   7.4868484  58.5716858  85.5032730  14.8859606  37.0956726   2.0921276
  14.8286629  37.3879051   3.0018241  14.0513906  37.3576126   1.7033962
  67.6212234  33.4428749  28.6421604  67.1683731  33.4620094  27.7990742
  67.4632797  34.3086662  29.0185757  33.5729904  64.0995102  14.6507816
  34.1736603  64.4028168  13.9700203  33.8152618  63.1845741  14.7936869
  62.0652351  55.0106583  16.5242920  63.0050812  54.8309021  16.4995708
  61.6708946  54.2923050  16.0296268  52.4655914  15.4220209  16.7739429
  53.0510712  16.1790047  16.7533817  52.2988777  15.2230749  15.8526077
  44.9592743  56.0214348   6.7286286  45.2258110  56.7608490   7.2749400
  44.7993965  56.4058342   5.8667068  64.3767929   4.9445896  22.4289761
  63.4229050   4.9692931  22.3533630  64.5909882   5.6824260  22.9998951
  16.9166241  34.6342506  63.4791298  16.3469334  34.3763771  62.7544289
  16.3395081  35.1021156  64.0826721  69.5488968  15.4236650  31.6063728
  70.3546600  15.3362112  31.0971279  68.9726105  15.9518814  31.0540085
  40.6923180  61.3930397   6.3096566  41.1351471  61.9227562   6.9726286
  39.9038734  61.8906364   6.0929031  56.6546326  23.0296764  73.4329147
  57.0438461  23.8433952  73.1125870  57.2520599  22.3443317  73.1335526
  71.3725586  47.4066467  17.8836956  72.1041794  47.5014381  18.4935951
  71.7866440  47.2392693  17.0370846  65.7184982   1.1524158  64.9833755
  66.1608276   1.3494318  64.1576843  65.1241608   1.8904349  65.1187363
  73.4531784  67.9199753  33.6669159  74.3504715  67.6310425  33.5007362
  73.4362259  68.1228638  34.6022148   0.1176855  21.4556293  77.6942596
   0.7629164  20.7750721  77.8859634  -0.2616723  21.6727123  78.5458450
   4.4536281   5.7202177  83.2236557   4.9055119   6.4898248  83.5696945
   3.8946538   6.0638766  82.5267563  66.0944366  34.8102264  46.0905914
  66.2097092  35.2866936  46.9127350  66.5045853  33.9596405  46.2471733
  84.3168411  65.3064651  52.0699120  83.5205307  64.7889938  51.9501724
  84.7793655  65.2308884  51.2352905  74.9693604  70.8633423  60.5063019
  74.0198669  70.7513275  60.5526047  75.1818619  70.7271118  59.5829849
  38.7568626   0.5766261  30.1259613  38.2590599   0.2367176  30.8695278
  39.6018715   0.1301436  30.1792507  55.4504318   7.7198310  31.4811745
  54.9659920   8.4021568  31.0164337  55.6246643   7.0542560  30.8156776
  66.3372040  14.6608706  10.4277792  66.3045273  14.8229027  11.3705997
  66.8008957  15.4182320  10.0705261  84.1412735  25.7685814   5.6891360
  83.8820648  25.0109291   6.2135482  85.0277100  25.9736881   5.9864388
  63.7054329   2.4564366  69.8157272  63.6387787   1.7854768  70.4951401
  64.0250244   3.2324679  70.2760239   6.6035147  55.5264740  69.4125519
   6.8379273  55.8686295  70.2752304   5.9612093  54.8402290  69.5935059
  10.0653658  54.5605240  77.2086716  10.9301462  54.9609642  77.1190338
  10.2259903  53.6211319  77.1193924  29.6778488   6.6734099  69.2994232
  29.6423473   7.5797362  69.6052704  29.4651451   6.1511183  70.0728607
  58.1846161  27.3306465   1.9922415  59.1348839  27.2159138   1.9847862
  57.8532753  26.5551395   2.4450474  31.7022915  60.2317200  82.6556396
  31.4707718  60.4771919  81.7598877  31.0421352  59.5849915  82.9049759
  56.1172409  54.4277039  39.3892174  56.0583496  53.6988831  38.7714882
  56.9211807  54.8854980  39.1435852  67.4178162  47.5085487  57.4767456
  66.6667252  47.3023224  58.0331383  67.1627197  47.2018089  56.6066475
  70.9935989  65.7307587  20.3359623  70.0844498  65.8414154  20.6142159
  70.9948425  65.9877090  19.4138966  65.3224258  60.0186806   1.4739128
  64.5435181  59.8670464   2.0092137  65.3910675  60.9716225   1.4154512
  42.7447586  44.4391823  18.4499702  42.7880135  43.9969177  19.2977695
  43.2926712  43.9063797  17.8736515  14.1332474  20.5392418  80.4260101
  14.9934702  20.9355888  80.2875977  13.5819550  21.2620239  80.7258377
  84.3694534   7.4811420  33.6157646  84.6792297   6.9621596  32.8735237
  85.1451645   7.6030183  34.1631699  34.5102386  41.7484932  58.2209663
  35.1763802  41.1560974  58.5696068  33.8312263  41.1688156  57.8757896
  29.5741711  67.3329239  80.7273865  29.4166374  66.3978806  80.5965805
  29.1194534  67.7565613  79.9993744  87.0483017  21.9313164  59.3003273
  86.9797516  21.2953396  60.0124130  86.1481400  22.2195702  59.1491547
  34.9298515  38.6615486  54.0177917  35.5104904  38.2703285  54.6705017
  34.1121101  38.8204765  54.4892502   4.7113376  21.2085552   0.7292235
   5.3205376  21.7882538   1.1864511   3.9792953  21.7749081   0.4851124
  52.1121979  54.1726341  19.1833992  52.9269943  54.1994324  19.6850185
  52.2156792  54.8565407  18.5217361  62.9252434  52.8586235  40.1705513
  62.6912994  52.4414597  40.9996948  63.8317680  53.1409760  40.2918892
  49.0145531  65.1334915  78.8441086  49.3721390  64.3113327  78.5088196
  49.0927391  65.0584869  79.7951584  11.9356966  55.8873444  63.4687157
  12.6637211  55.2860069  63.3118591  11.7241468  56.2381363  62.6035995
  82.1344223  48.5678406  33.7424889  82.4253845  49.1638412  34.4326782
  81.5275421  47.9715462  34.1810760  41.1784363  54.7181892  31.9643784
  41.2111931  55.4809341  31.3869896  40.3889961  54.2482071  31.6958008
   0.7601085   9.4639034  31.6583366   0.0367680   9.7870007  31.1211052
   0.7769403   8.5208483  31.4952545  67.4733963  25.6025944  54.8403625
  67.1544800  25.9762115  55.6619072  67.1849213  24.6902103  54.8642464
  11.0991516  18.4611969  80.7230606  11.2954903  19.1889248  80.1330643
  11.9464388  18.0440807  80.8791122  33.5134468  17.4937077  73.7711411
  32.6465187  17.4705601  73.3660126  33.6622581  16.5965691  74.0698547
  81.7190399  49.6861610  60.1446724  80.8272934  50.0331917  60.1690979
  81.9864883  49.6481400  61.0629616  79.3775406  49.4273262  66.1824493
  78.7287674  48.7321968  66.0723648  79.6765671  49.6188240  65.2935486
  33.4114189  71.0020447  60.6633759  32.6966248  70.4299393  60.9426575
  32.9850464  71.6788712  60.1376915  80.2599487  71.0188751  72.7916412
  81.1382446  70.8196716  72.4673843  79.7860870  71.3335953  72.0218124
   4.9758172  10.3857460  67.1729813   4.7482753   9.5045176  67.4694519
   4.1595817  10.7369356  66.8170929   8.1172905  12.9177113  61.3863373
   8.2499352  12.2075825  60.7583618   7.9758134  12.4744148  62.2228203
  50.2824135  62.9418488  27.5947914  50.1054573  62.1226234  28.0571594
  50.2658081  63.6113052  28.2787418  73.4888916  31.3730888  87.2319870
  73.9419708  31.2494431  86.3979263  73.2826309  32.3074875  87.2563019
  24.7592220  63.7615623  71.8621826  25.4599266  63.3796272  72.3907394
  23.9847889  63.2430458  72.0804214  84.8765945  20.9756088  28.8329239
  85.0461884  21.7086239  29.4246655  85.1423264  21.2969189  27.9713097
  47.1210976  70.0588303  79.5280075  46.4498405  69.3941422  79.6824265
  47.9264641  69.6695786  79.8687439  81.4187775   9.0907974  21.8729458
  82.2377090   9.5432100  21.6707096  80.7340698   9.7002649  21.5973396
  35.0450478  57.5980492  35.7361488  35.7595215  58.2324333  35.7937126
  35.0687828  57.1339874  36.5729942  61.1209259  24.7729588  53.2613754
  60.4251595  25.1581974  53.7940407  60.6807594  24.4921913  52.4590912
  14.5213261   4.8882909  64.1461182  13.6578474   4.6089516  63.8418083
  15.1356926   4.4568300  63.5522957  61.9761543  40.4935303  85.1278305
  62.4468842  39.9882774  85.7906723  61.5261841  39.8345261  84.5991821
  79.4686127  27.9858112  76.4882584  79.7030411  28.0082512  77.4160385
  80.3067169  28.0327759  76.0282516  59.4671021   1.9386089  45.4512711
  58.9343834   2.6014471  45.0118523  60.3048286   2.3727808  45.6123352
   3.5563896   6.0428472  43.5205841   4.4931250   6.1117187  43.3361511
   3.2944100   5.2124853  43.1229706  74.7434845  36.8934135  57.6589661
  75.4419556  36.2416954  57.5986710  74.5195160  37.0893211  56.7491913
   2.0004203  14.5721931  32.8353348   2.3254561  14.7805443  31.9594517
   2.4961622  13.7961149  33.0964432  13.4732714  18.3871498   8.4342346
  13.6951361  19.2328281   8.8238964  14.0472717  17.7616978   8.8764639
  49.1701012  49.3119698  57.2149734  48.5217781  48.6617813  56.9444885
  49.7859077  48.8233414  57.7611008   6.8084412  31.0477238  85.5294876
   7.1189175  31.9073906  85.2452240   7.5810347  30.6266155  85.9063110
  74.4834442  12.9426947  83.6935196  74.6529312  12.0158224  83.5249557
  75.2531052  13.2428570  84.1770020  77.9720154  28.6409149  59.2396393
  78.2442780  27.7243748  59.2850075  77.4062805  28.7607517  60.0024109
  11.8891916  69.2186203  83.0873947  12.4373274  69.5081863  82.3580627
  11.1681890  68.7454910  82.6720276  19.1642189  21.5927048  85.1746597
  19.6639442  20.9101524  85.6225739  19.1662350  22.3303642  85.7846451
  35.3704453  47.9346733  83.7439041  35.5410881  47.7184753  84.6606216
  36.1509781  47.6350098  83.2778549  23.2858410  20.0379295  74.8346024
  23.0091171  19.5194607  74.0790634  23.7396622  20.7905598  74.4553604
  74.1622543  41.4457550  70.7268906  73.9052963  40.8370857  70.0342636
  74.9389572  41.8865356  70.3823929  70.4307556  65.9707794  76.6244278
  69.8591843  65.9478226  75.8569565  70.6591721  65.0544205  76.7804489
  22.8930645  22.8155899   5.5606222  23.0926418  23.0653896   6.4628420
  21.9939766  23.1137409   5.4228497  19.3776169  57.1402016  27.1186066
  19.8693676  56.4630661  27.5832558  18.7957745  56.6548576  26.5336857
   3.8821669  70.5532074   6.9076920   3.6393859  71.4060669   6.5472403
   3.8087153  69.9506760   6.1675625  75.8561554  20.0791779  26.3937721
  75.1807556  20.5552807  25.9106655  75.3877411  19.6733322  27.1232300
  57.4861870   7.6036773   2.7713387  58.3544502   7.2010236   2.7564881
  57.6117821   8.4590321   2.3604546  61.3966331  21.4810486  34.9061546
  60.7563515  20.7767448  34.8050385  62.2049446  21.0353451  35.1595612
  83.1673889  51.0025482  69.0843201  82.3034210  50.9380112  68.6773605
  83.1771011  51.8696938  69.4895325  66.5900192  39.3294067  23.0364456
  65.8839874  39.9533615  22.8678074  66.3458939  38.5505867  22.5363731
   0.9821611  25.9335575   2.5818336   1.3181595  25.4678154   3.3476150
   1.3779922  26.8032837   2.6377366  48.9018898  48.0800209  68.4049454
  49.4082527  47.2725372  68.3166580  49.5067825  48.6984673  68.8146515
  85.1871414  43.5152321  34.1238899  84.6925964  44.0840187  34.7139206
  85.6987457  42.9532738  34.7058678  62.1345596  60.3563690  42.1532516
  61.6047554  60.7070236  42.8691978  61.7185631  59.5227776  41.9334641
  15.4224043  61.0085869   5.8174710  14.7754831  60.7151947   6.4590678
  15.6317558  60.2231216   5.3120527  36.2828789  66.2556000  20.0812416
  36.7856216  66.3113861  19.2686100  36.9444542  66.2605972  20.7729950
  75.1501694  54.4970551   4.8159571  74.6906662  55.2834244   5.1104355
  75.3279572  54.6565170   3.8890295  58.0194206  36.8474503  34.6813087
  58.0464401  37.2192383  33.7996788  57.1249695  37.0083656  34.9817963
  82.4776611  47.9828644  68.7224350  82.9359360  48.5945320  69.2986984
  82.7587738  48.2279625  67.8408813  85.8565521  64.0664902  87.1238632
  86.4297104  64.7999725  86.9008713  85.5411148  64.2682343  88.0047913
  65.1841202  59.1447029  76.3670578  65.7776108  59.4121552  77.0688248
  64.6197891  59.9052048  76.2277908  26.2439671  24.2238770   4.2288356
  27.1792564  24.3607426   4.3796134  25.8167381  24.9227982   4.7240319
  40.7947311  70.8821335  35.5684891  40.1345367  70.2230377  35.3540726
  40.3063774  71.7040787  35.6147881  27.4395275  40.7463264  82.0773697
  27.6183949  40.0390663  81.4576797  26.5931416  41.0981293  81.8015137
  78.8386383  42.8978424  19.3096313  78.4711151  42.6493797  20.1578197
  79.1292953  43.8018532  19.4300957  37.2042465  48.0138779  15.1185541
  36.6658134  48.7676430  14.8773804  37.5908432  47.7217560  14.2930613
  35.1855431   9.8650198  12.4578609  35.8187790   9.9181776  11.7420244
  34.8103027  10.7439699  12.5114594  19.7117538  67.0653839  68.5827942
  18.8135910  66.9406738  68.8893585  20.0534363  66.1777725  68.4749298
  52.6871986  31.5260601  85.3289795  51.8000145  31.2698116  85.5809250
  52.9235268  32.2141304  85.9510269  26.2055454   3.8757310  79.0687790
  27.0593662   4.2966561  79.1689987  26.4076290   2.9458878  78.9649200
  12.8941917  10.5527906   5.9225793  13.7285662  10.6106501   5.4570656
  13.1039848  10.0895472   6.7335196  66.2278366  64.8651123  15.0572109
  67.1082535  65.2330551  15.1328812  65.6456680  65.6224594  15.1183386
  66.3739548  71.1607285  71.7302094  65.6348343  70.7260971  71.3047256
  67.0999985  71.0554047  71.1153946  58.9635925  64.6705170   1.5818661
  59.6117477  63.9662437   1.5709820  59.0637245  65.1013184   0.7329721
   5.1726208  17.1285038  28.7449589   5.1645560  16.2489872  29.1226063
   6.0692554  17.4370556  28.8756275  33.3481331  65.9357758   3.3726666
  32.8621445  65.1147614   3.2953126  33.2944908  66.1592178   4.3018742
  54.6117058  45.3247490  43.5625877  55.3772774  45.6913109  43.1201324
  54.2343712  44.7182579  42.9253883  54.5683899  47.8046227  47.8431435
  53.6693001  47.9576225  48.1337700  54.6125183  48.2102585  46.9772644
  86.5479431  19.9648781  69.0436859  85.6648026  19.8745956  68.6857224
  86.9925385  19.1556110  68.7913895  34.8099670  38.8653946  22.5894604
  34.0866966  39.4866867  22.5051575  35.4236565  39.2919617  23.1875057
  38.2981110  10.5433474  70.7588348  38.1332092  10.4272633  69.8231201
  38.2187614   9.6633530  71.1269989  65.0986557   1.1761808  73.8611679
  65.9350128   0.8469706  73.5319901  65.2051926   2.1273005  73.8770981
   9.4863272  70.0777512  68.5440598   9.4808455  70.4994965  67.6847916
   9.7485542  69.1745758  68.3659058  82.1215439  10.8570538  72.3447723
  81.8516617  11.6026230  72.8809891  82.1460571  10.1197596  72.9547119
  79.5635757  31.1309986  35.1565590  80.5011292  31.1164055  35.3489456
  79.3074188  30.2088089  35.1432915  74.3998947  30.6524048  13.2908564
  75.0839844  29.9867992  13.2185822  73.9314957  30.6059399  12.4573832
   2.7590876  61.7495918  61.7841187   3.2987432  62.3108635  62.3408737
   1.8819395  61.8089638  62.1626930  21.1898632  46.7298851  50.3299866
  21.9536800  46.6864433  50.9052505  21.3200359  46.0168686  49.7047729
  70.1589279   6.4814630  57.7227097  69.3759155   6.2737017  58.2325706
  70.8804245   6.1081305  58.2289581   7.8787403  57.3678627  88.0935822
   7.4282866  56.5401649  88.2616272   7.1975965  57.9456863  87.7494965
  51.4489441  42.8158913  41.1586761  52.3725014  43.0250854  41.0189934
  51.0007286  43.1934052  40.4018250  81.9520035   5.5041056  70.9833984
  81.1572189   6.0359535  71.0244293  82.6587753   6.1384578  70.8638077
  83.2884827  12.5604954  35.3359337  84.1852341  12.3996801  35.0423126
  82.9980774  11.7199974  35.6901321  53.1479607  27.9633713  43.3011322
  54.0998268  28.0638027  43.3109131  52.8233109  28.7919331  42.9485435
  81.2772217  22.7489662  29.0794373  80.5260239  23.2888927  29.3252144
  80.9079514  22.0647030  28.5211773  33.7904472  26.4216785   9.1029501
  33.5201378  27.1569309   8.5528889  34.6991920  26.2561531   8.8519211
  76.4911728  17.8059063  41.4621239  76.5578613  18.7148571  41.7546921
  76.1378021  17.3364010  42.2177238  68.3462982  57.2852135  72.5666122
  67.7831268  56.6458435  73.0028152  67.9301682  58.1293793  72.7411270
   3.7407968  50.7071762  74.8847580   4.1220717  51.0877228  75.6759872
   4.4530163  50.7205200  74.2453842  42.6698380  55.5784340  88.5019531
  42.2940559  54.8305855  88.0374756  42.0911026  55.7092857  89.2530746
   8.1327982  38.7347717  38.2624893   8.3892794  39.1649170  39.0782242
   7.6191945  39.3937798  37.7954216   7.1876817  66.4622421  59.6666451
   7.3793530  65.5771408  59.3566742   6.9808784  66.9546661  58.8722992
   3.6260636  44.6020470   9.5894470   4.5752683  44.4929352   9.5316792
   3.2753353  43.7209740   9.4593143  25.8720646  34.6805344  80.2081299
  26.3729267  34.7621307  79.3965225  25.0818596  34.2033310  79.9549789
  57.8776512  34.2981033  49.3590813  57.0110931  34.2441635  49.7620621
  57.9662209  35.2162971  49.1035271   9.3447790  53.9931679  19.6842766
   8.7917471  53.4211044  19.1521759  10.2365732  53.6895981  19.5146275
  70.0482407  37.8428764  58.7861938  69.2158737  38.0854988  58.3805733
  70.7034149  38.3572502  58.3146057  40.5909348  24.6047173   7.4603038
  40.0850677  24.7324829   8.2628040  40.0958443  25.0728302   6.7880049
  75.9104309  43.4957619  38.3017235  76.7098236  43.0775185  37.9819183
  75.3699570  43.6087608  37.5198364   2.2188993  64.4237366  65.8398743
   2.4354908  64.8419724  65.0065613   3.0622315  64.1369171  66.1902313
  77.2320404  48.4169884  29.5598526  77.7933502  48.5432892  28.7948608
  77.6229553  47.6768303  30.0241680  60.1084099  55.7498589  80.0407867
  60.4310455  56.1378708  79.2274094  59.5109711  55.0584145  79.7558289
  11.2682743  50.1255379  59.9596329  10.6886539  50.8056984  60.3026390
  10.6819744  49.4045334  59.7302132  64.1260376  62.9712524  87.4862442
  63.7561874  62.3534317  88.1169052  63.3770981  63.2562561  86.9626999
  17.1038074  54.0973663  51.1160583  17.7053127  54.2273598  51.8492203
  17.4315109  53.3145485  50.6732979  54.2981453  20.3356171  70.9046478
  54.3725700  19.4005432  71.0952454  54.2464905  20.3820858  69.9499664
  18.7973156  41.7641296  12.2166214  18.9673977  42.2619667  11.4169598
  18.2513256  42.3436165  12.7479591  32.9905434  51.1660843  31.9720383
  33.0208206  51.1034737  31.0173683  32.3444672  51.8503838  32.1468163
  16.0593719  70.3293076  76.2049179  16.0050449  69.7210388  76.9419937
  15.9781904  71.1959686  76.6030960  67.5319061  43.6980362  51.0191231
  67.1679153  44.5104408  50.6673546  66.9987411  43.0068817  50.6263428
   0.7644064  70.1468430  49.6752281   0.3447016  70.7035065  49.0193253
   1.6463517  69.9981461  49.3342133  26.0987873  13.7643805  71.4855042
  26.5396538  14.1275158  72.2536240  26.7833614  13.2815857  71.0223618
  52.0195656   2.1171298  30.5824127  51.0663223   2.1233208  30.6691151
  52.2877731   3.0037556  30.8236446  40.6927948  11.2881479  69.7171021
  40.6253700  11.0169029  68.8016129  39.8197556  11.1332569  70.0777130
  50.0307312  17.8496914  76.6901932  49.5667152  18.1421528  75.9057236
  50.8858604  17.5628643  76.3696976  13.0339203  40.7760353  65.9032822
  13.6672068  41.4900131  65.9768753  12.3879662  40.9575195  66.5859528
  32.2806854   0.9995739  51.6128082  32.5133400   1.8649631  51.9492683
  32.1541595   0.4641314  52.3960876  51.3172035  47.8421135  75.2519150
  50.5388565  48.3972092  75.2995987  51.2350464  47.2497025  75.9992599
  67.6683502  26.6336937  89.2599716  68.0055618  25.8190594  89.6326599
  68.1907349  26.7697124  88.4694977   4.4987030  10.2836275  46.6425018
   4.0828843   9.4308910  46.5153465   4.8654065  10.2419701  47.5256920
  47.0645561  59.8097191  35.8596001  47.4205551  60.4091682  36.5154648
  46.8988037  58.9990997  36.3409042  41.1249275  56.7462158  43.7856522
  40.9593430  57.5832863  43.3519096  41.9192009  56.8952599  44.2986336
  78.7209091  19.4730377  30.5001106  78.6834641  18.6105175  30.9134979
  78.0839081  19.9985104  30.9841976  22.8525524  29.4207935  35.7801590
  22.9919224  29.1768970  36.6952133  22.2401619  30.1554527  35.8187027
  52.0476418  21.0683002   7.0954866  52.4149170  20.7792072   6.2601633
  51.6897621  20.2720776   7.4881501  80.5262527  38.5308075  38.0560684
  80.1866150  38.0607376  37.2945442  81.4517517  38.2893867  38.0933800
   2.6167703  47.1659813  42.0097618   2.6753156  47.1833267  41.0545082
   2.1646607  46.3456993  42.2071571  63.3067818  40.5349579  54.8529854
  63.6819267  41.1883659  54.2625999  62.5683708  40.9819145  55.2667656
  44.9592323  68.2238922  79.5209351  44.2900925  68.1730347  78.8383636
  45.0915680  67.3162766  79.7947083  46.1082916  49.2109413  84.1743851
  46.1962624  49.8131409  84.9132004  45.3701897  49.5551300  83.6714172
  83.3172913  59.9025078  72.6933670  83.8516846  59.4899063  72.0148315
  83.7782288  59.7116852  73.5102921  64.5762787  11.6177177  34.1490936
  65.2445602  12.1822081  33.7605247  63.9265594  11.5033531  33.4555435
  63.7824211  12.7411556  79.7155457  64.7306290  12.8590364  79.7724304
  63.5888977  12.8043556  78.7802429  57.2253380  12.5388546  34.2445107
  56.8948479  11.7940397  34.7467651  57.4995499  13.1722307  34.9077415
  22.3631687  12.1777754  34.4025040  23.3169746  12.1535482  34.4793167
  22.1361065  11.3511581  33.9766197  45.4845886  17.4377270  69.1018372
  44.8781624  17.0168743  69.7112274  44.9332085  18.0196915  68.5788345
  11.6431255  57.6529732  20.3265705  11.3088989  57.9905663  19.4955750
  11.8738585  56.7429352  20.1399536   3.0958374  62.9652786  84.9012604
   3.1379137  62.2829552  85.5712585   2.2443709  63.3812523  85.0361786
  38.2388649   0.8785233   6.0810761  38.0489998   1.3790506   5.2875671
  38.5335846   0.0257195   5.7615485  66.7388992  18.0542488  36.7245865
  65.9795074  18.3026943  37.2516861  66.4812317  18.2534885  35.8245087
  66.3563690  17.3156624  84.8444290  65.6818466  17.0020695  84.2420044
  67.1696320  17.2616482  84.3425140   4.9180803  67.9632339  51.0769196
   5.4303565  67.4576797  51.7079659   4.1480956  67.4213409  50.9045525
  69.3221283  19.2019081  67.8236923  69.1826096  20.1119957  68.0854340
  69.2881393  19.2198563  66.8672638  69.5635071  31.1891499  48.7820320
  68.6378250  31.2762032  49.0095367  69.6630478  31.7050400  47.9819183
  71.4752884  12.0150156  18.0855827  71.2291870  11.7530680  17.1984253
  70.6555862  12.3052597  18.4856911  65.7783508  13.9583855  50.3872566
  65.2688599  13.9259386  51.1969452  66.2939529  13.1519680  50.3962364
   8.5909300  26.8293495  16.7698421   8.5792971  27.7112198  17.1418648
   7.8292217  26.3966141  17.1555538  27.7496853  22.2953434  12.1216240
  28.3097076  22.0687218  12.8640862  26.8585548  22.2287846  12.4646807
   3.0193119  10.3419342  22.4834404   3.7990000  10.5630436  22.9927807
   2.4010773  11.0475836  22.6733780  70.6732941  66.0956955  56.0573463
  70.7514191  67.0486679  56.0128937  70.3995209  65.8365250  55.1775093
  18.0380402  40.3076477  14.5026655  18.2834663  39.5104828  14.0330648
  17.9871368  40.9798737  13.8231401  37.7516861  43.4526405  33.8867302
  36.9112244  43.6026802  34.3195648  38.3528328  43.2360420  34.5994263
  60.6674690  10.4017010  18.5524387  60.2926750  11.1368780  18.0673847
  61.4134369  10.7782087  19.0193501  18.2051468  43.8547516   4.6455274
  17.5525627  43.3816566   4.1292424  17.8898926  44.7584305   4.6599879
  15.0930672  43.0114288  20.3356266  14.4887209  43.2991905  19.6513844
  15.9291725  43.4144669  20.1017094  10.2946968  68.4309464  23.6673584
   9.9470091  68.2641525  22.7912731   9.5954981  68.9064026  24.1160107
  20.7212257  58.3669319  80.9729691  21.6437531  58.5812378  80.8342361
  20.2911625  58.6195641  80.1559906  77.3888779   9.7302542  69.0030212
  76.8604050  10.5206299  69.1137314  78.1266327   9.8497076  69.6010895
  75.4864502  44.3742943  72.6260223  75.7384720  45.2281799  72.9775848
  76.1350174  44.1946182  71.9453583  60.7569275  59.5382957  73.3390045
  61.1704178  60.2326279  73.8519897  59.8453636  59.8165131  73.2502823
  75.9248123  40.5361214  13.8210135  75.2412567  39.9223824  14.0899181
  76.7288666  40.0167923  13.8270426  52.5796356  19.1068401  11.6411343
  53.1607056  19.7384949  11.2173376  51.7005424  19.4588566  11.5014439
  26.5047932  46.4350891  45.7730141  26.5847702  47.3361664  46.0858917
  26.2773399  45.9298325  46.5535355  22.3162842   8.8533039  66.7401733
  22.5718327   8.6299038  65.8451767  22.0932884   8.0137444  67.1422195
  67.4996490  47.7766991  82.5650024  67.0203400  48.5251808  82.2096634
  68.1395645  48.1638069  83.1624069  80.9456024  58.9173584  15.5648041
  80.8855515  58.6170883  16.4717007  81.8125381  59.3182640  15.5021515
  54.0660629  64.9223480  65.3645630  54.6141739  64.3345642  64.8446426
  53.2055664  64.5031509  65.3722687  86.7883224  58.4814873  87.8805695
  86.2420120  59.0801163  87.3712387  87.2360229  59.0444450  88.5121307
  18.5273457  -0.0626909  79.5419083  18.6007004   0.7969875  79.9564056
  18.3836098   0.1296481  78.6153183  68.4770126  21.0300369  20.2724304
  69.2152939  21.2341995  19.6984196  68.0351028  21.8691902  20.4019241
  31.7671776  63.1795120  31.8883781  31.3120003  62.8298035  31.1223793
  32.6927452  63.1638184  31.6448421  65.5329514  41.9807472  44.1840439
  64.6356735  42.3140564  44.1896935  65.5465088  41.3414917  43.4717216
  56.2646751  40.2243690  62.6099739  55.8268204  41.0522232  62.4120407
  56.3343582  39.7820206  61.7639809  65.5343094  27.6654873   1.5794461
  66.4229889  27.5271301   1.2518090  65.1890335  26.7831230   1.7152752
  65.3087463  21.7982903  47.1745148  64.8567505  21.8218155  46.3310814
  65.8778763  21.0306072  47.1199265  58.7486877  34.3636322   3.9405611
  58.4523735  33.8887672   3.1640735  57.9724617  34.8342819   4.2442002
  70.1063995  68.3313980  62.1483116  69.9215622  67.7635117  62.8963585
  71.0597153  68.4173126  62.1426163   6.0051222   6.2275534  49.3160133
   5.0976200   5.9473982  49.1969109   6.4979620   5.4117765  49.4046021
  34.7956696  56.7078247  14.3423824  34.2947311  57.4513168  14.0069551
  35.1012917  56.9937592  15.2032356  81.5891876  45.3462524  68.8722229
  81.8435364  44.9035034  68.0625839  81.9894333  46.2133026  68.8069839
   1.2950380   6.4418960  36.4086723   0.6602490   6.0857377  37.0303040
   1.9857504   6.8129029  36.9577675  77.7243195  70.0137177   3.1836731
  78.4956818  69.5252686   3.4711611  77.5509567  70.6287689   3.8963368
   6.5962434   9.5728197  33.9772301   7.3134718   8.9997826  33.7062225
   5.8646984   8.9784422  34.1439285  28.9620304  43.8872528  26.8065605
  28.1917133  43.8656960  27.3743439  28.6944580  43.4092407  26.0216122
  21.6650295  10.2417545  63.0958748  21.2779503  10.8016424  62.4228783
  20.9442577  10.0582199  63.6983986  50.1223717  41.1686440  45.1596642
  49.1931534  41.1892090  45.3884850  50.2512550  41.9427147  44.6115456
  67.5515442  30.0748501  76.4867706  67.3610916  30.6898441  75.7784348
  68.3747940  30.3883190  76.8612366  85.9124146  42.2684860  18.5816917
  85.0686874  42.2915840  18.1302223  85.6962204  42.4221802  19.5014019
  52.0320625  46.5132484  66.3304138  51.8204079  46.1972656  67.2088165
  51.1812325  46.6676140  65.9199371  60.6304817  27.3788166  49.4073906
  60.2876320  26.9873867  48.6039772  61.0975990  26.6648293  49.8412743
   7.5872893  60.4770241  35.8096962   7.1889858  59.7690773  35.3033371
   6.9700117  60.6376686  36.5234146  11.7839851   5.2861061  66.0186234
  12.0005264   5.0108714  65.1277924  11.7419043   4.4704332  66.5177612
  11.5872526  56.9419670  76.5916138  11.8534346  57.6830673  77.1358109
  12.2233753  56.9292641  75.8764801  25.3001957  71.0172043  19.0216866
  25.4464970  70.2359619  19.5550613  24.8284016  70.6973114  18.2527180
  74.5108643  66.1548080   0.2118230  74.6307983  67.0016556  -0.2179315
  75.3495712  65.7076874   0.0982954   3.4972634  27.3774891  12.3186007
   2.8970087  27.5605793  13.0413761   2.9390147  27.0190716  11.6285810
  81.7803574  10.6587753  80.2332764  80.9091339  10.9724588  80.4757614
  82.1861191  11.4010830  79.7854309  13.6869192  29.9180584  29.5765095
  13.2308455  30.4287128  30.2454338  14.6070423  30.1632309  29.6739559
  24.5172081  69.4216843  23.2842884  24.7900963  68.9272842  24.0571575
  25.0408344  69.0581589  22.5702190   6.4443002  30.0384235  61.0334816
   7.2063737  30.6046677  60.9116440   6.7899995  29.1499214  60.9481239
  55.1800804  49.9531288   9.9367752  55.6348953  50.4564056   9.2614298
  55.3967247  49.0412178   9.7425756  52.3257446  23.3409939  30.1178608
  52.6305733  23.1367111  31.0019302  51.4347458  23.6682568  30.2413788
  36.5021248  58.8830452  81.1398621  36.6720352  58.2903748  80.4076767
  35.5477333  58.9145546  81.2060013  52.9220009  49.9045563  63.6370201
  52.3007126  50.6262398  63.5400734  53.6599312  50.2860413  64.1125793
  70.9123459  65.0862656  48.7354050  71.7723541  65.3324509  49.0760231
  70.2953033  65.6242676  49.2314262   9.8990154  37.3220024  20.1215172
  10.0453558  37.1660194  21.0545139   8.9866896  37.0710297  19.9769306
  68.4568405  54.4483490  43.5865479  67.5609436  54.7565117  43.4500008
  69.0059052  55.1255569  43.1914024   1.9323314  22.3811436   7.5844903
   2.0477824  22.1192627   6.6710787   2.0175655  21.5665150   8.0798168
  27.0545235  35.4447517  69.2821274  26.7283897  35.7447701  70.1305695
  26.9283295  36.1930923  68.6987839  71.7560425   1.0318463  54.3542519
  71.6415939   1.7788862  53.7668304  71.1418533   0.3742140  54.0278702
  76.6989288  63.4650459  48.7302399  75.8889313  63.9716110  48.7896385
  76.4664688  62.7029610  48.1997566  86.4058609  68.1153870  56.9393997
  86.9577103  68.2492218  56.1688309  86.1109848  67.2075424  56.8680687
  42.4980583  29.8057461  30.9810123  42.8127975  29.0710316  30.4543552
  42.3382835  30.5042648  30.3463669  53.6997948  25.0630455  36.8021507
  53.7587662  24.2389450  37.2854843  53.7234459  24.8028526  35.8812981
  71.1235733   0.4339973  81.5237732  70.5554428  -0.3186805  81.3596420
  70.7441177   1.1393117  80.9995804  55.7555504   8.0862865  53.6695480
  55.6150856   8.9999466  53.9179955  55.1887894   7.5880885  54.2584572
   7.9038463  48.6254272  76.8617172   7.1802325  48.2954979  76.3290253
   8.6857882  48.2341118  76.4722672  20.4276848  51.1685181  76.3557816
  20.9549084  51.9673080  76.3698807  19.6966820  51.3742752  75.7730865
  51.3111191  65.5847626   2.2538781  50.9634094  64.9722443   2.9020693
  51.1921921  65.1390228   1.4151840  14.6074743  67.5159836  80.1931229
  13.9712667  68.1929474  80.4237595  15.0905676  67.3551788  81.0036697
  18.5109406  56.5942307   7.2774072  18.3385067  57.5341721   7.3322878
  17.8977814  56.2765350   6.6145816  34.9161568  49.3477669  19.2155762
  34.9553070  50.2487793  19.5363178  35.7684517  49.2025146  18.8048077
  75.3713303   6.1768570  10.6525879  75.0150452   7.0647063  10.6844311
  75.6868668   6.0774755   9.7543726   7.4493771   2.6669512  21.3854752
   7.0426726   3.3330250  20.8312473   6.7124043   2.2105212  21.7913990
  22.8304634  39.8553009  69.8801193  23.7415371  40.0832558  70.0650940
  22.3919811  40.6979256  69.7619934  63.6098671   3.2423484  77.7582092
  62.6563683   3.1612937  77.7806549  63.7693405   4.0684237  77.3016968
  66.1933899  62.2935448  75.0304565  65.7691345  63.0684967  74.6620941
  65.4847717  61.6581421  75.1322174   5.1903157  61.2878723  86.4567413
   5.8163795  60.5855980  86.2804184   4.3443069  60.9265137  86.1923141
  62.1355782  61.8947105  22.3610802  62.1948776  61.5783386  21.4596233
  63.0003777  61.7215576  22.7330589  69.1252518  56.6438446  49.8429985
  69.9917603  56.9602127  49.5874443  69.1726456  56.5585213  50.7952080
   4.9834800  66.4913025  85.9109421   4.8184910  65.9354095  85.1493607
   5.6265836  66.0054550  86.4272766  10.0877066  27.7757988   6.5578728
   9.9916496  27.2093105   7.3234420   9.8456211  28.6467857   6.8725262
  43.3497124   9.5890255  70.2990723  44.0838547  10.1893358  70.4290543
  42.5830917  10.0809660  70.5932083  29.7238750  39.7614517  83.2495346
  28.8436699  39.9762726  82.9407959  30.1586018  39.3795929  82.4870224
  83.7971191  38.4940338  33.4960899  83.4204407  39.3298073  33.7714577
  83.0988388  37.8562698  33.6440315  57.4574509  30.1346245  83.1187286
  58.3534851  29.8168888  83.2300797  57.0600281  30.0387211  83.9842300
  38.6004715  45.5951424  10.6782093  39.2253342  45.6901550   9.9593534
  39.1038246  45.1826668  11.3801546  33.3472366  13.8162785  72.6907806
  32.5253906  14.3039055  72.6358109  33.1395302  12.9551687  72.3280411
  51.5527000  20.1239147   0.6183923  51.2204094  20.3343868  -0.2542561
  50.8195076  19.6912346   1.0559422  55.3408890  25.6743603  73.5347824
  54.3974991  25.6181622  73.6867371  55.7306938  25.2056923  74.2727814
  62.3487434  63.2402840  37.8418236  61.7103920  63.3621330  37.1390495
  62.0272446  63.7911263  38.5555801  13.2563038  17.5812740  87.2303238
  13.3080006  18.5021286  87.4864273  12.3572140  17.4685822  86.9218292
  71.4672775  43.8879204  79.1724701  72.2031708  44.4999580  79.1626358
  70.9793243  44.1127701  79.9646683   8.4609594  33.9679871  65.0847321
   9.0932608  34.3078308  64.4515457   7.6190128  34.0162163  64.6319275
  78.3062439  56.8956032  40.4041672  78.6716537  56.0560608  40.6832352
  77.3930740  56.7010841  40.1931648  61.7281075  32.7801285  13.2735624
  61.9527473  33.1459274  14.1291075  61.6073265  31.8447895  13.4372234
  17.9741154  18.8848591   4.4761267  17.4999447  18.2704716   5.0364141
  18.2670879  18.3554859   3.7343965  26.1979332  24.4340782   8.8573704
  26.8863983  23.8071022   8.6356707  26.6657276  25.1821613   9.2285461
  45.8273621  37.8429794   9.9076509  45.6663780  38.1971283   9.0330677
  45.3360100  37.0217590   9.9276915  51.7302208  56.5546684   1.8410349
  51.3718452  56.1704521   1.0409237  52.4594345  55.9810219   2.0764220
  70.8118439  68.3984222  88.7911148  71.0135651  69.3337784  88.7656784
  71.1058350  68.1134491  89.6563263  53.3735657  51.5878105  66.4806061
  53.9302444  52.2561913  66.0810928  53.8323364  50.7640762  66.3156052
  26.3182335  12.8853378   4.0106902  26.8034744  12.9470558   3.1879122
  25.9149876  13.7470236   4.1161504  56.9054298  41.7952003  67.5653687
  57.2654076  41.7745247  66.6786804  57.6348839  41.5314255  68.1262207
  37.7774620  30.7310658  46.5112190  38.7206230  30.5677452  46.5079956
  37.4255524  30.0903587  47.1291847   4.2243938  61.5870552  24.3896275
   3.9763510  62.3663979  24.8869495   4.6723471  61.9291458  23.6159725
  12.3060904  58.3960953  13.6085606  12.2010632  59.0718384  12.9388056
  12.9997673  57.8296776  13.2706041  54.0019722  11.3827629  60.2931366
  54.6594429  10.7969828  60.6684036  54.4935303  11.9382820  59.6881523
  23.8483047  56.1031799   2.6424730  23.5600471  55.6531830   3.4366031
  23.9266605  55.4085312   1.9885956  79.4701767  19.1182594  44.5176468
  78.8088837  19.6671391  44.9391365  79.1511230  18.2238426  44.6378822
   1.6052613  46.9936752  33.1910744   1.8434317  46.3119011  32.5628319
   1.4411153  46.5207825  34.0069542  77.1960983  32.6711349  55.5378838
  76.9208603  32.0070419  56.1699104  77.8545532  33.1866760  56.0035934
   6.4225979  57.4718285  25.0330486   5.7574019  58.1353760  24.8501549
   6.0580373  56.9598465  25.7549915  69.5947876  43.2616119   3.1271725
  70.2117310  42.7748260   3.6736662  70.0148544  44.1106567   2.9897206
  55.7553711  67.2156296  50.6062508  56.6375504  67.5211563  50.3949623
  55.8518829  66.2711945  50.7285919   5.3662472  57.1024780  30.6621189
   6.2116771  57.1220932  30.2136822   5.5820765  57.2303772  31.5858555
  52.2913094  69.7628098  76.4078674  52.2468300  70.6760406  76.6911774
  53.0318527  69.7357941  75.8019791  12.3960123  49.9561272  57.1873131
  12.7053099  49.0904961  57.4542313  12.1842060  50.3987198  58.0091934
  82.6500549  65.8156052  67.4913330  83.4334564  66.1115646  67.9549408
  82.9413376  65.0530853  66.9913864  31.7157459  42.4105110  56.1857796
  30.7663288  42.3065720  56.2493172  31.8869095  42.4785576  55.2464676
  23.9837418  52.6875038  12.7663498  23.1980515  52.1508217  12.8707132
  24.6412125  52.2586899  13.3141499  74.2182770  56.8379860  55.0076981
  74.6136551  57.6667480  54.7373962  74.8447495  56.4647102  55.6277275
  47.7173271  41.3113327  81.5986938  47.2687225  40.7127266  82.1959000
  47.0815811  42.0080872  81.4356461  52.4142303   6.8607788  23.9941158
  52.4479294   7.7720289  23.7030506  52.4776497   6.9114847  24.9478664
  61.5026703  32.4765511  70.5339661  61.9321785  32.2561378  71.3605042
  60.5764656  32.5608864  70.7603836  48.8748360  49.6041260  75.4532471
  48.5646553  49.0540771  76.1725998  49.0566406  50.4510574  75.8605423
  15.4654722  14.7161131  25.5607834  16.0793552  14.2845888  26.1550617
  15.9733677  14.8739128  24.7649364  38.0738144   1.6653444   3.3405461
  37.9910316   1.9900392   2.4439125  38.2971344   0.7399516   3.2405090
  19.5545101   0.4549800  14.5411510  19.8759327   1.2575380  14.1302729
  20.3451958  -0.0495715  14.7321377  82.1027298  51.0540314  53.4692726
  82.0408096  51.9895668  53.6620712  81.2817459  50.8466034  53.0229759
  53.2876205  57.9132385  65.3802338  52.5857353  58.3684616  64.9150848
  53.3772964  57.0783501  64.9207153  53.8155060  40.3117752  59.6599274
  53.7887268  41.2309647  59.9256477  53.7724380  40.3374329  58.7040405
  81.9621277  57.1014481  88.2241211  81.9494858  58.0585403  88.2173538
  82.4155045  56.8621750  87.4157791  65.1462402  50.6375732  26.6064320
  64.9904480  50.4723091  25.6765671  65.2125626  49.7660942  26.9967613
  52.0764084  61.9932861  14.8482542  51.9190788  62.4104958  15.6952591
  51.2035027  61.8749466  14.4737320  14.7984180  32.1869202  80.0990829
  15.1133642  31.2832851  80.1210861  15.5513248  32.7097549  80.3747787
  69.5286560  36.1780434  15.8217783  68.6760864  36.4357567  15.4711409
  69.6129990  35.2530060  15.5906496  65.6925354  14.9551859  73.1875381
  66.4261627  14.4007435  72.9218140  65.2684860  14.4687605  73.8945084
  35.4856529  60.7842255  85.1181335  35.6849365  61.6727562  84.8231277
  36.0715828  60.2253189  84.6077042  72.0386353  14.7946796  79.6106491
  72.8489914  14.7172203  79.1071014  72.2459946  14.4043427  80.4596863
  40.3481407  14.1750002  15.3416929  40.6416435  14.1509514  16.2524662
  39.4843292  13.7629108  15.3574600   2.2322307  55.5050583  79.9464417
   2.0393701  55.4528236  79.0103302   2.9325807  54.8669510  80.0826721
   6.0765367  46.7584038  82.1725922   6.2332368  46.8219757  81.2304459
   6.7909980  46.2106667  82.4978027  44.9729309  63.9331322  19.2060127
  45.2070694  64.8553009  19.1010685  45.7952309  63.5022926  19.4393291
  86.4653473   7.7345629  46.1931038  86.5982056   7.3777137  45.3148994
  86.0679169   8.5927258  46.0453300  65.3669128  49.2877197  29.7910728
  65.6396866  48.9679413  28.9310913  65.8539734  50.1032677  29.9088898
  20.8695889  30.6656475  15.7166462  21.3190403  30.2363148  16.4445896
  21.5188560  30.6873741  15.0136433  48.5387039  28.5060978  11.6029882
  48.6157188  28.4570122  10.6501551  49.3686905  28.8860188  11.8911114
  52.2547379  47.7025986  21.7102203  52.9692459  48.3092995  21.9041958
  51.5935249  48.2420578  21.2766171  48.2768288  28.6874905  80.9415894
  47.7554779  28.6427441  80.1400757  49.1357384  28.3497086  80.6877975
  23.2973461  12.5696478  15.7128267  22.6589756  11.8839922  15.9092779
  23.5447006  12.4126272  14.8015680  81.2169113  10.7671881   5.6086168
  81.6930084  11.3941631   6.1531043  81.6070328  10.8600788   4.7394753
  77.7227173   6.3910527  52.5611534  78.0468903   5.6300273  52.0795059
  77.3581848   6.9639802  51.8865395   8.3020401  63.2060585  12.2885675
   8.3435106  63.0738373  13.2356834   7.4284630  63.5659370  12.1349964
  58.2589645  40.0142899  53.5325584  58.3289032  39.0659866  53.6423836
  57.3207893  40.1939735  53.5940247   7.6034865  26.8557549  25.2801247
   6.6760130  26.7531567  25.4934273   7.7722197  26.1863842  24.6170235
  70.3711090  13.8633013  67.1285934  70.2705536  14.8026018  67.2829742
  70.2029190  13.7550669  66.1925278  61.9174232  21.1480064  70.8971939
  61.7466965  20.7105904  70.0630798  61.1237755  21.6549091  71.0686722
   0.6897537  49.7320480  77.7839737   0.0848845  49.8296242  77.0485535
   0.1850864  49.2631836  78.4485855   8.7554941  66.7209473  34.6314430
   9.3714600  67.1410522  34.0311699   8.6991615  67.3207092  35.3753166
   6.1052909  29.4265766  40.3114128   5.8878403  29.0969219  39.4394760
   5.2621169  29.4925804  40.7596703   6.6629286  64.5825577  50.4266853
   7.5606217  64.2525864  50.4654350   6.1168880  63.8067932  50.5542221
   7.7092547  49.3300171  82.8405685   8.2949057  49.4139977  83.5930252
   8.1220255  48.6656609  82.2887650  35.9209366   4.3430190   7.9731073
  35.6531563   4.3773298   7.0547681  36.2787476   5.2128396   8.1509171
  74.6213989  39.2250938   3.0014930  74.5713272  39.7222176   2.1850405
  75.1484756  39.7726593   3.5833750   4.6938238  52.2764053  76.9454651
   3.9752195  52.8934059  77.0838318   4.4820995  51.5319405  77.5086517
  71.6137238  50.9138527  72.9191742  72.4342651  51.4043236  72.8704529
  71.8147736  50.1659393  73.4816971  75.7070694  24.9189377  64.6974869
  75.5780487  25.8266735  64.9724426  75.0771561  24.4194565  65.2170563
  18.8797493  44.5776978  35.0325661  18.9301300  45.0323105  35.8734131
  18.3179855  43.8215179  35.2024078  61.9805984   4.9825163  36.2802010
  61.9787560   4.1358662  36.7267532  62.7670746   4.9639874  35.7349129
   5.9630899  -0.1456039  87.1358185   5.6394477   0.3325457  86.3723602
   5.7129927   0.3982507  87.8827438  46.1656761  62.4270821  49.8590775
  45.2286644  62.2863617  49.9948730  46.4562645  62.8833923  50.6487427
  86.1073303  46.5403900  86.0563431  86.6821365  47.2998199  85.9609299
  86.5593948  45.8376770  85.5893707  22.2231483  51.7887077  87.6246109
  22.3057690  50.9587593  87.1549377  21.6114216  52.3024635  87.0972824
   2.3761866  55.2793045  66.1104507   1.9959822  56.0038948  65.6138153
   2.4504273  55.6143150  67.0040283  67.1372528  40.4737930  82.3623276
  67.7990799  39.9498177  82.8136292  67.6411438  41.0828705  81.8225555
  79.3746185  49.3398247  47.6669197  78.5871506  49.5466423  47.1635704
  80.0581970  49.2267342  47.0065002  64.4675293  19.7166157  85.7135162
  64.9812622  20.3209133  86.2493591  65.1125641  19.1074562  85.3542252
   6.4644885  56.2638092  54.9480553   5.8329749  56.7949409  54.4629593
   7.2373362  56.8230324  55.0268440  32.7690697  14.2055159  13.7850189
  32.0663872  14.4626188  14.3819847  33.5090981  14.7594595  14.0334806
  14.3177891  41.0709038  59.6500664  14.4429970  41.9430199  60.0241890
  13.5811615  40.7040482  60.1389732  80.7378693  41.7602844  27.4107494
  81.4868469  41.4518433  26.9007282  80.8954468  42.6975060  27.5248680
  43.8417664  13.8326502  13.9942884  43.6206169  14.3938046  14.7375460
  44.7318382  14.0913372  13.7553606  77.9603653  14.2830563  33.3656158
  78.5741730  15.0043898  33.5039940  77.7729721  13.9559059  34.2454414
  31.4747772  39.8125229  73.3333054  31.0312939  40.3622551  73.9793320
  31.9076653  40.4333572  72.7472992  23.1183052  52.9397545  62.7494736
  23.3825397  52.3590012  62.0359344  23.9355774  53.3373795  63.0497932
  67.2409515  43.3099937  21.8513470  66.5475082  42.9379044  22.3962460
  67.4620209  42.6117058  21.2351036  32.4098511  59.3688622  14.2966642
  32.4135208  58.5696068  13.7699699  31.4903336  59.4984550  14.5288820
   0.5253214  67.1254654  87.1036835   1.4237522  66.9647369  87.3921585
   0.0317035  67.2480469  87.9145737  16.4715805  62.3936653  22.6340847
  16.0196476  62.6836624  21.8416882  15.7677402  62.1635132  23.2406063
  20.3733807  54.9860611  88.0951691  20.7839966  54.1728706  87.8013229
  21.0466938  55.6542549  87.9670944  48.6482544  56.2334290  64.4944382
  47.9934578  56.8893585  64.7336655  48.6650314  56.2496567  63.5375214
  74.8190384  49.8123627  11.6616335  74.6793213  49.0700607  12.2495985
  75.1941376  50.4931221  12.2202950  13.9829865  13.0509062  63.9292183
  13.4847059  12.2930222  64.2350922  14.5115099  12.7139492  63.2057838
  27.1026268   4.3149772  65.8385544  27.8211632   4.1424990  65.2301254
  26.9512939   5.2576075  65.7694244  23.0949688  37.3375092  21.2129078
  23.7739544  36.9432335  21.7604065  23.4772911  38.1626549  20.9142475
  20.7099190  23.7232914  21.7574215  19.9056969  23.4468498  21.3180618
  20.6532593  23.3319874  22.6291466   7.6405106  24.9518948  61.5310402
   8.2815876  25.4112320  62.0734978   8.1393661  24.2498112  61.1133614
  63.1755295   6.1751366  54.7378578  62.7683983   5.3971891  54.3567123
  63.7631721   5.8323870  55.4112320  86.5373764  63.9160004  60.7142143
  86.5079346  63.1202469  61.2453880  86.0201416  64.5525970  61.2076225
   6.8202734  23.0553646   1.6154542   7.4455862  22.4349461   1.2408915
   6.6387663  23.6707859   0.9051419  57.4892731  38.5656738  73.2738113
  58.0053978  39.3181229  72.9845657  56.8636932  38.9306602  73.8996429
  19.0579739  45.7970161  23.9387989  18.3882198  46.3940125  24.2723503
  18.6100750  44.9547958  23.8595276  18.6085529  47.3289680  77.8420639
  18.2833672  46.8191528  78.5840683  18.7760353  46.6788254  77.1597900
  60.3223877  37.2825508  38.9060593  59.8097649  36.5285187  39.1974182
  61.2332687  37.0050621  39.0036736  28.6581764  63.6605377  25.8923740
  29.4377956  64.1510086  25.6318665  28.9230213  62.7424126  25.8364124
   1.8495435   3.4064190  53.4133797   1.5290722   4.2780108  53.6454506
   2.4927204   3.5639086  52.7221832  29.4016857  64.9227295   2.8121037
  28.7299728  64.3024902   3.0955391  29.0518417  65.7808228   3.0519202
  38.0419159  53.9192047  69.7495880  37.7155266  53.3984566  70.4834290
  38.8207359  53.4498978  69.4505463  62.7921066  -0.2334674  25.5543919
  62.4793243   0.0090951  24.6828613  62.8061867   0.5903041  26.0416641
  37.5606346  51.4533958  25.2376060  38.2516251  51.0735817  25.7802868
  37.7357216  52.3943558  25.2507668  84.7160950  41.0374260  37.1120605
  84.7168045  41.8385620  37.6359062  85.4309006  41.1592064  36.4871979
  50.2783203  17.8742886  22.4232864  50.0325050  18.6434898  21.9093475
  49.8185730  17.1479645  22.0021954  82.6343765  44.9055901  81.0193100
  81.9438400  45.5435257  81.1993942  83.2519684  45.0104218  81.7430573
   6.1515870  57.6006088   6.0720005   6.0647283  56.6809196   5.8212719
   5.3108363  57.8197899   6.4736586  84.2980270  28.6666775  21.5985928
  84.8577499  29.4258194  21.7618427  83.4236755  28.9524155  21.8633327
  59.6176529  24.4431305  39.4638596  60.3422737  24.3721027  38.8424797
  59.2199020  25.2923527  39.2719040  63.2971306  44.0272331  68.2830429
  63.3809357  44.4573784  69.1340332  64.1981506  43.8409157  68.0190811
  40.5144424  42.3307114  10.9087906  39.7192993  41.9308395  11.2610397
  40.5185242  43.2161751  11.2723389  60.0242195  54.2836456  70.4856033
  60.3191452  55.1942673  70.4903030  59.3329201  54.2591972  69.8239822
  36.0238380  65.7120285  53.2088737  36.1494255  66.5240250  52.7178307
  35.0812912  65.6736526  53.3712311  53.0798645  37.4809837  59.3035164
  53.9348106  37.1706467  59.0052071  53.1309013  38.4337654  59.2271271
  31.9909229  67.8579483  38.1653862  31.1880188  68.3693619  38.2655754
  32.6911926  68.5104828  38.1581688  57.6762314  51.0430832  84.4085922
  57.8168030  50.3111038  83.8080292  58.4823418  51.0893097  84.9226761
  57.7273788  53.3975601  52.5745277  57.4749870  53.4517365  51.6527939
  56.9209328  53.5845184  53.0550690  67.3130875  48.2930565  53.4817009
  68.2584686  48.1983566  53.3654442  66.9798889  48.4681053  52.6016045
  19.7801571  51.8190765  54.7157211  20.7345676  51.8912697  54.7267342
  19.6117039  50.8781853  54.6649132  77.5100708   6.0825987  25.4463253
  76.6235962   6.1781340  25.0980759  77.6443787   6.8671513  25.9779930
  27.7022457  60.1534882  53.8366661  28.1971798  60.5307732  53.1093903
  28.2438507  59.4262047  54.1431847  16.3606167  70.5603561  81.1815109
  16.7002430  69.6915588  80.9668503  16.9558125  71.1660461  80.7397995
   8.8129244  49.9347343  40.8878784   8.6313276  49.3848763  40.1257057
   9.7634449  49.8925934  40.9926071  14.0627413   5.2612534  79.1233215
  14.5286026   6.0786610  78.9471130  13.1605549   5.4374142  78.8563766
   9.2821484  16.7338886  79.1670456   9.5779896  15.9597254  79.6459808
   9.7795029  17.4567509  79.5495834  32.6453743  38.9582520  84.9107132
  32.0499840  39.6907654  85.0693512  33.5200005  39.3375549  84.9966812
  72.0987015   6.8691363  13.6762753  71.8220367   7.1155286  12.7936764
  72.5139999   7.6574860  14.0259304  65.1162415   8.5911674  37.5426750
  66.0704346   8.5315771  37.5896378  64.9269333   8.6703424  36.6077271
  42.0743599  10.7690401   5.0305252  41.7235260  11.5423927   4.5888562
  41.9431992  10.9451714   5.9621935   7.5582719   1.0061131  77.4292221
   7.6022191   0.2021430  77.9468460   6.7392325   1.4208914  77.7000885
  57.1002388   1.1103169  14.8028812  56.2421761   1.4691503  15.0291567
  57.2199936   0.3771465  15.4064970  32.6503754  52.5661697  35.5069580
  32.7668915  53.4564972  35.8385811  33.4995575  52.3385391  35.1284027
  78.6720581  44.4546700  82.0738297  78.2755737  44.5349045  82.9413452
  79.2613983  43.7040939  82.1483231  21.7845192  10.3828192  15.7395468
  21.9594803   9.8400640  16.5083351  20.8402786  10.3065195  15.6023598
  80.7224426  53.8583069  81.0583496  81.0290680  53.1340523  81.6039429
  80.3153152  54.4669113  81.6748581  20.2142830  40.5976448  88.8689575
  20.7210770  41.0121155  89.5672455  20.4460278  41.0889511  88.0808334
  56.7548599  35.2592926  18.3526592  57.0819778  34.7974205  19.1246052
  55.9126740  35.6207848  18.6288414  83.2862473  68.4922409   1.2483697
  83.8978348  69.1746292   0.9717163  82.6111755  68.9604492   1.7395802
  63.5811081  71.8522339  59.6677628  62.6791191  71.7953873  59.9830589
  63.6748047  71.1070709  59.0743141   2.0857320  15.3944235  14.3495884
   2.7651951  15.7043333  14.9483509   1.7296897  16.1919651  13.9579325
  20.1193104  59.8547134  22.5008068  19.7634296  60.6866035  22.8131180
  19.5995007  59.1881409  22.9499302  46.7551651  49.4865646  70.9890594
  46.5020103  49.7120018  70.0938950  47.0219765  48.5686913  70.9385605
   2.9926169  69.9930954  69.1176987   3.1358454  69.3423386  69.8048935
   3.3394697  69.5843353  68.3246994  65.4942474  12.5089540  44.1992722
  66.3828430  12.5434256  44.5534554  65.5210266  11.8029118  43.5535011
  31.8165112  36.4628830  56.9262772  32.1040573  36.3582077  56.0193062
  31.0805607  37.0728111  56.8753357  86.9132462   9.4527636  84.2567978
  87.2349854  10.3071060  84.5445709  86.1219254   9.3077230  84.7754517
  35.9641380   3.9561353  40.3657227  36.0676880   4.0104675  39.4156914
  35.9952126   4.8656530  40.6624451  71.3211594  63.1874275  20.4922066
  71.6710739  64.0722733  20.3880730  71.9514389  62.7461014  21.0616074
  32.9756584  70.1244125  15.4844265  33.3671837  70.5992661  14.7513132
  32.6145744  70.8089447  16.0476933  83.4195786   2.9028401  58.0040894
  83.5424728   2.4639323  58.8458061  82.4772339   3.0627327  57.9526749
  50.0597878   5.2221684  76.6118546  49.1992760   5.5583367  76.8623428
  49.8770409   4.5911026  75.9157257  60.4501343   5.1229382  66.5109024
  60.1062279   4.7430415  65.7024231  60.8286896   4.3807654  66.9821854
  46.9215927  18.3185463   6.5071540  46.1380844  18.8363667   6.3222008
  46.6720161  17.7615356   7.2445011  13.2271538  37.6409225  77.5546341
  13.7665739  38.2134666  77.0092468  12.5952587  37.2568550  76.9468231
  53.1921158  25.7685986  81.5557938  53.9157181  25.5485783  80.9690857
  53.6029968  26.2537231  82.2713776  73.4924850  34.5715714  82.5761414
  74.2602768  34.3678741  83.1102066  73.8535461  34.8622513  81.7386627
  11.0407877  10.5964031  84.8023911  11.1871815  10.3654928  85.7197113
  10.3101273  10.0415630  84.5294113  52.0597992  15.3878422  58.0395737
  51.4706726  14.6976490  58.3442001  52.1204185  15.9941015  58.7778206
  68.4087906   1.7376561  70.1227188  67.9095917   2.2959597  70.7188110
  68.7560425   2.3399675  69.4647903   2.9705958   4.4714980  56.0041504
   2.1853247   4.4788570  55.4568596   3.6954911   4.5500946  55.3840027
  61.5987053   1.0106860   7.2711902  61.4375839   1.7204822   7.8928499
  60.9535980   0.3413709   7.4994111  35.4374008  32.8849335  69.1746445
  34.6077538  32.9893379  68.7087936  35.2431450  32.2592430  69.8725052
   2.3756471  11.7693710  26.2354050   2.9877639  12.3671980  26.6645298
   2.9102573  11.0139332  25.9909935  47.1602707  36.2375412  48.8337059
  46.9948006  35.2948456  48.8472481  47.2806778  36.4728203  49.7536926
  46.0698166  46.1423912  38.2526436  45.4922256  46.7495079  37.7900085
  45.4924355  45.4358292  38.5418282  62.4572983  41.1850204  69.0670395
  61.9607468  41.9941521  69.1894150  63.3714905  41.4458237  69.1786652
  50.7062416   9.1897821  65.8755341  50.1362534   8.8248901  65.1986313
  51.0378189  10.0036917  65.4962769  18.9331512   4.0247684   0.7176540
  18.9849834   4.9374328   0.4337717  18.0833740   3.9572527   1.1530310
  76.1519165  43.9171371  52.3115005  76.5219498  43.0735207  52.5715256
  76.7563705  44.2494850  51.6478691   5.1261311  13.4222202  71.7398453
   5.3971338  13.1741514  72.6237335   4.9076147  14.3516264  71.8083115
   0.0042308  48.2771034  81.6674957  -0.2008905  48.9090691  82.3565369
   0.6592098  47.6995354  82.0594788  79.3330231  34.2316704  14.6540270
  78.7772903  33.4865341  14.4256191  80.1657867  33.8383217  14.9148016
  29.6265564  59.1147194  14.5393381  28.8214073  59.4806786  14.1732216
  29.5250988  58.1678772  14.4422245  45.5236206  58.1951218  56.4335060
  44.8832245  58.7694893  56.8533058  45.2875443  57.3161201  56.7299042
  79.3079834  57.3913994  62.5975342  79.5289001  57.4170456  63.5285378
  78.4089966  57.0635529  62.5736313  43.0976753  34.6412506  63.5643082
  42.1552582  34.4998970  63.6543007  43.2854118  35.3800430  64.1432495
  82.3368683  39.3442802  71.3578568  82.7124557  39.9440727  72.0023804
  81.9818344  39.9158974  70.6770935  56.4434967  57.3461494  21.7277622
  57.0964737  58.0426216  21.6586323  56.9186745  56.6096611  22.1124973
  81.4105606  56.4464226  75.4977188  81.2630386  56.6939774  74.5849304
  81.9556732  55.6611862  75.4478149  75.8577728  47.6601830  89.0119934
  76.7882919  47.7618790  89.2120514  75.7215118  48.1933289  88.2287827
  41.3595123  25.7606735  70.1653061  41.1216812  24.8377304  70.2538528
  40.5923462  26.1681976  69.7632980  63.8512611  23.1273232  49.1438370
  63.4527740  22.4196625  49.6504517  64.3882980  22.6804562  48.4895172
  45.6720161  35.9809570  26.8027172  45.6743774  35.9962959  27.7597904
  46.2284813  36.7176476  26.5499954  65.5161819  14.4719610  19.2545013
  65.7237701  13.5391216  19.2001686  64.8878326  14.5360088  19.9737377
  28.9135437  58.8587074  35.5417862  29.3246460  59.6052780  35.1060600
  28.7986794  58.2097321  34.8476143  19.2566948  36.8007736  18.5986652
  19.1968880  35.8472824  18.5394497  20.1615105  36.9994316  18.3576775
  21.9372635   4.2064033  87.6081085  21.4509144   4.2561703  86.7851791
  21.4528770   3.5703952  88.1345062  73.0689240  43.6453209  12.1791687
  72.5870514  43.4003754  12.9691277  73.1154861  42.8379974  11.6670256
  54.9588776  71.5258026   6.3518953  55.6953201  70.9380188   6.1833858
  54.7896461  71.4349823   7.2896295  44.3510895  20.1064453   0.8288942
  43.9587135  19.9249477   1.6829042  44.2428093  19.2920971   0.3376246
  13.3405819  27.2725010  16.1549168  13.5053511  27.5155087  15.2438564
  14.2047634  27.2855129  16.5663204  63.0325432  69.7025833  30.4853210
  62.3468285  69.5345383  31.1316891  62.9619446  70.6388397  30.2991447
   2.0023730  32.6185837  10.3022108   2.7246408  32.4368668  10.9034939
   1.7813538  31.7654743   9.9285946  68.5903015   3.4434729  47.4206963
  69.5158844   3.6611307  47.5309448  68.5942078   2.6246045  46.9250450
  43.5732193  66.6615219  49.1515884  42.8927879  66.0370865  48.8999481
  43.0927238  67.4475784  49.4113541   4.5421982  47.3987808  66.5747147
   4.8300443  47.8732986  67.3545914   4.0155816  48.0335197  66.0888977
  37.5009956  11.6703758  87.4663773  37.9041443  12.4250889  87.8954544
  37.9950905  11.5648851  86.6533737  74.8617859  51.8039627  21.4729481
  74.0811386  52.3466835  21.3621502  74.9001541  51.2741585  20.6766644
  18.1391106  15.7066917  70.6620331  18.1702671  15.5348110  69.7209091
  18.9843426  16.1099739  70.8599625  38.2470818  51.9401550  80.9606934
  38.5644455  52.7638092  80.5904160  38.7394257  51.8382759  81.7752228
  42.8916321  61.5003052   4.5660954  43.0906868  60.8717728   5.2600403
  41.9699821  61.3450546   4.3594794  84.9118805  19.9962120  73.2265778
  85.4058075  20.4929695  72.5742722  84.0778580  20.4601822  73.2998581
  85.1156235  14.0494967  19.6678200  85.9876709  13.6682158  19.7697582
  84.8063889  14.1830635  20.5637913  68.0009766  34.9781075  22.6909199
  67.5757141  34.3695259  22.0867538  68.9260254  34.9511566  22.4464054
   4.4589891  39.8047714  43.0685883   4.8624783  39.8471527  42.2016220
   5.0603437  40.2865715  43.6364555  22.5730801  38.7347870  56.2102470
  22.3506756  39.5787506  55.8171883  22.4862499  38.8790970  57.1525154
  50.4000931  51.5510826  55.6517258  50.1312523  50.6381950  55.7546616
  49.6319656  51.9867935  55.2824516  43.6919479   4.9086185   4.1984639
  44.6252708   5.1208849   4.1893129  43.2964668   5.5416365   3.5992038
  86.4361649  65.2743225  65.6724548  87.3102951  64.9971390  65.9468613
  85.9316788  65.3148193  66.4849091   5.4191470  28.1906796  87.1268997
   4.7211165  28.1846180  86.4719543   5.9989471  27.4752789  86.8656235
  45.9547997  10.3199987  64.9665222  45.0739861  10.3624468  65.3388138
  45.9340782  10.9331474  64.2317810  14.6452618  43.5931091  43.4484215
  14.3119707  42.7364388  43.7153816  14.0335836  43.8885460  42.7740364
  16.9023838  62.5690689  84.3518448  17.7653465  62.8026352  84.6938553
  16.9177456  61.6136703  84.2952194  52.7818565  55.1483612  45.4935532
  52.9930573  55.2029343  46.4255638  51.8389931  54.9848976  45.4707985
  39.1484756  11.6235771  73.8511887  39.1238251  12.4771080  73.4186325
  39.4988060  11.0289536  73.1879196  26.5275002   4.1964703  69.9643021
  27.3889179   3.8103688  69.8058167  26.3472424   4.0098834  70.8856735
  13.2909918  18.7163239   5.5485377  13.3059473  17.9512119   4.9735503
  13.0837679  18.3620548   6.4132824  72.4311981  32.0135040  53.5301743
  72.9162674  32.4778328  52.8480148  71.6943130  32.5893440  53.7342339
  42.9851570  48.9720345  84.7711334  42.2294006  48.6828270  85.2824249
  43.6762428  48.3472443  84.9908371   8.5644207  12.7972193  20.6166630
   7.8473325  13.3526163  20.9225216   8.4256783  11.9607172  21.0607872
  38.0203285  58.1503944  32.4422150  37.9741898  57.2642479  32.8011665
  37.2562408  58.5967255  32.8071632   5.8714976   8.1945009  42.4136467
   6.6379452   8.5028143  41.9301910   5.9518490   7.2407022  42.4069824
  54.8930168  16.5192719   3.5024233  55.0141106  15.6696405   3.9263270
  55.7776985  16.7962017   3.2639279  66.0977325  15.1126404  77.7385254
  66.4278946  14.4069996  78.2946701  65.2089615  15.2720432  78.0561905
   7.7160273  29.5002689  74.8737106   6.9352617  29.2277317  75.3557510
   7.9484868  28.7379189  74.3436050   7.4884548  51.1722107  42.7829285
   6.8404217  51.8171234  42.4994240   7.7729459  50.7469597  41.9739418
  30.4404869  48.4179764  11.2020130  30.6520786  47.5498123  11.5451632
  31.0116673  49.0131683  11.6875334  16.5691547  63.6101227  10.8089476
  17.4324188  64.0231476  10.7885962  16.3253536  63.6102257  11.7345781
  61.9918365  23.4039516  46.9096947  62.5392723  24.0974960  46.5415382
  62.4990959  23.0643787  47.6469955  49.4960365  15.5444088  32.7875137
  49.4360390  16.2082214  33.4745255  50.2355347  15.8242397  32.2480049
  39.4909782  17.8163338  84.5894241  39.5754929  16.9093590  84.8835068
  40.3891449  18.0948334  84.4106369  84.8830719  34.7598839  31.7338428
  84.7389069  33.9728241  31.2084980  85.7733383  34.6625519  32.0717621
  45.6284904  16.5598679  22.1863327  44.7862015  16.3242989  21.7973785
  45.8530273  15.8132792  22.7416897  58.8642273  55.9459419  30.1106319
  57.9528160  56.2007027  30.2543411  59.3595505  56.7580910  30.2169456
  60.8965073  48.9048271  76.4787369  61.2830734  48.0659904  76.7300415
  61.6317024  49.4152718  76.1393814  20.7662334   5.4163675  85.2566757
  20.9823418   6.3183432  85.4932480  20.4249973   5.4779592  84.3644867
  30.2433739  27.8483505  69.6926422  31.0054455  27.8157406  69.1143570
  30.3333302  28.6783772  70.1608276  36.9609718  42.4413643  87.2750168
  37.6677780  42.0373192  87.7784119  36.5756378  41.7182350  86.7802124
  58.6914444  13.3825083   4.6788869  59.4354553  13.2454872   5.2653189
  58.5545349  14.3298588   4.6829910  78.1818771  51.2242851  10.1548691
  78.4728928  50.3173218  10.2495155  77.5116501  51.3324242  10.8296499
   1.9028602  35.5546303  17.8780079   1.6172832  35.3540154  18.7693157
   2.7188022  35.0654907  17.7721233  44.5724106   0.3419163  62.0805511
  44.0407791   0.2334739  62.8691177  45.4760551   0.2887366  62.3917198
  20.1638947  48.0660057  16.8010883  21.0506554  48.4029999  16.9288540
  19.6408215  48.8405113  16.5942783   1.4585664  25.8650150  65.9773026
   1.1744219  25.6138649  65.0984344   1.3640226  26.8173389  65.9965897
  85.9328995  66.8489609  74.4033813  85.1593857  66.4269867  74.0294189
  85.6054916  67.3057404  75.1782303   8.8911982  50.1299133  54.7840347
   9.0726089  49.7756615  55.6545677   9.0064545  49.3853302  54.1936607
  62.3673630  26.1810799  73.0740967  63.1730537  26.6659794  72.8953171
  62.6562500  25.4056988  73.5553055  38.0311661  61.4608002   8.3077879
  37.9095154  60.5233612   8.1573381  37.1484680  61.7940025   8.4691925
  54.7038383  30.8433838  36.8974953  54.3524399  31.5866795  37.3876610
  53.9789810  30.5596008  36.3404617  64.5618973  37.2391205  81.6569061
  65.2685165  37.6365356  81.1480103  63.7823372  37.3518791  81.1130295
   2.7299898  34.4203796  23.2470875   2.1935534  34.5781212  24.0239944
   3.0560536  35.2861328  23.0013523  29.9706688  49.0268860  43.4353943
  30.1929550  49.8400574  43.8887901  30.3361568  49.1346359  42.5573044
  28.8107643  61.7377548  59.8099899  29.4058666  61.0943146  59.4251900
  28.4270554  62.1888885  59.0580063  13.1747112  36.7961044  15.5339508
  12.7701855  37.6067467  15.8429012  13.8936834  37.0860558  14.9724894
  54.8803101  15.6736670  45.0423012  54.7665977  15.9616184  44.1365509
  54.0222588  15.8062429  45.4452896  77.7368240   6.9494238  16.8923321
  78.2039185   6.7760258  16.0750256  78.3226624   6.6252875  17.5764122
  78.0493088  57.1187630  67.6571274  78.1815033  56.5311165  68.4010544
  77.6115036  57.8835373  68.0308609  67.7721024  53.8299789  10.2697735
  67.3842773  53.5977058   9.4260473  67.8358841  52.9991913  10.7408905
  39.1969795   5.6118150  47.8857002  39.8811035   5.1503544  48.3707390
  38.9436302   5.0033975  47.1915321  49.5836945  35.9636230  71.6891327
  49.9186592  35.1748428  72.1155701  50.0318909  35.9875336  70.8436813
  52.1154671  49.0661888  18.2832069  51.5634575  48.2965431  18.1447773
  51.7688484  49.7215652  17.6777573  46.2279205   3.2653294  20.2642403
  45.5301781   3.4543095  19.6368046  46.5631065   2.4088879  19.9989319
  38.0986404  41.4040413  78.6849594  37.1463776  41.4806290  78.6253128
  38.3565292  40.9797363  77.8666153  85.9024582   7.6913714  29.1290283
  86.4316406   7.2882619  29.8172874  86.1214676   7.1979861  28.3385620
  62.5380936  64.1936264  66.2071609  62.3859062  64.4055557  65.2862091
  62.9382591  64.9830856  66.5716476  37.3016624  48.7618866  58.5009842
  36.7078819  48.3555641  57.8696709  37.5361176  48.0529633  59.0998917
  69.0179672  42.0934105   6.1816330  68.5694733  41.5718117   5.5160365
  69.8967896  42.2292671   5.8274412  29.7141495  38.8363762  64.3367844
  29.5349808  37.9011497  64.4341583  29.5470791  39.2038918  65.2046814
  70.9090271  56.2362671   3.8050001  70.5153580  55.3930092   4.0289969
  70.2269058  56.6967621   3.3162465  25.7776909  31.2632217  88.5004501
  24.9324951  31.6758137  88.6783447  25.5977173  30.6438122  87.7932205
  75.0290070  68.7961578  88.5846634  75.8873749  69.2130661  88.5096588
  74.4183578  69.5242233  88.6998062  56.3230400  55.8076706  28.3467255
  56.7474213  56.6652412  28.3203239  57.0463905  55.1814651  28.3173962
  35.6052055  27.2944565  15.0339642  35.5506783  26.7245007  15.8010426
  36.4664345  27.1099091  14.6591873  86.2947388   6.6207356  76.6105881
  85.4871063   6.2062502  76.9141693  86.1158447   7.5596933  76.6614685
   6.6094503  51.8589592  36.2753258   6.5726843  52.7941895  36.0747681
   6.7826777  51.8223572  37.2160110  63.2871857  66.0329895  39.3439178
  62.3901482  66.1650543  39.6507034  63.4896545  66.8258591  38.8473320
  66.4536896  11.4697342  59.2282600  66.5704575  12.3066406  58.7786102
  65.8726120  10.9691601  58.6555367  41.2915382  14.1773624  23.8209095
  40.9742241  13.6426592  23.0931492  41.0970116  15.0773878  23.5594749
  49.0943718  43.0287094  21.2813377  48.6350479  42.9745560  22.1193829
  48.4143028  42.8763618  20.6251888  18.1290092  43.9103508  73.4895096
  18.5494251  44.7121048  73.1785889  17.2105904  44.0085869  73.2383347
  56.2556953   5.6565957   4.1440725  56.7177162   6.3288751   3.6432633
  55.7971573   5.1381478   3.4828718  52.2677383   3.4631863  25.3593845
  51.6445999   4.1622620  25.1613293  51.8306580   2.9348493  26.0272560
  27.4856434  44.2058983  66.5489197  28.1890354  44.6341858  66.0610275
  27.4523678  43.3184357  66.1917953  81.4602737  42.7973137  10.4558134
  82.0974274  42.8091164   9.7415781  80.8106995  42.1478500  10.1865988
  37.3535652  46.3756065   2.7576849  36.4691811  46.0355186   2.8934879
  37.8672638  45.9992409   3.4723141  67.0971298  15.2795410   6.6308017
  67.6700745  15.0126019   5.9119740  67.3837738  14.7499723   7.3748622
  25.5498447  67.5673141  86.0924377  24.7848740  68.1334152  86.1952667
  26.2528648  68.0293732  86.5490494  63.3858109  66.3023071  55.2295113
  63.1588135  65.5617981  54.6670647  62.6422882  66.8999252  55.1503906
  35.0291786  50.2435913  25.2076416  35.8722382  50.6894226  25.2896023
  34.9797440  49.9923935  24.2853127   3.1027844  70.4676743  56.8198318
   3.4859421  69.8442688  57.4369125   3.7980313  71.1063461  56.6618271
  41.0634651  50.5122986  23.3602161  40.4298859  49.8364868  23.6012287
  40.8588142  51.2488403  23.9362888  66.0668945   6.8142037  40.0108261
  66.1224747   5.9782562  39.5478630  66.6334915   7.4025254  39.5117455
  49.3561287  66.4670105  25.8398323  48.8949165  66.5903015  26.6694794
  50.2162170  66.8619766  25.9829369  20.2487888  48.1422577  20.4142036
  21.1944275  48.0451889  20.5263500  20.1534557  48.8814316  19.8135624
  28.3267841  23.3771725  78.5503616  28.1789818  23.5006866  79.4879837
  27.6475830  22.7591686  78.2801971  64.6065369  54.3947182  16.5817871
  65.0321045  53.9412956  15.8541002  65.3067017  54.9055862  16.9879971
  67.8767700  12.8871183   1.0117446  67.2771072  12.3953552   1.5728195
  68.3582993  12.2153292   0.5289838  11.8775797  54.7208138  45.9390450
  11.8853159  54.5393639  44.9992332  12.4165421  55.5059128  46.0358467
  82.5946655  52.1288719  17.2963829  81.7561493  52.3842697  17.6809444
  82.8899155  52.9085846  16.8261604  41.7535553   4.1634417  21.6242886
  41.7785530   3.6748850  20.8015385  42.6129799   4.0134201  22.0181389
  58.6082420  46.9975357   2.6860383  57.9543152  46.3181610   2.5215263
  59.0318947  47.1324730   1.8383702   7.4451346  20.6465664  61.2331963
   6.6033211  20.2973003  60.9406319   7.8587041  20.9749222  60.4348412
  39.3885574  58.7053680  41.7919235  39.7295113  58.9771004  40.9397850
  39.1081963  59.5202179  42.2086334  27.5071945  27.1229382   2.5960267
  27.1632404  27.7811737   1.9921612  27.0126266  27.2578030   3.4043872
  41.1515770  36.1340218  54.6460495  41.4231300  35.7018929  55.4558411
  41.9062653  36.0474358  54.0636597  31.9026356  71.6669846  73.9459839
  31.2421417  71.0029221  73.7485046  31.7047062  71.9429550  74.8409195
  69.9586639  46.0440407  68.0704880  69.6306534  46.6813927  68.7048569
  70.9100800  46.0736198  68.1713181  54.9667854  36.0154915  72.5479507
  55.0052109  35.5591812  73.3885117  54.5863533  36.8688812  72.7558746
  24.5161266  57.8457603  34.4755135  24.9097900  58.1227341  35.3028870
  23.7146645  58.3644867  34.4061050  61.6092949  41.6060066  56.7318306
  60.7400436  41.4165726  56.3786392  61.4394951  42.0003777  57.5873260
   3.1221941  21.9431190  77.5727921   2.5113492  22.6594276  77.7459946
   3.9646420  22.3753796  77.4325638  51.9918518  46.2398758   3.6806874
  51.6730385  46.4180756   2.7959075  52.9269218  46.4410896   3.6433957
  23.2961979  35.5720634  62.0658264  23.2168941  36.3806877  61.5597954
  23.0547047  34.8797798  61.4504776  28.0975189  17.7786331  17.5489178
  28.2323704  16.9867439  17.0283813  28.9785976  18.0466366  17.8098888
  62.0779495  57.7622337  81.3427200  62.7568092  57.8901176  80.6801300
  61.5787086  57.0071640  81.0314941  59.2853050  32.1460037  77.4940872
  58.8437920  32.7651634  76.9127655  58.8120193  32.2165794  78.3230896
  10.6216135  64.8589020  21.9352970  10.3606606  65.4734650  21.2494049
  10.7661848  65.4076004  22.7061806  60.8303375  29.9335995   3.5006971
  60.2660866  29.4019547   4.0621290  61.6074524  29.3924904   3.3609648
  63.3267784  68.9547424  59.5813751  62.4138145  68.8522797  59.3126183
  63.8256531  68.4679871  58.9253006  36.3346138  47.6090279  75.0525894
  37.1588440  47.2581558  75.3898849  35.7164993  47.5059967  75.7761536
  60.0175629  60.4317017  23.0605812  59.2845268  61.0433159  23.1299820
  60.7750778  60.9860306  22.8731670  12.2109833   2.1747715  22.0951252
  13.1618328   2.0674782  22.1197224  11.9317207   1.6626726  21.3361797
  76.0518341  51.7188759  78.4151306  76.1247253  52.5835876  78.8190994
  76.5675201  51.7857094  77.6114883  37.6731071   6.7142534  88.9069061
  38.2464943   6.3703604  89.5918884  37.0649223   5.9986005  88.7220230
  56.0763474  13.1391220  44.2375717  55.6352654  13.9886265  44.2420311
  56.9899368  13.3446436  44.0392151  65.6451492   5.1334519   3.7407539
  64.8187790   5.5442705   3.9948499  65.4596329   4.1944857   3.7532415
  71.2964401  45.0649338  74.2821884  70.5640717  45.3389130  74.8342743
  72.0465851  45.0366173  74.8760834  79.1516418  55.5141068  49.0850830
  80.0459442  55.3987808  48.7638931  78.6729355  54.7623444  48.7359123
  45.5825119  59.8892288  62.8388443  46.3994102  59.7130318  62.3720856
  44.9013557  59.5182152  62.2779465  77.3774948  18.6913338  24.5172329
  76.9303131  19.0688534  25.2746906  77.3288498  19.3723984  23.8463993
  66.7313309  65.7383575  83.0369873  66.8481598  66.5679092  82.5739288
  65.7922440  65.5621490  82.9794846  53.9455719  24.9184456  66.0250702
  53.2086334  25.3578320  66.4494400  54.3941498  25.6137695  65.5438919
  38.6804962  29.8298569   1.4940461  38.1495895  30.5659962   1.1899534
  39.5525818  30.0003757   1.1382039  14.2986565  33.5906448  23.6635418
  13.9207401  32.7646446  23.3616543  15.0759239  33.3316689  24.1585350
  59.5235138  14.0243568  25.5310040  59.3217812  13.3285561  26.1566219
  59.2256546  13.6823072  24.6880836  62.1720734  41.8101387  79.0937119
  61.7356873  42.2320824  78.3536072  61.5962944  41.9793282  79.8394241
  68.5485535   2.3277330  15.8265305  69.1798630   2.3515439  15.1074276
  69.0783157   2.4492371  16.6144543  48.3975334  47.5189095  45.4445839
  48.2463875  46.5743828  45.4091797  49.2701683  47.6076279  45.8278198
  58.5296707  25.7757854  53.7674026  58.4872627  26.7289639  53.6906891
  58.0609703  25.4524841  52.9979706  68.8744507  63.6604805  34.2215347
  68.1919708  64.0179520  33.6534996  69.0072556  62.7674522  33.9035797
  26.2049675  58.3441238  11.4560289  26.3583450  57.4818306  11.0698185
  25.8682537  58.8737946  10.7333241  62.3680344  49.6469154  15.1416531
  61.9043579  49.1575584  14.4621191  63.0114975  49.0275497  15.4859934
   2.4137938  67.1080246  50.6583519   1.7810287  67.0077896  49.9471588
   2.3095284  66.3156586  51.1851540   9.4440832  66.7565994  71.0424423
  10.1325865  66.6676636  71.7014465   9.7489023  67.4616013  70.4712296
  84.8306656   8.6002731  36.4303970  84.2327271   9.2811718  36.1220512
  85.5671921   8.6339254  35.8199692  49.5935707  12.4219818  27.5343056
  50.3268204  12.5532560  28.1354237  48.8406258  12.2681618  28.1049576
   4.4331660  51.7650909  46.6630936   4.3686972  52.0541840  45.7528725
   4.8868308  52.4798203  47.1098366  55.3442307  46.3010979   5.9537854
  54.6005173  46.8110542   6.2748337  54.9844589  45.7776985   5.2376494
   6.5890808  71.3950653  49.3488235   7.0438695  72.0490646  49.8795586
   7.2830434  70.9728317  48.8424950  66.7102356  58.9753494  65.6061249
  66.8780823  58.0345154  65.5523682  66.7110825  59.2711906  64.6957855
  46.3772774  68.8738251  14.9139814  45.6391029  68.3088989  14.6855459
  46.8603668  68.9797974  14.0944538  43.4910812  53.7142372  65.4299393
  42.9935646  54.0918732  64.7046051  43.3310699  52.7727051  65.3655701
  47.2046089  62.9323769  45.1848259  47.0926933  63.8715553  45.3319740
  47.7337227  62.6353340  45.9251175  69.7349548  24.7323475  30.3693810
  69.2695694  24.6312141  29.5390682  70.2825089  23.9498787  30.4339008
  38.6632538  61.0054474  49.8473129  38.4254990  60.1066589  50.0750771
  37.9257393  61.3236885  49.3267097  67.8830643   7.4815130  27.6668797
  67.4335251   6.7179933  27.3046894  67.8892517   7.3298178  28.6119633
  79.4618683  69.3380814  55.5885468  79.9652863  70.1381149  55.4377441
  79.9928894  68.8335266  56.2047310  16.3866138  53.2078857  39.2093620
  16.6107197  52.8329277  38.3576469  17.2219582  53.5115128  39.5646667
  71.4157028  27.6531200  45.3682213  70.8164825  27.1311874  44.8345947
  71.6587372  27.0744514  46.0909309  27.5763760  48.3598595  10.7831774
  28.5036430  48.4085732  11.0156317  27.5737209  48.2284546   9.8350439
  50.5849075   0.8856838  51.5969810  51.5249634   0.7839648  51.4480362
  50.5194702   1.2311860  52.4872475  34.8006706  47.8701324  53.0525360
  35.2983627  47.2038231  53.5264168  35.4676552  48.4385681  52.6675034
   0.5718613  63.7721367  77.2175903  -0.2925902  63.3651314  77.1601105
   0.8149366  63.6889343  78.1396637  43.5844765  62.0425110   1.9238816
  43.4340477  61.4812279   2.6845155  42.8334618  62.6358566   1.9117854
  52.8621063   4.2139959  70.2655182  53.1953392   5.0181656  69.8673935
  52.5650253   4.4824390  71.1349487  75.6086884  47.8736153  78.9936295
  76.0249786  47.2893448  78.3599396  74.6801147  47.6441574  78.9569702
  28.6721821  46.1686440  79.0117798  29.4285641  46.0699921  79.5900421
  28.7940865  45.4965630  78.3412018  29.3637142  43.1032639  70.5729752
  29.6647072  43.5172081  69.7640991  28.6537838  42.5241013  70.2958450
  45.2085114  38.2787781   7.1424499  44.4934692  37.7204285   6.8371730
  44.7820358  39.0979118   7.3941741  74.1173019  33.4249840  72.9773865
  73.9558868  33.9770660  73.7424850  73.5945282  32.6387482  73.1347809
  51.8678627  67.1863098  51.6862717  51.1227684  67.2007675  52.2869873
  51.4725266  67.1654663  50.8147736   8.1343985  43.4366264  70.9027405
   7.2239251  43.7264519  70.9599228   8.4798708  43.8833542  70.1298828
  28.7881584  55.6817017  59.6183968  29.5471554  55.3731918  60.1133461
  28.0828514  55.7254524  60.2640419  61.7766685  68.6645355  87.5346222
  61.3032646  68.9185181  88.3268433  61.8190193  69.4663162  87.0134964
  38.3055153  56.6207390  88.7177429  37.6223106  56.8703384  88.0955124
  37.8487549  56.5390892  89.5549622  69.8423004  12.0710506  86.8135071
  70.6791611  12.4554605  86.5524826  69.1834335  12.6225138  86.3915939
  21.4631176  38.2896919  32.1547432  20.8043308  38.4125748  31.4712753
  21.7891808  39.1715202  32.3344421  67.5342712  48.3285370  17.8339424
  68.2713394  48.9040871  18.0381737  67.7540359  47.9509888  16.9822426
  79.4926987  32.6929131   6.9103079  79.9667892  32.8474655   6.0932527
  79.9699097  31.9787102   7.3327041  71.2414856  57.7539368  18.4667358
  71.4873657  56.8881645  18.1408272  70.2851028  57.7617073  18.4280186
   5.1653142  44.8736839  28.8123169   4.9343600  45.7121353  29.2121849
   5.5830469  45.1102562  27.9842072  79.6218033  52.3992424  50.3365021
  78.9092026  52.9951935  50.5673332  80.1375504  52.8815536  49.6902695
  41.5723839   4.0966091  81.7136993  41.1921654   3.6426044  82.4657288
  42.5148811   3.9525397  81.7983856  37.6956978   4.8135543   3.6742802
  37.6561699   3.8571708   3.6746383  38.1979675   5.0322175   2.8893342
  13.1967649  33.1924438   7.5254655  13.0683098  34.0278740   7.0762587
  13.9486465  33.3418503   8.0986881  38.5800552  13.6642208  78.2041168
  38.3694305  14.5599117  78.4679489  38.8547897  13.2343054  79.0140076
  26.0598030  45.4111557  24.5378380  25.3286819  45.9252701  24.1952305
  26.4860744  45.9916191  25.1683807  79.1164246  65.9472580   6.6937757
  78.4358521  65.6438675   7.2946148  79.2185211  65.2315216   6.0664558
   4.5718069  37.5446968  75.9675674   5.1000433  37.0696678  75.3260498
   4.7280865  38.4681244  75.7698441  47.7188225  29.8793163  87.6916199
  47.5949821  29.1447659  87.0905151  48.3935471  30.4169693  87.2770004
  64.3696289  69.3676758  54.6496773  64.3925018  69.6026382  53.7220459
  63.5017281  68.9850693  54.7785072  81.3215637  43.1486053  40.0585747
  81.4493103  42.5435982  39.3279037  81.5493851  44.0069656  39.7014389
  23.1393967  42.6586571  49.8486595  23.1172905  42.4568977  50.7840919
  22.4437599  43.3047142  49.7264786  81.1643372  49.1146736  23.3465557
  81.4816360  48.2512817  23.6113262  81.6807022  49.3319626  22.5704212
  52.5600739  40.7501030  46.8960075  51.7248955  40.8777504  46.4461021
  52.4012108  41.0587234  47.7880554  39.8119659  44.6705475  58.1134186
  39.7713394  43.8416367  57.6364632  39.4051132  45.3059845  57.5244141
  65.3257294  63.5378647  50.9172440  66.1674118  63.5523376  51.3728714
  65.4298859  62.8664856  50.2429810  60.7594109  28.6554356  56.3856926
  60.6803017  28.9016819  55.4640961  61.3696785  27.9180031  56.3850327
  19.6292286  27.5473099  73.8521118  20.0570755  27.1205654  73.1097717
  19.5505047  26.8581619  74.5117416  60.5961533  20.8204594  11.2588100
  61.0504341  20.1989555  11.8276653  59.7959023  20.3650208  10.9972649
  24.7629604   8.2169170  72.2981339  23.9903736   8.3947449  71.7617340
  25.2832527   7.6077933  71.7742081  25.9368973  42.6308594  49.2999115
  26.3785572  42.4052467  50.1186104  25.0218410  42.7603302  49.5492020
  33.9236717  64.9693069  20.6328678  34.5114403  65.5079803  20.1031532
  34.4556923  64.2163849  20.8903370  58.3955956  69.8323593  82.4778671
  58.1663933  69.1999588  81.7968674  59.2589264  70.1572495  82.2222519
  55.6893005  25.1139107  69.5378189  55.5774841  25.9912338  69.9039154
  56.6365700  25.0117607  69.4457092  77.9343796  57.4605026  46.8429222
  77.3962784  57.6436462  47.6130791  78.5036316  56.7403755  47.1142197
  85.7752228  40.4709816   6.4677563  85.6605835  39.5736542   6.1548696
  84.9011612  40.8572884   6.4128480  17.6814709  67.1954346  73.4813385
  18.1317329  66.3601303  73.3558121  17.3172474  67.1408005  74.3648453
  54.1358109   4.0839710  44.4330597  53.6769142   3.8212306  43.6351776
  54.2437401   5.0311131  44.3464317  36.1618729  31.2451077  86.7212830
  35.8986397  32.1276779  86.4604950  36.6139832  30.8935604  85.9543076
  10.9269733  38.2441444  32.1185417  11.6263952  38.8742905  31.9454670
  11.3679237  37.3946686  32.1322784  36.8372688  53.6804619   3.8251984
  35.9684029  53.5191803   3.4573731  36.7525368  53.4490051   4.7501206
  70.9167557   5.8581080  39.8835411  71.5374451   5.7702141  40.6069031
  70.5261459   6.7232347  40.0068893  53.0523949  69.9572983  39.2862663
  53.5185242  69.5878677  40.0362473  53.0529861  70.9012146  39.4451714
  70.2889862  70.0385818  17.0177765  69.9559479  70.3163376  16.1644478
  69.6196213  70.3227997  17.6401958  39.8480644  40.7981377  70.2650986
  40.3530579  40.0591011  69.9259186  40.4887047  41.3287926  70.7386169
  54.8546028  53.9218903  80.5941620  55.2498398  54.5351448  81.2137833
  55.0625458  53.0569611  80.9475555  59.1698494  46.2221031  34.4552307
  59.7172050  46.1251907  33.6759720  59.7457352  46.6274414  35.1035271
  45.8064880   6.1618147  50.9716530  44.9782829   6.3293028  50.5219231
  46.0785217   5.2989445  50.6591072  50.1673889  56.6072655  66.9060745
  49.9199409  56.2821312  66.0404587  49.5729561  57.3403893  67.0654831
  59.2944794   5.2597880  13.5236378  59.0047150   5.3256173  12.6137285
  60.1012268   4.7463527  13.4815397  42.8809929  46.3622055  16.5991650
  42.6898613  45.6296768  17.1849174  42.4728317  46.1175537  15.7686338
  65.2656326  42.1149940   7.9776678  65.3248596  41.4708328   7.2721324
  64.9277191  42.9039650   7.5539088  13.6146069  69.9542313  42.9330635
  13.1174469  69.1585388  42.7434731  14.5213594  69.6574326  43.0101624
  76.1962967  43.0218658  32.7210350  76.8985291  43.0712967  33.3696098
  76.2793655  43.8307076  32.2159538  24.9006443  31.9812202  84.4357834
  25.2577305  32.8562813  84.2841797  23.9915733  32.0392494  84.1417542
  40.2873878  30.3051281  17.1304455  40.1897697  31.2456551  16.9817486
  40.8147087  29.9994183  16.3924046  13.9714365  36.0319977  65.1576614
  14.8767681  36.1712418  65.4355469  13.4468946  36.2708969  65.9218750
  72.5741653  55.1775932  18.4865456  73.0443802  54.4082985  18.1651192
  73.2000809  55.8960838  18.3958492  62.9006958  35.9308357  76.5515442
  62.2059479  35.5349426  77.0776825  63.7019920  35.7628174  77.0474548
  76.0130157  48.6967926  49.3834076  76.5708084  48.1682739  49.9541664
  75.1205063  48.4778175  49.6511955  81.4772186  48.8851242  77.5486069
  82.2816620  48.9797783  78.0586472  80.8394775  49.4358139  78.0027618
  46.0452690  28.1172562   9.5492287  46.9666710  28.3725834   9.5038061
  45.5835342  28.9253788   9.7727633  59.3950386  40.8157387  43.8248596
  59.3530464  41.4641380  44.5277481  59.0875092  41.2837601  43.0485764
   6.5072713  25.0312443  38.2242012   6.0496535  25.0348511  39.0649185
   5.8079000  25.0137215  37.5709000  53.2250824  47.5334167  42.3954048
  52.8613586  46.6679649  42.5822868  53.7659264  47.4028320  41.6165161
  46.4968834  71.2200546  36.4377899  46.1409187  72.0973358  36.2967300
  46.3164978  71.0336761  37.3591766  82.1360092  21.8463669  83.8414764
  83.0082626  21.8312035  83.4475555  82.2050323  22.4843140  84.5517502
  59.5351257  44.6238213  60.9237785  59.9924927  44.6101189  60.0830269
  58.7084465  45.0697632  60.7394829  67.7801056  58.0756874  36.9794044
  68.1568451  58.4891472  36.2026482  66.8396072  58.2371063  36.9043159
   8.1122675  69.8897171  56.8748665   8.7761612  69.7544403  56.1987190
   8.5330563  70.4675369  57.5114975  60.8794632   0.1875655  60.3995514
  60.2205009   0.3302839  59.7201157  60.4702454  -0.4318850  61.0037498
  69.3549957  26.1407928  33.0338478  68.7807312  25.6420250  33.6149559
  69.3903275  25.6228294  32.2296715  74.1463776  42.3721085  24.4292946
  73.8403549  41.5439034  24.7989693  73.8581543  42.3481369  23.5168324
  70.8072052  67.8667908  18.3411160  70.5499573  68.6251373  17.8167458
  71.1335297  67.2332764  17.7020493  74.0925674  38.4812355  44.5067291
  74.4235001  37.6485863  44.1699638  74.1881332  38.4104156  45.4565125
  59.9310913  40.3299866  21.9071064  60.2437248  40.1045380  22.7832718
  59.0224228  40.6003380  22.0392399  46.0001717  41.5886726  28.6058826
  45.2656784  41.8199654  28.0373249  46.7036057  42.1815948  28.3415871
  42.7640877  64.9301071   9.5891533  42.1343880  64.3492584   9.1621618
  42.9765968  65.5839920   8.9231873  26.0567932  34.1389313  82.7771912
  26.1691074  34.3875504  81.8596878  25.3028965  34.6491699  83.0730438
  36.9525566  48.8855934   8.7220507  37.2061310  49.1206589   7.8294845
  36.1005936  49.3036690   8.8469696  58.7733688  45.0297012  47.3847656
  58.9069176  45.9435425  47.6363297  59.2655220  44.5280075  48.0346260
  74.6287842  41.0610085   0.8440743  75.0973282  41.8353310   1.1557183
  75.0020065  40.8868561  -0.0199896   6.4244747  36.8157158  78.6229706
   7.1410556  36.3403091  78.2025757   5.6621742  36.6353874  78.0728683
  74.7350540  22.3379669  49.8695679  74.4581833  22.6898766  49.0235558
  74.5636139  23.0455513  50.4909897  56.8607368   8.8203335   7.2320452
  56.8573456   9.6583767   7.6945424  56.7385902   9.0540829   6.3118968
  69.7773514  43.7505531  77.0666504  69.6522217  44.5669289  76.5828018
  70.5299835  43.9207726  77.6330414  26.8583412  39.5010223  14.5051374
  27.0181122  38.8600044  13.8124619  26.0141678  39.8918877  14.2796850
  78.2001648  55.4972801  51.7698593  77.2912979  55.6059837  51.4898987
  78.7182465  55.7651901  51.0108795  29.5674152  65.9972763  55.3225822
  28.8282070  65.4163437  55.1428146  29.3346272  66.4347076  56.1415405
  36.8101158  12.5854921  71.3741837  36.2299347  12.4930935  70.6184845
  37.5129509  11.9554787  71.2149963  26.7068043   4.2134328  16.5481205
  26.0855694   3.5405319  16.8265133  26.1682987   4.9914622  16.4034977
  38.6216278  70.8281708  52.9062195  38.0439644  71.3307648  53.4806175
  38.0274811  70.3153229  52.3583069  48.2163086  11.0947275   5.8390479
  48.8716087  11.1211214   6.5362687  47.9903908  12.0125084   5.6878147
  47.7996864  56.6274185  27.6809406  48.1881104  57.0857697  28.4261074
  47.3711281  57.3162727  27.1729527  79.7386169  13.1981382  61.8577461
  79.9858627  14.1219635  61.8983307  78.8267365  13.1812592  62.1482964
  20.8423157  59.5849228  60.3037720  20.0019588  59.2148666  60.5741234
  20.6339493  60.1161957  59.5352898  85.3599472  26.8453217  18.2539864
  84.8670883  26.1518478  18.6926384  85.2544022  27.6094360  18.8207512
  23.3290882  23.8769398  13.7720661  22.4401493  24.0357285  13.4545698
  23.8944397  24.1655769  13.0556164  73.3938904  53.4358749  78.5316620
  73.4132309  53.0103798  77.6744537  73.1271515  54.3362503  78.3461685
  72.6531525  11.7207670   4.7850575  73.1075897  11.1634951   5.4168563
  73.2695923  12.4305191   4.6048298  58.0945244  64.3337402  71.4254990
  58.5758705  64.9298630  71.9992371  58.1276093  64.7509689  70.5646439
  54.7272682  19.9628983  67.9884262  54.6253548  20.8451233  67.6313248
  55.3488121  19.5361195  67.3987045  23.1061745  49.1174622  75.8862076
  22.6088696  49.8968010  76.1343002  22.7138042  48.4100304  76.3978882
   8.0087824  61.1192169  19.5707436   8.8956423  60.9656792  19.2449532
   8.1355705  61.5228348  20.4293766  50.0130005  10.5651169  67.9599533
  49.2253456  10.0473843  68.1266327  50.4064980  10.1604052  67.1869049
   4.9276643  29.6940689  66.9930801   4.6962194  29.8270969  66.0738602
   5.4094119  28.8669777  67.0014954  28.2736397  49.7835274  82.8532867
  28.0751553  48.8653030  83.0368729  28.2064018  50.2177620  83.7036743
  17.8584690  67.4184418  65.4551544  18.3181248  67.1007462  66.2323380
  18.2717934  66.9554367  64.7264404  40.5498772   3.1551216  45.8692360
  40.9433975   3.9940457  45.6292725  39.6237068   3.3551242  46.0050163
  72.3528976  64.4455261  75.0084915  72.3805008  65.2413101  74.4772644
  71.6916275  63.8978920  74.5853348  67.2759399  48.6308098  47.6928291
  67.6462631  48.7366066  46.8165283  67.2455750  47.6835823  47.8272629
  55.7456284  21.4383984  13.7519674  54.8725319  21.2216454  14.0790052
  55.5844994  21.9883194  12.9852505  10.9389973  53.2669258   0.2619193
  11.4465361  53.7151642   0.9384688  10.2086678  53.8581009   0.0792630
  51.8210182  25.7153664  42.5843163  52.2947311  25.9088898  41.7753792
  51.9232483  26.5044785  43.1163712  73.7339020   3.3152204  48.1717606
  73.7971878   4.1333275  48.6646385  73.8973770   2.6311688  48.8210564
  46.6543808  28.6507950  58.9592133  47.5605240  28.3447285  58.9974251
  46.5718498  29.2482986  59.7024536  36.6267586  51.4545822  75.3412552
  36.4064636  51.2209396  74.4395294  35.8377838  51.2471809  75.8419952
  34.3822212  49.9764214   8.4931936  33.7708054  49.6290092   7.8438020
  33.8296318  50.2216568   9.2353106  23.3976097  62.4842072  29.0248470
  23.5585136  62.3053284  28.0983791  22.7127094  61.8633614  29.2732277
  64.4266815  54.1999588  64.6422882  64.1647491  54.7996635  65.3408432
  64.8649521  53.4802322  65.0963211  21.4902954  14.0928488  75.7383423
  21.2364864  13.3357782  75.2104645  22.3650150  13.8770113  76.0616226
  10.8084946  40.3484726  21.6193905  11.3397732  41.1424179  21.5591526
  10.9364090  39.9102821  20.7780476  35.2516899  68.0759201  87.7115631
  34.8391190  68.2163467  88.5637970  36.1578293  68.3587646  87.8346176
  56.0226746  57.8427010  48.3636513  55.6823883  57.5761871  47.5095978
  55.6850967  57.1851082  48.9718018  30.1300430  44.7591515  68.3756866
  29.7686787  44.8915977  67.4992676  30.2025490  45.6410637  68.7406616
  73.1222992   1.7039258  29.3929672  73.1461029   2.4816668  29.9504490
  73.8843613   1.1918305  29.6636086  19.6192207  52.4078484  57.4252396
  18.7198582  52.5411263  57.7245941  19.5434036  52.3073349  56.4763565
  26.0067787  17.3344727   0.3554260  25.2791004  17.8685017   0.6740646
  25.7636356  17.1097317  -0.5426856  69.8022079  19.8062992  65.0049667
  69.4463348  18.9821472  64.6727676  69.5040588  20.4657421  64.3784943
  60.5634995  11.1770163  12.7050772  60.2779198  11.1567478  11.7916956
  60.0336037  11.8657265  13.1064739  51.6837654  71.4644852  89.1294327
  51.2547379  72.3084793  88.9885559  50.9959068  70.8172455  88.9739838
   3.1998146  54.3795204   4.4327693   2.3052249  54.6948090   4.3041840
   3.2890646  53.6537170   3.8151317  78.0903854  44.9758949  50.7613983
  78.9906464  44.6822891  50.9012260  77.9908905  44.9984055  49.8096466
  28.4056835  44.5300751  84.6414413  29.2204895  44.6429329  85.1309204
  28.6670208  44.0690727  83.8443146  20.2059517  22.6750717  18.0585003
  20.7536507  23.1796589  18.6598740  20.6577950  22.7335548  17.2166862
  81.7464218   8.8945160  18.4010143  82.6484909   9.2119579  18.4425812
  81.2208328   9.6223936  18.7329597  48.0632629   5.8649859  79.8194885
  47.7916374   5.6827412  78.9199142  48.8376160   5.3179727  79.9513474
  34.8853722  39.3962326  33.0187950  34.2217178  39.8735733  32.5208588
  34.7723160  39.6987190  33.9198761  76.4558563  27.3483162  82.8429260
  76.7590942  26.6353436  82.2808304  77.2484741  27.6659851  83.2754517
  64.4471588  27.6410408  58.8836555  65.2211609  27.2322083  59.2709541
  63.9847641  26.9206448  58.4553375  60.7253532   2.5931420  61.9881973
  60.7433472   1.6393416  61.9096298  60.0536423   2.7665083  62.6477280
   2.8061402  20.4674053  28.9772778   3.0961227  19.6976604  29.4668064
   2.9340615  20.2294445  28.0589962  73.5559311  62.6118736  17.2212372
  72.9758377  62.7905426  16.4811020  74.4351883  62.7805519  16.8825817
  51.6615028   6.2314339  16.0027714  52.2843971   5.6288691  16.4091625
  52.2054062   6.8248072  15.4847832  41.3617897  35.6627274   7.5293508
  42.0064926  36.0815315   6.9590945  41.0885963  36.3551979   8.1310825
  64.9873962  43.3964233  79.7957382  64.4161072  42.8617325  79.2444077
  65.8249893  43.4078789  79.3325500  74.5277252  27.6495667  43.9725189
  74.0999527  28.2117996  44.6183815  75.2642746  27.2605038  44.4440651
  65.5753784  52.7958336  20.4542713  66.3041611  53.4150314  20.4954510
  65.5868225  52.4720001  19.5535870  38.3112984   7.3541756  86.1281357
  38.3409195   7.2552290  87.0797424  37.5236244   6.8796463  85.8623886
  12.5440588  22.6009960  85.2612991  13.3921633  22.1761227  85.3894958
  12.4216671  22.6098461  84.3119965  60.8411217  59.0751457  54.9106522
  60.9499893  58.6562462  54.0568924  60.0514183  59.6079140  54.8170815
  72.0562286  26.6994152  75.7677002  72.7127457  27.2735176  76.1622009
  72.3514938  25.8146534  75.9827576  85.7906113  61.3976936  17.0068054
  85.5968475  60.6123199  17.5185394  86.5161896  61.8138390  17.4721985
  41.7666969  53.1058159  13.0035419  41.2412605  52.4462662  13.4564686
  41.6500969  52.9081497  12.0742598  75.0216141   9.9000273  31.5074673
  75.4335861   9.5594835  32.3015366  74.2463531  10.3659163  31.8207626
  47.9508705  47.2086945  40.0124321  47.5510101  48.0752258  40.0863647
  47.4510307  46.7723351  39.3225174  55.9568672  62.2068672  22.7670708
  55.7820740  62.6030312  23.6207294  55.1710815  61.6950722  22.5751266
   9.7084017  62.6250648  80.6935043  10.1860151  63.4336548  80.5083160
  10.3915796  61.9791946  80.8733673  68.7688751  50.8427887  -0.1482008
  68.3833084  51.1811256   0.6599420  69.6921005  50.7074089   0.0652648
  54.2708931  58.0047417   1.1486568  54.4418259  57.1019135   0.8804935
  55.1284218  58.3454170   1.4032463  16.0746765   8.5028305  14.1586552
  15.2003880   8.2519512  14.4568338  15.9333868   9.2975340  13.6441507
  -0.2884632  44.1479950  79.0455322  -0.0606824  44.8841705  78.4777374
   0.5322384  43.6679459  79.1561356  56.7099762  66.1567917  78.1041107
  56.7069016  65.2018433  78.1697235  57.5840530  66.3716736  77.7784576
  45.4963837  48.9033546  67.3756027  45.2875061  48.1849442  67.9726639
  44.8121643  48.8659630  66.7072601  24.7763958  35.1680679  64.2109528
  24.0610676  35.4283180  63.6305962  24.4104881  35.2461281  65.0920029
  75.9972382   5.7209101  66.5373154  75.5802765   6.2200418  65.8349991
  76.7455444   6.2567353  66.8002930  76.7340088  46.8896484  24.6678238
  76.7657089  46.7614441  23.7197781  76.3459930  47.7575455  24.7793102
  23.7854519  69.5138550  85.5620270  23.2102947  69.9728088  84.9498291
  23.9983711  70.1684189  86.2271881  29.6130219   0.6319140  66.0644073
  30.2860146   0.5373045  65.3903427  30.0467644   1.1113164  66.7702866
  11.5082092  21.9888420  14.4168968  12.2508440  22.5759258  14.5585203
  11.2697239  22.1213360  13.4994001  46.1898346   5.6031628   5.7342610
  46.5956650   4.7401710   5.6519308  46.9084473   6.2200160   5.5952673
  50.7988930  29.6879902  12.4077406  51.0586090  29.8339062  11.4980774
  51.2141914  30.4011116  12.8927307  53.3684731  62.2061424  33.5564537
  53.9870453  62.8838921  33.8289566  53.6454391  61.9711761  32.6708374
   6.8123717  32.0088463  36.9258575   7.5175996  32.2408333  36.3216515
   7.0210218  31.1178951  37.2067566  68.0806656  46.4173698  23.1919231
  68.6454468  45.7899666  22.7406807  68.3689270  47.2722740  22.8721218
  23.3453121   5.2724223   5.3327956  22.8493176   6.0367098   5.6261983
  24.0413952   5.1747599   5.9825368  35.9153786  70.4858932   9.4108124
  36.0456772  69.9765549   8.6109200  36.2567329  71.3548737   9.1996965
  52.0830002   6.7646613  78.6091156  52.1418839   7.2928867  77.8130417
  52.9864159   6.6949782  78.9176941  57.3631172  60.4199753  68.1456528
  56.9529457  59.7165031  67.6425476  57.3743858  61.1671333  67.5474396
  17.3872509  45.7643509  79.8602371  17.1206818  46.5595093  80.3216476
  17.0542850  45.0495491  80.4028397  83.0343399  33.3723068  81.5849915
  83.5180740  32.9468384  80.8770294  82.1748657  32.9510841  81.5747147
  84.9018478  64.6019745  33.5430832  84.6337051  65.5083923  33.6938324
  85.3881073  64.6299362  32.7190666  12.6354523  53.7597885  54.6657219
  13.4059267  53.7214813  55.2324066  12.2361212  52.8935356  54.7455368
  40.9579163  17.5404148   8.3441763  40.1529236  17.0319099   8.2459936
  41.4213448  17.1179981   9.0673838  58.7307663  20.2174015  43.2137070
  57.9879990  20.6245975  42.7679253  58.3367195  19.7205658  43.9307251
  75.9886246  34.5500450  53.9420471  75.6030960  33.9828720  53.2742844
  76.4398956  33.9492989  54.5350838  57.8985023   2.5023487  55.9494324
  57.9851837   2.9016905  56.8150215  58.4436874   3.0449090  55.3796654
  20.5504704  66.3935089   2.2151272  20.3113270  66.9664383   1.4865706
  21.2996311  65.8936844   1.8908411  12.3027496  10.6192608   3.0663857
  11.4620829  10.1827421   2.9286826  12.3439837  10.7669983   4.0112166
   3.7319067  31.0051041  14.3940096   4.0600877  31.2469406  15.2600603
   2.9552124  30.4746418  14.5717382  46.8217850  44.2962799  28.2938232
  47.7457161  44.1234283  28.1129684  46.6378517  45.1171951  27.8372040
  60.1644783  19.9271183  85.5575409  59.9224930  19.0010109  85.5588150
  59.4543571  20.3608723  86.0306320  46.5288353   8.7914019  72.8437729
  46.6163216   9.5524073  73.4177475  47.1669655   8.9426603  72.1465302
  26.1164341  65.0134506  64.5524292  25.6557598  65.7958298  64.2492828
  25.4331150  64.4702377  64.9451447  11.9201517  46.8589783  46.0495911
  12.7517290  46.4195328  45.8718300  11.3656216  46.1775932  46.4296455
  56.9588928  60.5226402  46.6002121  56.8852959  59.6920738  47.0702934
  56.3174744  61.0943031  47.0221329  66.0330734  56.4205933   4.8377967
  65.1041641  56.2687111   4.6637487  66.2241058  57.2542458   4.4079566
  25.1872368  45.9303780  20.0211849  25.4180698  46.6480904  20.6109581
  25.9948425  45.4243279  19.9321918  86.6016769  63.6486092   7.4428368
  85.9856796  63.9432030   6.7720251  87.1749725  63.0320587   6.9873886
  23.1446228  67.2969818  88.8562317  23.7369919  67.7941208  89.4203110
  22.9604340  67.8857346  88.1243362  44.0890465  19.3608017  67.6240387
  44.2890396  19.0876350  66.7287064  44.1520348  20.3156910  67.6028290
  13.3332109  56.1338501  85.3737717  13.5751190  55.5288010  86.0749359
  12.4347734  55.8924446  85.1484604   8.2956896   0.9308064  18.1126480
   8.7992134   1.0756328  18.9137230   8.2019014  -0.0201807  18.0573368
  48.0043335  60.2856026  74.2838135  48.0938606  59.3870735  74.6014023
  48.0290451  60.2061691  73.3302383  20.9945965  36.0346718  23.6571465
  21.0670090  35.2999039  23.0479641  20.0570335  36.1055565  23.8365440
  55.6535225  34.3283806  35.2570229  56.0141106  34.6924782  36.0655060
  54.8013535  33.9752045  35.5125809  79.8857040  14.5191374  80.5311813
  79.2443924  14.0907383  79.9642334  80.0683746  13.8752384  81.2154770
  55.2046661  49.4861488  35.5435333  55.7074432  49.2298775  34.7703743
  54.3126450  49.6096306  35.2190590  33.8763580  62.0753746  23.6860466
  33.5733414  61.2548256  23.2973137  34.1015129  61.8446503  24.5873260
  60.2666397  56.2998085  73.4329224  59.8247414  56.8023872  72.7485428
  60.4035606  56.9287567  74.1413727  81.6867447  28.1337204  29.1664162
  82.5518723  28.0581608  29.5690136  81.1697998  28.6300659  29.8009548
  21.9128628  62.6169853  88.7136765  21.5819607  63.5006561  88.8744812
  22.2476959  62.6460228  87.8174210  24.5895557  45.0052376  60.8132019
  25.2340126  44.3258133  60.6149902  25.0149097  45.5538750  61.4722214
  61.9807587  11.4203167   1.3516507  62.0876923  12.3633280   1.4762602
  62.2398605  11.0370884   2.1896455  17.5448360  53.3836708  54.5650215
  18.4473114  53.0865517  54.4488831  17.0104942  52.6609306  54.2358437
  69.1204834  67.8727570  57.7761574  68.5304108  68.0502625  57.0436668
  69.3761063  66.9574814  57.6614189  49.6263313  40.6139984  58.9699745
  48.9530067  40.9830475  58.3984261  49.2629242  39.7768517  59.2586746
  67.1615601  40.0604858  63.3640060  66.7533112  39.2218933  63.5792389
  66.7744293  40.3067245  62.5239296  44.3233185  30.2744999  48.0828629
  45.2480927  30.2533932  48.3289909  43.9002571  30.7708130  48.7835236
  66.3631897  33.9798927   3.6396844  65.5315399  33.7083664   4.0281062
  66.1526489  34.1577835   2.7230265  74.2431870  60.8184586  14.1126919
  73.7525253  60.2997894  13.4751482  73.6914291  61.5837402  14.2743492
  55.7731781  67.3504257  62.1900101  56.1700706  66.5804520  62.5972557
  55.9470901  68.0630569  62.8049355  73.1173172   9.4824419  34.4122925
  73.8715057   8.9287968  34.2100372  73.1790237  10.2076855  33.7906456
  26.0851440  50.0144272  70.7483063  25.2990913  50.5605888  70.7561035
  25.8879642  49.3198509  70.1198807  34.9598618  57.5360107  73.1208191
  34.2109489  57.3978806  72.5409164  34.7825394  56.9780197  73.8780746
  52.3753738  48.7293777  48.7139854  52.2511406  49.5766945  48.2863731
  52.2715225  48.9146080  49.6473351  17.8898983  47.8374710   9.9847136
  18.0322971  46.9910316  10.4083815  17.0069695  47.7772217   9.6199703
  62.2533226  28.5033150   9.9181957  62.3684235  27.5533524   9.9417439
  62.4175682  28.7419376   9.0058832  76.7137527  35.1756706  57.8509483
  77.6272354  35.1303062  57.5685768  76.5578232  34.3408470  58.2925262
  50.5624771  30.8275814  70.2873993  49.6569939  30.7546139  70.5890732
  50.9419289  31.5164795  70.8329926  53.4580994  57.0424919  82.8763199
  52.5109596  57.1394768  82.7775803  53.7012177  57.7080765  83.5198517
  32.2937431   8.1067944  16.2726765  32.9143486   8.7686462  16.5776939
  32.5695839   7.3006907  16.7089577   5.6420827  12.0259466  11.1483574
   5.7407427  12.8071280  10.6040649   6.4186716  11.5004234  10.9560900
  69.5244446  49.1633530  11.7401457  70.3029022  48.7350502  12.0962296
  69.2462769  48.5955658  11.0214834  68.8434982  61.9058189  14.1735516
  69.0421448  62.5942268  14.8082657  69.2902222  61.1304893  14.5134544
  81.8585739  19.8616924  64.3595428  81.2243958  19.5632992  63.7076111
  81.6578293  19.3477592  65.1417160  76.1599731  29.8059616   3.0679457
  76.0075226  30.2890701   3.8801019  76.2179108  30.4830112   2.3937941
  57.9893837  62.0378418  59.7160301  57.8353424  61.3470955  59.0715370
  58.5629845  62.6596680  59.2682114  53.8960915  29.6472950  58.9215698
  54.7355080  29.1988449  59.0240631  53.8641968  30.2656536  59.6515312
  55.0992203  37.0342712   5.0457449  54.9776573  37.7684784   5.6477365
  54.7642136  36.2752037   5.5230417  65.5653915  53.4803619  23.8774471
  65.1548386  52.6173019  23.8244743  64.9165955  54.0274544  24.3201427
  70.4303589  34.0900345  61.7913780  70.8963623  33.7174911  62.5398941
  70.3546753  35.0220261  61.9960670  16.7855835  35.3102951   3.2414901
  16.7004261  35.4839706   4.1789427  16.0474472  35.7724571   2.8442600
  59.2217598  33.7609673  72.3331299  58.3542747  34.0900993  72.0978241
  59.7935448  34.5259857  72.2695312  65.1583557  48.2327003  76.9436111
  64.5181046  48.8525314  76.5941544  65.1212997  48.3590851  77.8917084
  36.4513130  20.4413147  74.6809311  36.7641182  19.5407791  74.7670593
  35.5007515  20.3743668  74.7714081  54.8794708  49.1823235  18.1257286
  55.0540848  49.9956207  17.6521358  53.9339256  49.0567856  18.0456085
  50.6227798  45.8524017  50.2549248  49.7418404  46.0815964  50.5509758
  50.4822044  45.3412094  49.4579620  44.3076439  52.0658188  50.4104500
  44.3869324  52.7031403  51.1202126  43.7378235  51.3829308  50.7642822
  84.5839767  51.5411797  24.1863346  84.3159714  50.8751144  23.5532780
  85.1147690  51.0649376  24.8248386  84.8563080  25.7731628  12.5872040
  85.6898193  25.5290012  12.9895420  85.0126953  25.6951923  11.6460896
  80.5281143  37.0056076  59.9462662  80.0232086  37.3792419  59.2239838
  79.9062576  36.4423752  60.4070244  64.9350586  62.1778297  38.1412964
  64.0154190  62.3674507  37.9554367  64.9278183  61.2941284  38.5090599
  64.5531464  36.6925011  33.9132538  65.4163589  36.8580513  34.2923203
  63.9367104  36.9973373  34.5790672  29.0308170  53.5375557  12.2829399
  28.3260841  53.5762367  12.9295359  29.1383514  52.6038933  12.1014328
  21.5173874  27.5113602   3.2914112  22.4212418  27.4225750   2.9890974
  21.5005283  27.0558834   4.1331291  76.9143219  57.3667068  36.6321754
  76.2809830  58.0359116  36.8915749  77.7375107  57.6485481  37.0311241
  31.9101925  30.5463734  21.5626755  32.1398430  30.8526039  22.4400101
  32.1149712  29.6114044  21.5741062  79.2111435  66.8591385   3.7005088
  78.7791443  66.5992966   2.8868210  78.5054245  66.8923721   4.3463311
   6.0865383   6.1599078  80.0831680   6.3150430   5.9327126  80.9845047
   6.6561208   6.8993001  79.8707886  79.5054016  70.6834335  40.8211784
  80.0585480  70.9253845  40.0783958  79.4905853  69.7264557  40.8070793
  78.6601181  40.6856651  86.1206741  78.3094482  40.0439110  85.5030823
  79.3585815  41.1266708  85.6370392  78.6063614   5.6922011  55.1404991
  78.7667160   4.7544022  55.0353699  78.1266251   5.9431291  54.3511162
   3.9457097   2.5041413  72.9486313   3.6642787   2.7417789  73.8321228
   3.2001388   2.0312755  72.5788269  49.2856445  29.5498123  18.1669159
  48.5765038  30.1567097  17.9547176  49.9756966  29.7581482  17.5371094
  19.1421776  24.3048325  81.1612396  20.0464230  24.4446239  81.4423676
  18.8386497  25.1714993  80.8910751  60.4932518  58.4483643  28.1062527
  60.1263275  58.9593773  28.8276844  61.0649452  57.8093987  28.5318336
  15.5487394  20.9382076  10.0899639  14.8072796  20.5481644  10.5529289
  16.2860813  20.8392258  10.6922598  49.6378288  11.7522373  74.7880096
  49.2533112  12.4857168  75.2679901  48.9077492  11.1496162  74.6463699
  47.8545265  63.8109245  63.4587936  48.5562210  64.4175034  63.2223167
  47.1043892  64.0976715  62.9379234  63.2422638  67.4737091  51.1680527
  62.3146362  67.5868835  50.9608574  63.2533379  66.8218536  51.8689041
  61.5138206  12.3592482   7.8249087  61.2995567  13.0501623   7.1980424
  61.8913651  11.6601639   7.2910786  26.3578892  24.1613865  16.1965408
  25.5055275  24.5700493  16.3472195  26.1498795  23.2997341  15.8352699
  70.9860611  43.1686783  17.8188210  70.6906967  43.6339607  18.6014481
  70.2032776  43.0980072  17.2724781  14.6768799  56.8491707  23.7588310
  13.9365463  56.2556992  23.8850460  15.3000584  56.3465118  23.2342205
  10.2114162  18.1925640  20.4611359   9.5512304  18.0614376  19.7805519
   9.7263441  18.1178131  21.2829323  24.8619652  11.2323532  34.7190132
  25.7514896  10.9303951  34.5351677  24.6873684  10.9338455  35.6115608
  58.0305252  20.0528736  21.8688622  58.1220551  19.1674309  22.2207794
  58.2448273  20.6263885  22.6046524  34.1862030  37.3336411  75.1436005
  33.2463455  37.5002670  75.2152634  34.2680779  36.3836174  75.2271576
  76.7623978  43.6158600  17.0645046  77.5487137  43.2350845  17.4555855
  77.0937500  44.2173653  16.3977032  56.1344604  65.9702377  43.9005203
  56.3338013  65.4278412  43.1374359  56.7695541  66.6851807  43.8586960
  78.7866211  56.3121338  18.8874855  79.5820465  56.7464561  18.5794392
  78.5297546  56.8066864  19.6657314  69.0379333  34.5737343  39.4185486
  69.6774750  34.4123688  40.1122208  68.1883926  34.4662247  39.8462791
   2.4924424  23.8607483  24.8825054   2.5326848  24.5667992  25.5275669
   3.4057233  23.7020302  24.6438465  48.2976379  15.3957329  43.4535217
  48.7908058  14.5794678  43.3715134  48.9370651  16.0304489  43.7767868
   8.7640934   8.2833023  13.9676228   9.7064972   8.1156626  13.9696751
   8.4088144   7.6460595  13.3480015  59.5122490  40.5008545  74.5390091
  59.2339478  40.1433754  75.3822098  60.4556389  40.6320267  74.6340942
  46.6448669  44.6229057  17.9962444  47.4232216  44.0882645  17.8395500
  45.9306793  44.1305885  17.5915394  82.5230713  39.8087502  35.5314064
  82.5450211  38.8555222  35.6157074  83.2718353  40.1119156  36.0448990
  43.5182495   7.7692428  86.2796173  43.9310265   8.4917898  85.8065720
  42.6014862   7.7963257  86.0056763  16.7241383   4.6459422  72.3453140
  17.1733055   4.2204905  71.6149216  15.8150511   4.7224321  72.0555878
  11.5019054  63.0459518  87.7781754  11.1473083  63.9344139  87.8117142
  12.2646770  63.0705299  88.3559341  62.3484116   2.8000693  45.3109627
  62.3282280   1.8684824  45.5299835  62.3898888   3.2443614  46.1577873
  47.6775284   3.2886796  71.4963150  47.2507973   2.5623617  71.9508438
  47.1302567   3.4441390  70.7265320  64.1814270  40.3552437  86.8564301
  64.5780640  40.5524330  86.0078888  64.8405533  39.8326836  87.3132782
   0.2779898  25.3016434  14.0122509   1.2248930  25.2318382  13.8908691
   0.1754517  25.6668549  14.8910780  25.3481503  67.3505783   6.0257168
  25.3114071  67.7073441   5.1382480  25.5733147  66.4282455   5.9039445
  56.6664429  53.0009117  68.1916733  56.2409859  53.5881577  68.8164597
  57.0081558  53.5815201  67.5117035  73.6070938  16.6489944  32.3396873
  73.6405869  16.0871258  33.1139030  74.2826996  16.2979221  31.7595615
  76.6138992   9.5546579  53.1976166  77.5423355   9.3519697  53.3123207
  76.4220352   9.2966852  52.2960205  75.6823730  38.1224823  29.5331192
  75.7201843  38.3148956  28.5962200  75.9941330  38.9232178  29.9548531
  57.3076935  60.7595711  40.5761948  57.7341881  60.3084641  41.3047829
  57.4245758  60.1722374  39.8294640  82.8589249  45.0497093  71.3545990
  82.1790924  45.0451317  70.6807785  82.6021881  45.7546387  71.9490738
   7.3574696   7.4196949   8.6870117   6.4461203   7.5740910   8.4383440
   7.3478570   7.4196420   9.6441631   9.7943487  37.3482475   2.4220443
   9.7744226  37.0375671   3.3272023   9.3595057  38.2004585   2.4516993
  24.5926247  28.9879322  78.5425262  23.9267216  29.4135609  79.0825729
  24.0938282  28.4601688  77.9189072   1.6475796  10.1763468   2.6388075
   1.9509118  10.3215084   1.7426213   1.3558093  11.0383663   2.9354970
  22.6439304   3.2646942  24.2032261  21.7159920   3.3067582  23.9721603
  22.9074478   4.1794081  24.3036709  70.8802795  21.0079441  34.6296234
  71.1780548  20.4086456  33.9452248  71.6433334  21.5541878  34.8182793
  55.5361023  62.3567924   5.4636569  54.9977989  63.0439682   5.8564034
  56.3489456  62.7994270   5.2195492  60.0794258  21.0068207  19.5017071
  60.6531639  21.1472263  20.2549267  59.6602631  21.8553543  19.3584442
  76.4185715  31.9889965  39.1992798  75.6302490  32.4325066  38.8860931
  76.6811218  31.4250374  38.4717865   5.3957176  15.7103510  31.8499260
   5.2720566  16.4731731  32.4147644   5.9730535  15.1332598  32.3498077
  10.4193792   9.3033695  10.9266186  10.1233263   9.1544247  10.0286207
  11.0921965   8.6378984  11.0704832  13.1070642  39.8711205  23.5758648
  13.9148703  40.1244316  23.1291943  12.4269562  40.4004517  23.1593361
  15.3077803  62.9309654  47.3932343  15.4600077  63.7630692  47.8411903
  15.6139860  63.0809288  46.4988174  80.1475983  39.4771538  29.1900749
  80.5630951  40.3056374  28.9509010  79.2165909  39.6175652  29.0176411
  53.4240227   3.1280758   4.8214302  54.1455421   3.3422706   4.2300253
  52.6758652   3.6118937   4.4715538  72.8405228  18.5548382  13.8855247
  72.7129822  19.5002670  13.9637985  72.4370041  18.3272552  13.0479031
  21.0463085  61.3562889   8.7250853  21.7705822  61.9814491   8.6962023
  20.9578342  61.1348991   9.6521177  37.0512924  22.3040085  83.8800583
  36.5596809  22.5558624  83.0983200  36.4910774  22.5668964  84.6103210
  59.0382042  43.1100159  45.2102394  58.8350754  43.7417755  45.9000587
  58.3302040  43.2136917  44.5744591  72.1558075   6.1233130  44.2957077
  72.4662781   5.8031549  43.4487457  71.6851501   6.9306831  44.0886726
  28.9573269  66.9286957  85.7734222  29.0060978  67.4192047  84.9529037
  28.1664219  66.3964005  85.6876144  20.9231930  47.6694870  80.5436859
  21.7423725  48.0160370  80.1900253  20.2472744  48.2518692  80.1969910
  77.8717957   6.9588947  43.3985825  78.3426285   6.6362314  42.6301804
  78.3339005   7.7606015  43.6434441  47.0779305   2.4897006  84.1016312
  46.7038612   3.0763655  83.4442673  46.7861099   1.6171098  83.8376999
  43.2215118  26.1514587  66.0488358  42.7823868  25.3734646  65.7051392
  43.9463005  25.8066406  66.5703812  25.4309330  54.4810791  63.2447281
  25.9315758  55.0235443  63.8540878  25.8085690  54.6739082  62.3865700
  79.8149185  44.1317253  45.5195541  79.0593719  43.8138313  45.0252647
  80.4160309  43.3871956  45.5433731  77.8161850   9.2234993  35.6376991
  77.4964828   9.6684170  36.4225998  78.7077179   8.9556694  35.8605652
  72.7085190  71.7069092  20.3904915  72.6731033  70.7533951  20.4666519
  72.1134567  72.0237274  21.0700169  43.5847855  11.7090406  87.8825989
  43.4131432  11.8134041  88.8184814  43.0546227  10.9550304  87.6244812
  19.0975838  30.4763775  72.2314835  19.9649620  30.8626575  72.3526154
  18.9268093  30.5605145  71.2934036  63.8427582  42.7967224  41.3151550
  64.1360168  43.2686882  42.0945663  62.8873672  42.8100090  41.3724365
  71.7674408  58.0284462  49.5502167  72.5907288  58.3113022  49.9482307
  72.0028992  57.7967644  48.6518211  46.1871452  13.6645956  80.3717880
  46.2898712  14.1290627  81.2024155  45.3702545  13.1754961  80.4702988
  62.5294991  15.1691055  76.2483292  62.8954964  14.3383503  75.9448090
  61.6085892  15.1338654  75.9896469  26.0544739  33.6950493  20.3248615
  26.6485310  33.0637856  19.9188614  25.5111122  33.1693344  20.9118996
  82.0701370   1.6035088  88.0137863  81.4020538   2.1517580  88.4252701
  82.8701172   1.7919103  88.5044632  53.2184448  33.5377960  71.5682983
  53.7156410  34.1948509  72.0554352  53.4152336  33.7210464  70.6496429
  15.1127472  38.1520348  40.7394218  15.7412243  37.4923782  40.4459915
  14.7279539  37.7799797  41.5329819  33.8235817  51.3329849  53.2544670
  34.4712219  50.6367989  53.3645515  32.9955978  50.8711853  53.1225052
  29.8581772  61.6837845  16.2308617  30.1099873  60.7933006  15.9862013
  29.6492310  62.1104660  15.3998861   2.6079936  43.4956360  66.8724518
   3.4251499  43.7907906  66.4707489   2.5930870  43.9245987  67.7280273
  72.8329086  12.3705082  39.1100388  72.0018845  12.5252657  39.5591240
  72.5845490  12.1809959  38.2052536  18.2217369  14.4155226  75.4461517
  19.1144581  14.1222572  75.2637329  18.2807198  14.8464327  76.2988281
   2.5948789  56.2262802  26.0346909   3.3269882  56.7140617  26.4119358
   2.3547480  55.5933266  26.7114029  84.6268005  68.5865707  13.4540253
  84.3695526  68.4398422  12.5437918  85.4509430  68.1092606  13.5499172
  26.1764565  45.1681595  51.6816597  26.4488201  44.4490471  52.2516823
  26.8342609  45.1850815  50.9865074  77.3912430   0.4564036   4.8300142
  77.1184616   0.5097426   5.7459707  76.8848572   1.1386535   4.3891797
  21.9822655   7.7482290  11.9304647  21.2844467   7.5298195  11.3127451
  22.0609779   8.7006283  11.8759422  84.9855499  60.5581665  87.6548767
  84.6464691  61.4506302  87.5858231  84.9427490  60.3573647  88.5897980
  46.3483391  52.6236534  13.1308355  46.9828796  51.9737167  13.4327860
  46.4866676  52.6719894  12.1849165  37.4775963  51.3806381  64.5204086
  38.2162018  51.5936546  63.9500427  37.5385017  52.0121956  65.2371063
   3.1942184  54.5147171   1.5765806   3.0460048  54.8176193   0.6807488
   2.3360450  54.2100716   1.8714763  17.0518932  68.0674133  58.7699356
  17.0323524  68.9501266  58.4002495  16.9986687  67.4881516  58.0097694
  69.3006058   6.2320957  13.7433453  69.4168091   6.0726261  14.6799870
  70.1717377   6.1025023  13.3684311  47.1804276  31.2347279  82.0767212
  46.2804871  31.0691509  82.3576584  47.3693161  30.5339165  81.4526901
  18.0192089  20.8560867  11.8917465  17.7771740  20.1868153  12.5318451
  17.5938435  21.6536598  12.2066650  32.1922836  17.3445892  83.8821487
  31.8355064  18.1943436  83.6235733  32.4848099  17.4722157  84.7845764
  70.5771942  35.4892426  82.5585632  70.5647278  36.3683014  82.9371567
  71.4488297  35.1518517  82.7650909  11.3973665  41.3810463   0.9137147
  11.8541899  42.1611366   0.5990691  10.9402370  41.0440636   0.1431895
  71.4287491  66.6627655  86.4378204  71.5501862  66.8793716  85.5133896
  71.4335861  67.5091934  86.8847809  37.5108299  70.0846558  20.0540447
  37.8642197  69.8790054  19.1885643  38.2500877  69.9627457  20.6497555
  38.0135651  43.3248978  60.2002907  38.4685097  43.9024086  59.5873108
  38.5493774  43.3473854  60.9931526  35.4823647  18.7217484  12.8851414
  34.8120842  19.3028984  12.5256662  36.1051178  18.6020145  12.1681490
  21.5593948  42.5248375  11.8280611  21.0012913  42.0205383  11.2360821
  22.3991165  42.0655708  11.8149118   3.9077165  12.3735619  32.7288246
   4.7663269  12.1612215  32.3628578   3.2843184  12.0691080  32.0693436
  46.5272179  25.1974163  79.2590866  46.6295738  25.6862049  80.0756912
  45.6482277  25.4221725  78.9539871  21.4736843  57.1265297  53.0040436
  21.3089752  57.4229202  52.1089172  21.0609322  56.2641487  53.0505676
  71.2662201   5.3477592  82.3314438  71.3184204   5.8371453  83.1524200
  71.6634674   5.9273443  81.6814423  38.2698059  46.7258759  59.8283386
  38.9363708  46.5882034  60.5013695  37.4682541  46.3657532  60.2078896
  75.3340912  66.8401566  49.1189766  75.6269379  67.4174957  49.8240662
  74.6408386  66.3117294  49.5144386   0.3455902  52.8381615  67.9782867
   0.1534681  53.2251282  67.1241302  -0.2406987  52.0837936  68.0368042
  22.0072536  42.6761703  82.1078796  21.1484299  42.8644714  81.7294617
  22.6076851  42.6998024  81.3627930  64.1970978  28.7421875  42.2035713
  65.0298615  28.3078232  42.0190086  63.7996368  28.2138653  42.8957634
  84.2866745  67.8732681  42.9632072  83.7567825  67.8167191  42.1680679
  83.6484222  67.9696045  43.6700249  63.0796623   4.7165813   7.2474599
  62.9593925   5.4706006   6.6702061  64.0017395   4.7541695   7.5016003
  73.1167374  65.5868225  53.2822227  73.5017014  66.2721863  53.8284111
  73.1974945  64.7896423  53.8058739  33.0828171  52.0056648  17.6766872
  34.0305862  52.0775566  17.7897930  32.7747955  52.9116898  17.6549015
  35.2811356  71.6227264  85.2033081  35.1265602  70.6915741  85.0442429
  35.1209259  71.7354813  86.1402435  42.9015503  28.5153656  12.3115149
  42.9932175  29.0483761  13.1012802  43.7769775  28.5081806  11.9244652
   8.7872353  39.4719048  78.9423447   8.5485764  38.8371239  78.2668228
   8.7742853  38.9704094  79.7575531  14.3978806   1.0879176  31.7348824
  14.8834333   1.7616582  32.2108459  15.0636625   0.6308234  31.2210407
  24.2678814  53.4727859  85.1457520  24.5932560  52.8623543  84.4841385
  23.6166821  54.0012932  84.6844025  83.9406433  36.4208870   7.2050681
  83.1208572  36.0259399   7.5020452  84.3946686  36.6653557   8.0115004
  50.6924133  54.7606468   3.9383736  51.4016953  55.3205757   3.6227300
  51.1199760  54.1454163   4.5341163  35.9516754   7.8077154  20.9991112
  36.7061615   8.3824558  20.8700485  35.7831917   7.8414483  21.9407616
  51.7811241  42.1877747  61.6518059  51.1308250  42.6456947  62.1843910
  51.2685623  41.5826035  61.1158218  25.0490589  22.2549706  73.6799698
  25.7538700  22.3451424  74.3213272  25.4982777  22.0744419  72.8542252
  32.3869247  11.9591656  74.9601288  33.2531662  12.2955980  75.1896362
  32.4711075  11.6836634  74.0473099   4.8346400  37.4472389  32.3293686
   4.2690115  36.7948875  31.9161720   4.2781625  38.2200623  32.4258537
  11.4794884  68.9778290  64.9135361  11.5734568  68.2656479  64.2809219
  10.5432405  69.1770096  64.9126358  68.2173309  13.3754034  36.9578133
  67.2976303  13.1744738  37.1310425  68.3858337  13.0000105  36.0935669
  72.2796097  41.9920464  75.5435715  72.0792465  42.1729393  74.6252213
  71.5801926  41.4047356  75.8301239  78.2504120  16.3237095   5.0491276
  77.3560715  15.9825459   5.0504260  78.2901688  16.8885403   4.2773652
  36.0919456  51.2179184  68.2369003  35.3439598  51.7466812  68.5146713
  36.5118370  51.7381744  67.5518723  24.8653049  50.2996902  22.5196457
  24.8575859  50.7063255  23.3861446  23.9954510  50.4795113  22.1629257
  85.5275803  53.5689926  62.9313278  85.5242538  53.6213646  63.8870888
  86.3743362  53.1781082  62.7158241  79.9979858  19.8816051  54.0666695
  79.8522949  20.0051041  53.1287193  79.7730789  20.7260704  54.4572220
  48.4024925  65.2506943  47.6839256  47.5629539  65.5304565  48.0488014
  48.3022575  65.3632431  46.7386665  35.5334396   4.1619372  88.9285660
  35.0083351   3.9128146  88.1680145  34.9283180   4.1011143  89.6677246
  65.4213791   1.2623799  21.3488846  65.0544128   1.3370484  22.2297897
  65.2934113   0.3435146  21.1132088  78.6617584  68.3766403  48.5352364
  78.4609299  68.3393707  49.4703865  78.7997360  67.4635544  48.2833138
  67.1836166  10.1134052  62.8774147  66.7424011   9.5428944  62.2480698
  67.6280746   9.5121956  63.4751091  83.9331360  46.9586411   9.1840315
  83.9740524  47.8495140   8.8363218  83.8693695  47.0742493  10.1320820
   1.1045183  52.9777946  85.5626907   0.6224686  52.3107338  85.0739288
   0.4610143  53.3404427  86.1714783  60.3125763  48.9349174  55.4879646
  59.5915909  49.3994751  55.9129295  61.0158005  49.5820732  55.4341049
  25.0145779  67.2714081  63.1599503  25.8108826  67.4811935  62.6719742
  24.7756920  68.0912476  63.5924110  69.0400848  10.9280024  40.9946518
  69.6540604  10.9708824  41.7277451  69.2442093  11.6993151  40.4658432
  27.8497639  39.0581017  40.8688736  27.6874332  38.8525085  39.9482155
  26.9783173  39.1912766  41.2418060  63.7277069  71.0839691  43.8374214
  64.2082138  70.3765869  43.4073524  63.8579025  71.8425140  43.2683067
  67.6000290  69.0194092   1.2488487  67.9783707  68.4458389   1.9152603
  67.5254440  68.4663467   0.4711625  81.4535904  33.8408928  77.8841553
  82.0170975  33.9057655  77.1131287  81.3452377  34.7452774  78.1784058
  61.8120880  69.3908615  83.9031677  61.7451248  69.8883896  83.0881729
  61.6293678  70.0314560  84.5905457  35.3007240  60.2014656   5.0300531
  35.5836143  59.3246269   4.7705116  34.7387581  60.0563240   5.7912092
   8.3318653  26.8256531   1.7119210   8.6445713  27.2965908   0.9394801
   8.8767347  27.1518021   2.4281445  65.2053909  38.3221817  84.5754395
  65.2394485  37.8138046  83.7651138  64.8499451  39.1707153  84.3110733
  13.1819067  48.1826210   5.2479825  14.0966444  48.4320488   5.3794003
  12.8277950  48.8635101   4.6759453  33.8117943  65.2249908  28.0967178
  33.6208305  64.2960815  28.2267056  34.5262756  65.2357864  27.4598274
  67.4448471  19.2404442  28.1398811  67.4351349  19.3270378  27.1866570
  67.9013443  20.0237617  28.4468994  33.2640495  41.5437164  44.8304787
  33.5682526  42.4313393  45.0197220  33.2690887  41.4874268  43.8749466
  36.1374092  47.2437668  86.2339478  36.0559502  47.4212036  87.1710205
  35.7307510  46.3852425  86.1165009   0.3637129  70.4980392  60.7916069
   1.2261648  70.0905914  60.7116165   0.4613467  71.3506317  60.3675957
  69.8066406  65.3515396  83.9525146  69.5983200  66.1707001  83.5032883
  70.0940247  65.6228409  84.8243179  15.7822504  56.5979347  30.6972313
  16.5704384  56.3023071  30.2416058  15.7149439  57.5278664  30.4805984
  42.2258453  23.5804825  40.7189674  41.6373215  24.0664215  41.2966652
  42.4081078  24.1848488  39.9994202   1.4488432  49.4702072  55.5008049
   1.9272827  50.2198753  55.1467934   1.9050691  48.7064362  55.1476135
  19.8065681   0.9271877  67.9104767  20.5873489   1.1952877  68.3949738
  19.9790802   0.0191041  67.6617661  75.0473709  33.5703354  37.2953377
  75.0213470  34.4582939  37.6518288  75.4582291  33.6690063  36.4364510
  23.6119804  16.1695461  34.9815140  23.5796204  17.0943775  35.2262039
  22.7952461  16.0189972  34.5055809  47.9853516  47.5871696  25.7657738
  47.1088753  47.3397751  26.0604248  47.8917694  48.4925385  25.4695015
  11.5268803  31.6468906  78.6690140  10.7884169  31.2143517  79.0977402
  11.8478603  31.0030613  78.0375900  62.5101242  35.5942802  55.5888214
  62.7995224  34.7755547  55.1861153  63.1854630  35.7941780  56.2370415
  61.0937424  25.8005676  24.1444569  61.8508224  25.6370411  23.5820332
  60.5326309  25.0352459  24.0192928  21.6690807  37.5892258   7.5029502
  20.9649086  37.3905830   8.1201334  22.4104233  37.0668716   7.8091969
  29.0006428   2.3980703  16.9390259  28.3148804   3.0647907  16.9770489
  28.5500679   1.5790238  17.1448841  27.5707340  33.2178612   5.3677297
  27.8059330  32.7949295   4.5418715  26.6923161  32.8912086   5.5624466
  79.8083267  66.4086990  71.4709930  79.1708832  67.1139374  71.5829315
  79.5890427  66.0198059  70.6242828  76.8085709  36.2342339  22.8642712
  77.2423859  36.9094925  22.3426781  76.9779282  35.4199409  22.3904800
  58.4406395  52.0498428  60.2047729  59.3295403  51.8351479  60.4876022
  58.1985703  51.3368683  59.6137581  37.1828308  43.6912079  27.1420841
  37.3771477  43.4246559  28.0406513  36.3064728  43.3449554  26.9737473
  23.6839085  38.9436264  12.8097878  23.2917786  39.2796631  12.0038433
  23.4685211  38.0109749  12.8101826  66.6006622  59.7638016  78.7759094
  65.8183594  60.2215195  79.0837021  67.3281403  60.3230591  79.0483704
  83.7647018  29.1995468  83.0362930  83.8978577  28.3578663  83.4722748
  82.8773117  29.4596157  83.2835388  14.9171190  53.1791496  64.8805466
  14.8790255  52.2378426  65.0500183  15.6012278  53.5007401  65.4677429
  79.9967880  30.0508766  71.4112549  80.5885391  30.4159908  72.0690918
  79.8760757  30.7588139  70.7784119  84.0058441  15.2998371  84.0708694
  84.9622269  15.2776394  84.0381241  83.7993393  16.1464386  84.4669189
  51.9901962  31.5822372  54.7312393  52.4863358  31.2195454  53.9973946
  51.5961914  32.3816948  54.3821526  56.5150719  35.7317123  61.8705978
  55.7448502  35.1650543  61.9140854  56.5892220  35.9644775  60.9450951
  71.0127258  28.6064434  28.4288769  71.0527802  28.1321106  29.2593212
  71.7334976  29.2344761  28.4767609  86.8148270  45.7781296  58.3646431
  87.4310760  45.3155136  57.7967873  85.9983292  45.2851334  58.2839241
  19.0319519  70.8008957  41.7693977  18.3798866  71.1217346  41.1464157
  19.1032772  71.4978180  42.4216614  61.9961815  61.1038475  19.6248760
  62.1741295  61.5071907  18.7752419  62.7991676  60.6279716  19.8369751
  13.9084234  42.1115990  34.1646652  13.2869568  41.8802795  34.8549576
  13.6550446  42.9961510  33.9008446  30.3038502  57.2701569   9.7013340
  29.6831589  57.5179863   9.0160933  29.8829708  56.5383224  10.1524563
  41.5919495  41.2955170  81.8080521  41.9540100  42.1674538  81.9657669
  42.3536072  40.7157745  81.8110428  34.3605652  64.1441269  35.7627220
  34.0412788  65.0417709  35.8550148  35.3138962  64.2247543  35.7925682
   5.0041561  42.2042160  62.2505455   4.2900825  42.7653770  62.5529175
   5.7575674  42.4704056  62.7775650  47.2363434  13.1303148  62.2505646
  46.3749390  12.8486795  62.5586166  47.8084717  13.0260305  63.0108414
  50.3008766  57.4064941  17.5345154  49.7066422  57.7058334  18.2226391
  49.7238350  57.0621986  16.8528137  22.5214176   1.8289323  17.2716179
  22.0617847   1.4858407  18.0379448  22.0227928   2.6068265  17.0216484
   0.6274490  27.6556911  35.6511955   1.4166166  27.3229942  35.2236900
   0.3754558  26.9627438  36.2615700  48.8116570  21.3754978  58.4106598
  48.7237244  20.9408741  59.2589531  48.1128654  20.9995327  57.8753357
   4.7678180  26.5200539  25.7399750   5.1219025  25.6637440  25.4999981
   3.8560300  26.3454113  25.9731579  18.4205933  67.1344452  29.6423550
  19.1552372  66.6569519  29.2569542  18.5523300  68.0410767  29.3650627
  12.8612957  30.3874817  32.4191513  13.6999502  29.9867611  32.6478767
  12.9113951  31.2717152  32.7822647   8.2010956  60.2470055  49.6130562
   7.6740007  59.8989944  48.8938255   7.8174982  59.8601799  50.4001083
  50.5737457  40.0024147  81.5623627  50.5576057  39.3458328  80.8660355
  49.8324699  40.5759621  81.3679733   1.5013306  64.7172241  54.9355202
   0.9289311  64.8324585  55.6940155   2.2336006  64.1962280  55.2650261
  24.7573490  43.2248116  76.9816284  25.2393360  43.2271080  77.8086166
  25.0432320  42.4251404  76.5400085  47.3866768  54.3801537  38.9013634
  47.4674683  53.7081871  39.5782394  47.8201370  55.1482162  39.2734184
  42.9480896  40.9353409  16.3981304  43.5004082  40.2660408  15.9941359
  42.2391396  41.0721550  15.7697182  17.2287560  31.8052502   4.3128061
  17.0914745  31.2278652   5.0638146  17.1341152  32.6885262   4.6693091
  57.9407616  26.1846409  34.5925674  58.2395821  26.6147327  35.3937912
  57.3146210  26.7993126  34.2099991  74.7644272  43.7801704  55.2607765
  74.1372604  43.0603638  55.3298378  74.8173447  43.9625587  54.3226051
  32.0720024  41.4831467  38.1432266  32.9052238  41.1856422  38.5085487
  31.4372253  40.8257866  38.4281235  73.7720337  28.7109394   8.3388567
  74.1294785  27.9384003   7.9010773  74.4968262  29.3360500   8.3512096
  22.9288998  70.4972992  56.3678284  22.6113873  69.6747894  56.7405052
  23.6962624  70.2467422  55.8534317  18.7273922  34.1177635  65.4602814
  18.0964909  34.1353302  64.7406311  19.5634384  34.3414764  65.0513687
  66.9270477  16.7022114  48.3747749  66.5434113  15.8275976  48.4388466
  67.0935516  16.8228207  47.4399185  38.2683601  30.3446693   7.1278958
  37.8859482  30.1183243   6.2800994  37.9966621  29.6352654   7.7102680
  66.7029648  20.2984638  69.0673676  66.2019806  20.1492081  68.2655182
  67.4701462  20.7944775  68.7816315  41.3054161  59.2811661  24.8695831
  40.6938553  58.7977905  25.4250793  41.8439980  58.6038475  24.4604321
  59.6263275  47.8460083  23.0604668  59.7527046  47.6259651  22.1375141
  60.1771774  47.2219582  23.5330715  57.7207603  70.2559586  76.6751175
  57.2884293  69.5782776  77.1947937  57.6538506  71.0470276  77.2098694
  34.0278816  29.0401440  80.6410141  33.1590424  29.2282791  80.2861023
  34.6199646  29.5920925  80.1301117  78.5550995  28.4787693  35.4242630
  78.2307968  28.0796585  34.6169395  79.3588028  27.9983215  35.6229019
  36.0323105  65.7035828  26.7205715  36.9033508  66.0254059  26.9528446
  35.8862190  66.0279770  25.8319435  17.8863430  15.9468708  20.9654541
  18.6021557  15.6942902  21.5485897  18.1461544  15.6106348  20.1077385
  27.2691593   0.7747848  13.1162748  26.6527767   1.2665414  12.5736151
  27.8556061   1.4404012  13.4758110  12.5171728  55.8738022  15.0450583
  12.3303480  55.4982300  14.1846666  13.1969957  56.5268326  14.8788481
  73.9063263  69.0359955  69.8586121  74.5174179  69.3488541  70.5256348
  74.3398285  68.2734528  69.4754181  69.8421860  32.7284317  66.3427353
  69.1092529  32.2208519  65.9942932  70.2932663  33.0613480  65.5668945
  85.4773712   5.0253592  64.7149734  85.3801575   5.2667398  63.7938232
  86.3923569   5.2195911  64.9181900  29.6159286   6.5315213  66.6940460
  28.7264500   6.4580894  66.3481140  29.5072422   6.4936056  67.6442947
  42.8712273  23.7928638  76.1143723  42.0111313  23.4875870  76.4029465
  43.4866829  23.1605663  76.4853821  39.2131577  68.7002563  35.1755524
  39.6099358  68.2068176  34.4576988  38.3433495  68.9354324  34.8525047
  72.6383972  71.0957565  13.0467482  72.3070145  70.7010651  12.2401285
  73.0746765  71.8977966  12.7592888  81.2982254  31.1715908  81.0097122
  80.4026260  31.4516716  80.8208084  81.6903152  31.0260944  80.1487122
  64.2249527  51.3913956  88.0843811  64.9762039  51.6609573  87.5559921
  63.9172325  52.2002487  88.4934006  72.0123825  13.0930719   8.5198574
  72.0345459  12.5369606   9.2986259  71.1075439  13.0386648   8.2123690
  63.8521957  47.4084091  10.8568211  64.5207748  47.9554138  11.2691631
  64.3480301  46.7451935  10.3766851  34.6698799  69.9477692  43.1757202
  34.1745644  70.2487946  43.9374771  34.1309814  70.1982956  42.4253502
  50.3737755   5.4310861  51.2906647  49.6249352   6.0119038  51.1560478
  50.5792732   5.0987792  50.4168396  63.2326622  25.0694561  14.8923655
  62.6582222  25.3974915  15.5842056  62.9565239  24.1622944  14.7618361
  33.2632713   4.6997638  81.4549866  33.0546341   4.0770922  82.1513901
  33.4309464   4.1531701  80.6872940  17.9210033  57.3297195  45.6144524
  18.3142319  57.8325615  46.3277206  18.5460854  57.4073372  44.8936996
  72.2334595  15.1130648  24.0193214  72.0884628  16.0401096  23.8301220
  71.5552444  14.6578407  23.5202961  40.0618629  29.5925865  66.6418533
  39.7407913  29.7245216  65.7498093  40.2770348  28.6608200  66.6836090
  33.8591576  61.3946877  86.9864960  33.1827240  62.0108757  86.7054520
  34.2670403  61.0991440  86.1725464  81.3382034  29.8266201  67.6632233
  81.4336319  29.0208015  68.1709442  80.3940887  29.9185638  67.5350571
  25.7107658  29.5360565  21.0114498  25.6362648  30.0724144  20.2221470
  24.8305206  29.1851215  21.1465225  33.8818283  60.0479736  50.4243546
  34.4254265  59.4377060  50.9226608  34.2326202  60.9121056  50.6398926
  22.5321159  44.7930031  83.5767899  21.6828632  45.2117271  83.4365387
  22.4601707  43.9497681  83.1295624  16.3220596  25.1718807  71.7228165
  15.6897049  25.2028770  71.0049057  15.8551664  25.5468006  72.4695969
  79.0030060  58.0716591  22.8956871  78.3153763  58.0317955  23.5603676
  78.5500107  57.8936844  22.0714588  13.3747540  35.1630707  29.3705826
  13.2100096  34.2202187  29.3815842  14.0362930  35.2826843  28.6891937
  63.8653526  70.3516922  73.7258224  64.2179108  71.2319870  73.8562317
  63.3871269  70.1631622  74.5332794  78.8287277   8.7370834  77.0066376
  79.7784424   8.6849909  77.1141510  78.6897888   8.6574488  76.0629349
  20.2138062  68.3844223   0.3419178  19.7711010  68.7367706  -0.4301541
  20.8107376  69.0812378   0.6145865  81.0112076  33.5955620   4.3603091
  81.4018478  33.8589439   3.5270867  81.1473923  32.6489334   4.4000745
  60.0340996  19.5180817  15.2240191  59.3827896  19.5435486  14.5230370
  60.3454132  18.6129341  15.2289362  45.2222633  11.3853350  71.3564377
  44.8036079  11.2559147  72.2074432  45.3396034  12.3329096  71.2888718
  34.6129913  69.1800995  64.0250092  35.1880913  68.4317474  64.1845779
  33.9724007  68.8588638  63.3904381  69.0042877  23.0703354  15.6014538
  68.8916550  23.8502655  15.0580807  68.6682434  23.3262806  16.4604053
  54.1085854  39.7915382  44.9132309  53.6928558  38.9499016  44.7260056
  53.5485420  40.1927376  45.5777779  21.7979679  21.1714993  58.7279739
  22.6394958  21.2095585  59.1825256  21.1553097  21.0375900  59.4246025
  79.0525208  24.0326385  54.0981178  79.3310776  24.7623940  54.6513710
  78.8146744  23.3410645  54.7156868  16.1324062  60.2058525  66.6738358
  16.9178562  60.3060303  66.1360016  15.7958584  61.0962715  66.7744522
  67.7634659  26.7512836  83.0343399  66.8565674  26.4943695  83.2009659
  67.6952972  27.5002575  82.4421997   8.6177607  50.4563866  35.3532486
   7.8450637  50.9890137  35.5416107   9.2640133  51.0803757  35.0227470
  68.4487686  32.0005341  70.9640045  68.8681488  31.5395489  70.2374802
  69.1351471  32.5671501  71.3162460  48.2839432  36.7717400  81.7267227
  48.0602264  37.4590187  81.0991669  48.6806946  36.0817680  81.1949768
  80.8239365  50.2857170  29.3197193  80.1269760  50.5942612  28.7406864
  81.3519974  51.0645866  29.4950771  13.1746492   5.1723657  52.2826920
  14.1241684   5.1514893  52.1634865  13.0199823   4.6449046  53.0663338
  58.3158340  31.7141933  23.8928699  58.7899551  31.0784893  23.3568497
  58.8708534  32.4940300  23.8866444  83.7520294  53.5446968  31.4564552
  83.2463379  54.1334152  32.0167351  83.7682800  52.7150841  31.9336491
  51.0189247   3.8799098  64.7141953  51.7638817   3.4018817  65.0785599
  50.7587318   4.4840508  65.4095764  48.9734535  56.1605606  40.1323814
  49.3416786  55.5073547  40.7273331  49.6982841  56.7607574  39.9573936
  55.3533669   1.2711177   1.5366843  54.9278183   0.5643875   2.0221477
  56.2579575   0.9771245   1.4293875  37.6521835  66.2093887  84.3174896
  37.4610634  67.1472855  84.3101044  38.3903465  66.1106339  83.7161636
  32.8479118  40.3385887   3.2092829  32.5545692  39.4289093   3.2608993
  33.0440521  40.5787468   4.1148682  71.7433243  69.4850998  44.6943665
  71.3909836  69.6402359  43.8180008  70.9958191  69.1660690  45.2000237
  82.1476212   3.8215997  25.3700542  81.5626907   3.8263576  24.6123791
  82.6978607   4.5959992  25.2527103  64.7362366  54.2402954  87.0009613
  65.4460297  54.8244095  86.7340775  64.6691818  54.3619995  87.9480209
  14.3438396  65.1239090  49.1657677  14.5623302  65.5370026  48.3303947
  13.3869810  65.1021500  49.1791840  22.2657795  23.8614388  88.8005219
  22.2382431  23.0272427  88.3319092  21.4958324  24.3369293  88.4885559
  81.9016800  19.5370522  35.8348656  81.6058960  20.3979969  36.1306992
  82.7833557  19.4492226  36.1970406  81.6998215  58.0176353  23.8650150
  82.0884857  58.4702568  23.1164742  80.9280472  57.5798988  23.5058842
  84.1550140  37.6746635  41.9017639  84.5346985  38.2844734  42.5343819
  83.2558746  37.9810066  41.7837067   0.5550260  19.4403458  41.4558983
  -0.0013787  20.1833973  41.2224007   1.3897157  19.8357964  41.7071838
  69.1579819  63.0383644  62.5916328  68.2472076  62.9508514  62.3104591
  69.5574722  63.6092262  61.9353065  -0.0546374  20.7267933  20.3923473
   0.8248376  20.4675598  20.6672173  -0.5100672  20.9318848  21.2088985
  32.4297714  64.4478455  47.0333710  32.5952835  65.3775330  46.8767776
  31.5006905  64.3330231  46.8337326  86.0397720  29.6091194  37.0194702
  85.1504517  29.5665855  36.6680145  86.5423813  29.0048771  36.4731102
  54.5941582  54.5655441  66.1418457  53.8221169  54.6177750  66.7052765
  54.3002663  54.9135628  65.2999802  63.7918549  68.9362259  62.2906303
  64.7275543  69.1121216  62.3894463  63.6102180  69.1171722  61.3684044
  68.6878357  31.6408577  30.5775242  68.5313187  30.7693367  30.2139511
  68.3332062  32.2411880  29.9217243  54.1221199  53.1778526   4.8870521
  53.9271355  53.7145004   4.1187954  53.2654076  52.8876114   5.2001619
  87.1118393  42.5015221   4.5623412  86.4899216  41.9668045   5.0558314
  86.7215347  43.3754845   4.5528750  66.6594849  31.9470482  42.1925468
  66.9686432  31.1121693  41.8409309  65.7853699  31.7549858  42.5320435
  12.9147310  34.7280350  62.7629776  13.6717043  34.5938454  62.1927032
  13.2869635  34.8016853  63.6417580   4.2486906  10.1663494  74.5490036
   4.8342428  10.9134464  74.4256897   3.6848650  10.1737185  73.7755203
  78.1423340  17.5987663  76.0611267  79.0524979  17.3155689  75.9737473
  78.1048813  18.0235481  76.9180908  50.9681549  46.0384674  85.4340134
  50.8793869  46.1652946  84.4894180  50.7992973  45.1057625  85.5673599
  31.3179283  64.1892776  25.1051064  31.0240707  63.7428894  24.3109913
  32.0918579  64.6812668  24.8308601  60.9289665  65.6586761  57.6893158
  60.5308647  66.1011047  56.9396477  60.9379997  66.3204117  58.3808746
   4.2591181  25.2082386  40.4987640   3.7811658  26.0375710  40.4973526
   4.2956657  24.9544334  41.4209785  50.5713730  42.7004051  55.8316345
  50.3502502  41.7716904  55.9011269  51.1257439  42.7570305  55.0533676
  68.4089203  59.1932068  25.9535923  68.4522324  58.8512039  25.0606251
  67.5591431  58.8991852  26.2817211   5.2918906  17.2183418  25.9516106
   6.1976590  17.4887791  26.1022072   4.8093948  17.5699749  26.6997986
  17.4276924   3.9953995  23.1484680  17.1236172   3.3363256  23.7724800
  16.7631092   3.9976368  22.4595890  20.2670765  10.1397028  80.9522552
  20.6424809  11.0201941  80.9460144  19.6039066  10.1669607  81.6419601
  39.2204132  44.2034225  40.6577072  39.0562820  45.1077957  40.3904953
  39.8025894  44.2789574  41.4137459  82.0230484   8.8042059  74.1489944
  81.1680679   8.4288721  74.3596115  82.6288757   8.0650635  74.2025833
  18.6219292  49.9633942  16.1500282  18.4397659  50.3527756  15.2947903
  17.8926773  50.2458000  16.7019978  15.0034990  58.0820122  84.1662369
  15.6234636  57.3532181  84.1933746  14.3104324  57.8297348  84.7763596
  18.4432678  63.0650787  57.1115494  18.4400215  62.2751007  56.5710373
  18.6727943  63.7692451  56.5051651  41.0536461  20.6879559  83.7481766
  40.1280746  20.5197334  83.5713959  41.4998093  20.4501247  82.9354019
  48.9621010  62.1883812  22.2828674  49.3804092  62.6479568  21.5548286
  49.3667793  62.5616417  23.0659046  25.0016308  70.1330338  27.4852085
  24.5626144  69.3100662  27.2702007  24.3910751  70.8122101  27.1985512
  69.2316971  46.0892334  38.1144257  69.3969421  46.9060783  38.5852661
  68.7426529  46.3561516  37.3360786  49.1244125  17.9887371  42.4263687
  49.4796028  17.6245346  41.6155510  49.8885040  18.1072903  42.9905891
  12.6037312  49.3746643  72.9681625  13.0104656  50.2402992  72.9297256
  13.3224897  48.7818413  73.1876526  18.9036369  67.1138687  51.9747086
  19.2694874  66.2641525  52.2204056  19.1166382  67.2068939  51.0461578
  60.1881065  59.5656471  11.5777035  59.9015121  60.2558479  10.9796095
  59.3894882  59.0793381  11.7825050   9.0422850  63.2400970  56.6727562
   8.4814825  62.5316925  56.3566933   9.9296436  62.8852119  56.6190643
  51.8135376  70.6232681  46.0930977  51.6917305  69.7636948  46.4962578
  52.4504967  70.4721832  45.3947525  73.7553787  22.0994072  33.9358101
  74.0837173  21.3144970  34.3743744  73.6413193  22.7373734  34.6402397
  20.7681522  12.5544872  36.5390663  21.2540092  12.4129133  35.7265816
  21.0003357  11.8071804  37.0902977  51.8268967  51.3640404  88.6213455
  52.7102356  51.6394234  88.3761673  51.7986259  50.4315338  88.4071808
  40.7131729  15.3436213   0.3881992  41.6397018  15.1205425   0.4777190
  40.4206963  15.5157309   1.2832226  46.3850327  53.9854965  81.1756287
  45.7177963  54.6445198  80.9840088  45.8881302  53.1896477  81.3652191
   2.5403035  34.9923706  54.1550102   3.4699726  34.8587952  54.3396835
   2.2765589  34.2079964  53.6739426  75.8633804  42.8773842  79.1235809
  75.1444626  43.1411743  78.5492935  75.4340439  42.6004181  79.9330215
  33.7877884  57.3894768  48.6638298  33.9140282  58.2899628  48.9628639
  33.0958557  57.4505806  48.0052528  62.5522346  10.0430994   6.2685499
  62.3596420   9.5499220   5.4711065  63.1065292   9.4574862   6.7843475
  17.5445385  11.9893322  20.7109852  18.2316360  11.6710787  20.1254559
  17.8417835  11.7409964  21.5863171  72.2804947   5.8189740  65.0428619
  72.4595337   6.6556854  64.6138077  72.5241241   5.1596551  64.3931122
  61.4026642   8.7996969  72.3857651  60.4843216   8.9409695  72.1557236
  61.8822327   9.4415655  71.8620758  54.1789665   9.7140636  73.4741592
  54.0627480   9.5994196  72.5309830  53.4215851  10.2315645  73.7476578
  12.9663944  12.4716921  87.8329773  13.3560371  12.2537537  88.6796875
  13.6455383  12.2554932  87.1940308  48.8855820  10.0861044  45.6506424
  48.4197311   9.2511501  45.6051750  49.7884712   9.8456125  45.8584557
   3.5795505  67.9449005  43.7574158   3.0112846  68.7121735  43.8252449
   3.2358596  67.3339386  44.4092026   8.8474464  16.3412819  84.2032471
   8.6830654  15.9524460  83.3441696   8.0538597  16.8405914  84.3959656
  49.3383026  52.2420921  51.9099083  48.5348511  52.6932144  51.6507034
  49.9978523  52.5519257  51.2892418  20.2319221  71.1827393  62.4226494
  19.9616394  70.5473785  61.7597084  19.4105148  71.5222397  62.7779846
  28.4273109  47.2345505  21.7781582  28.9925632  46.9783325  21.0494099
  28.8500118  46.8615799  22.5517521  17.7374210  49.6975555  69.4448624
  17.1708431  49.0419159  69.8515091  18.5705242  49.2451820  69.3124695
  79.5578995  19.6495609  68.8874054  79.8302078  19.1442928  68.1213837
  80.3458786  19.7090569  69.4275665  61.9123421   0.8046821  11.5360937
  61.7746315   1.4909511  10.8831758  61.2137794   0.1718612  11.3694201
  24.5293255  52.1923523   5.6207271  24.9243393  51.5932503   4.9872661
  25.2569675  52.7366066   5.9216509  53.2753525   4.4146338  34.5149307
  53.1536942   5.3521805  34.6647224  52.3974953   4.0426226  34.5998497
  20.9860344  55.4046936   7.6383686  20.1273251  55.8267365   7.6113524
  21.3610687  55.5691605   6.7731900  73.9140244  65.3227463  66.1603775
  73.7138214  64.4104538  65.9508972  74.7700500  65.2881699  66.5872879
  27.5791683  35.2883644  21.6930656  26.9822445  34.7715607  21.1519279
  27.8305016  34.6979599  22.4033394  19.2466488  34.9695244   2.0334742
  19.4069557  35.7051353   1.4423651  18.3707104  35.1305962   2.3842180
  80.8380432  63.4831352  49.1865044  81.0516281  64.4079514  49.0627022
  81.6711960  63.0741615  49.4206505  52.9294701  41.2140045  81.9647827
  52.5937233  42.0721779  82.2237015  52.1487770  40.7120438  81.7307053
  54.7025948  22.3377209  33.2084465  54.1885300  21.8095074  33.8191490
  55.2728577  21.7075825  32.7680397  86.8047485  62.8995132  41.4396057
  86.0755997  62.6985130  40.8529472  86.3972549  63.3376656  42.1867409
  63.0151711  30.3911781  72.3046494  63.5858078  30.4905605  71.5425949
  63.3778191  30.9921818  72.9554291  71.2495804  48.2758179  34.0243263
  72.1080322  48.5826454  33.7325249  71.0310898  48.8431015  34.7637100
  71.1298523  15.3232117  42.1985703  70.3398514  15.4429636  41.6715126
  71.8508224  15.4641123  41.5849113  28.9194393  46.2564697  19.2868061
  28.3857880  45.4919891  19.5036449  28.3827229  46.7566299  18.6719818
  71.0024643  69.6193924  58.7292442  70.5018005  68.9642334  58.2430992
  71.8564758  69.2111511  58.8714905  49.3513451  36.2909584  58.0860901
  50.0591736  35.9250832  58.6165123  49.7541046  36.4627953  57.2349243
   9.6524630  43.0841713  45.5199699   9.6576166  42.1779747  45.2117310
   9.2847033  43.5831642  44.7905922  35.2208328  66.7422028  24.3925629
  35.3722839  67.6607132  24.6153488  34.3691864  66.7390060  23.9556217
  50.4450150  56.8238029  48.0618896  50.2906952  56.6087570  47.1420135
  49.5690193  56.9169464  48.4363022  11.9346046  10.0773354  66.6829605
  12.8259525   9.9169788  66.3730927  11.3941422   9.4632368  66.1859512
  80.0980759  53.8795128  76.1381836  79.9635925  54.8253899  76.1970444
  79.8091278  53.5432625  76.9865265   3.0871062  57.3253098   2.5113626
   2.5272684  56.8045540   1.9354926   3.5777333  56.6780167   3.0178499
  40.6063957  35.9011497  65.7967987  40.5049095  35.0791626  65.3169403
  40.1891136  35.7378006  66.6426315   1.5673935  18.9467201  75.1187210
   0.7278736  18.4881744  75.0844650   1.9730734  18.6433010  75.9308701
  38.1984940  70.2398453  60.1347008  38.9441147  70.7135696  59.7661057
  37.4409027  70.5753937  59.6554375  26.7883701   4.4249778  23.9416752
  27.5435734   4.1644049  24.4689350  26.2301178   3.6476684  23.9223080
  61.9755211  69.6082458  67.1033173  62.1521759  70.5364304  66.9500351
  62.7589073  69.2857285  67.5488739  19.5363998  36.8602638  35.7277756
  19.0700932  37.2855568  35.0081139  19.7089825  37.5656509  36.3513756
  60.4990845  45.9714127  45.1929131  59.7999115  46.1455269  45.8230476
  60.0420837  45.7980804  44.3699074  41.2376060  43.7934151  88.6889114
  40.4797173  43.8853760  89.2663040  41.1012115  44.4520988  88.0079117
  14.0229511   9.8170576  28.8946667  13.4996576   9.1262875  28.4881802
  14.9089556   9.4565945  28.9306278  45.5799141  22.8090210   5.6682291
  45.8629646  23.1943016   4.8389697  44.9027977  22.1792488   5.4209757
  51.9558258  35.9621887  74.5139923  51.0136948  35.8236809  74.6111145
  52.3544006  35.3116608  75.0920792  59.8033104  61.1564751  83.8707733
  59.2515411  61.3300667  84.6334381  59.9226418  62.0134659  83.4614410
  84.5201645  38.7880058  47.9677773  85.1391907  38.4500694  48.6149559
  84.6606674  38.2421646  47.1941185  80.6284714  60.5547409  73.7513962
  81.5367813  60.4673576  74.0404816  80.6466370  61.2723503  73.1181946
  19.8423195  60.1532745  41.3083267  20.0939426  59.5937958  42.0431061
  18.9816761  60.4947586  41.5510521  14.0366955  67.4021530   4.7231226
  13.2140245  66.9343491   4.8666711  13.7814198  68.3227234   4.6630630
  63.0713272  23.5986633  34.4789352  63.5380974  23.4792309  35.3060341
  62.4474258  22.8733406  34.4491081  65.8451233   9.0454111  71.0386658
  66.1256027   9.8222580  70.5548553  66.3560638   8.3300076  70.6600266
  51.4791222  56.0257492  29.7561569  52.2149620  56.6299438  29.6575642
  50.7268944  56.5910683  29.9316692  78.4083099  42.5312462  78.3536224
  78.5435104  42.5773087  77.4071426  77.4970398  42.7962265  78.4785690
   5.6216216  27.2058582  18.8313427   5.5347772  28.1588287  18.8545265
   5.3981419  26.9233418  19.7181740  48.1742325  27.8549557  14.2420120
  48.4144554  27.7891598  13.3177843  48.1336823  26.9475880  14.5441236
  13.7731380  23.7406902  80.0129089  13.7005615  23.5903301  79.0703812
  14.6246529  23.3728676  80.2492599  48.7722321  36.7913895   1.7473247
  49.5774155  36.8113480   2.2645454  48.1931458  36.2002182   2.2283721
  42.3622055   0.7609031  44.7596512  43.1939888   0.7747148  45.2331238
  41.6978683   0.6862204  45.4447136  43.5031013  45.1822319   0.9654933
  43.4509621  44.2668686   1.2404851  42.8639221  45.2561989   0.2568230
  11.8650160  50.8467865  29.7050190  11.0440264  50.3842239  29.5369663
  12.0276051  50.7145271  30.6389904  44.9112282  48.9432182  87.9192505
  45.5465698  49.2676773  87.2810516  44.6370811  48.0937157  87.5736771
  67.1540298  66.9812164  34.4934120  67.5938034  66.8688736  33.6506691
  67.5710220  66.3397064  35.0685730  26.3204327  54.1607094  81.6593781
  26.6032829  53.9247894  82.5428772  26.0423107  53.3327217  81.2678299
  79.2195587  62.0009460  39.5028763  79.8510971  61.7564011  38.8264236
  79.2971649  61.3123207  40.1631851  83.8082275   5.7908230  48.3437119
  84.5705109   6.1997495  48.7535172  83.3812027   6.5031347  47.8678017
  71.8686371  38.1440430  14.0975180  71.3243790  37.9552956  14.8619699
  71.6753159  37.4345207  13.4847918  13.7525959  27.4609261  19.2512150
  13.0264616  28.0229073  18.9807739  14.4282274  27.6073608  18.5891647
  16.9211426  10.7411518   9.2849007  16.4311676  11.3091593   8.6903229
  16.2697849  10.1234236   9.6171293   1.5158187  61.0537758  23.8741131
   2.4151163  61.1477051  24.1882343   1.6030319  60.6248741  23.0228367
  43.5215530  40.7639694  23.9318733  44.1159058  40.3585510  24.5632305
  43.2163811  40.0369339  23.3891754  56.3884392  27.3575230  67.4380646
  55.5625954  27.5320721  67.8894501  56.9722481  27.0331116  68.1237411
  11.8123140  10.2803726  17.7472019  11.2919064  10.3749552  16.9494171
  11.3475771  10.8041430  18.3998241  57.6818581  47.6162148  42.7168083
  58.2110786  48.0457726  42.0447655  57.2764969  48.3367271  43.1992760
  43.5002937  35.2825928  79.9668808  43.5389977  35.3995590  79.0176468
  44.3331642  34.8675957  80.1912308  30.8191223  54.8007965   1.7210304
  31.2506523  55.5217552   2.1795430  29.9400635  55.1291161   1.5321021
  65.4028854  60.0204506  13.2462492  65.2476425  59.7351837  12.3458290
  65.5440826  60.9646683  13.1773796  79.6027374  38.1036186  75.5142288
  79.5316162  37.8488388  74.5943069  78.7107162  38.3423462  75.7662964
  26.4267101   7.1079063  76.7884140  25.8265285   7.7217150  76.3650284
  26.0834084   7.0114298  77.6767044  40.4885254  55.2769623   4.2829919
  40.2088051  54.9489441   5.1376204  41.3839264  55.5838203   4.4255776
  30.8742733  11.3126698  80.3937988  30.1453800  11.1680536  80.9971542
  31.2848644  10.4527092  80.3037262  76.2705002  62.7766228   5.8133473
  76.3035507  61.8836670   5.4701734  77.1741409  63.0876427   5.7591434
  10.1049662   2.9993622  69.4629059   9.2970686   3.2198815  68.9993286
   9.9033499   2.1831999  69.9205780  76.6707077  40.6306496  19.1063557
  76.4768295  41.5496712  19.2908669  77.0603867  40.6389160  18.2321053
  42.2256660   7.9810953  81.7520828  42.3103447   8.4789753  80.9389572
  41.2936630   8.0273399  81.9652939  41.4629250  51.0188904  81.7157898
  41.2629852  51.5682144  82.4737473  41.8020248  50.2064629  82.0915680
  80.9031754   9.0267344  15.6700802  80.4302216   8.2788267  15.3051462
  81.0870895   8.7753334  16.5751801  43.4240875  37.6902122  77.2019272
  44.2920341  37.5401764  76.8272400  42.8793106  36.9968529  76.8294907
  27.6658840   1.3596280  78.6299820  26.9710732   0.7957357  78.2901306
  28.0348911   1.7797399  77.8530807   7.4673176  54.2136269  50.1348991
   8.3103485  54.0215187  50.5455360   6.8197718  54.0040627  50.8079491
  10.0106268  43.4840355  84.3938675  10.1471128  43.3316307  83.4587860
  10.8931904  43.5112915  84.7634201  57.9714394  33.4975128  82.7424393
  58.1448555  34.0301743  83.5186081  58.4873199  32.7025909  82.8773422
  27.6448231  59.9887810  27.1244869  27.1742153  59.1651688  27.2526379
  28.4464188  59.7377014  26.6655350  77.6768646  49.4695892  79.2441635
  77.0545807  48.7498932  79.1390915  77.1309967  50.2320938  79.4361267
  45.9519730   6.2785664  14.7962694  46.7228928   5.8408823  14.4352350
  45.7730904   6.9923010  14.1840477  76.7808533  59.7434998   0.0631246
  77.0505981  59.8719406   0.9725040  75.8839340  60.0761909   0.0300812
  34.5115204  57.8040123  84.9414673  34.8568344  58.6766701  85.1297760
  33.8813820  57.6392822  85.6429062  10.0376482  61.7166405  62.5759354
  10.4144506  60.8545151  62.7519875   9.1579647  61.6746674  62.9509354
  77.0485077   9.8819914   8.4390621  77.8758392   9.8376389   7.9597011
  77.0631027  10.7400026   8.8631334  65.2653885  49.6657257  60.4849358
  65.4121017  50.0380249  61.3544769  65.4304276  48.7292366  60.5943947
  48.1649208  15.4919481  10.7565460  48.9326744  15.4803438  10.1850109
  48.0019188  14.5703678  10.9574270  35.1253738  62.8864441  26.1933231
  35.5110207  63.6647682  25.7911777  35.8302917  62.2389336  26.1862011
  43.1064072  21.1788940  15.5138206  42.8522530  20.2756290  15.7028990
  42.8286514  21.3214512  14.6089668  63.3714409  43.8004684  59.9407310
  63.0510864  43.2204781  60.6315422  62.5946808  44.0044403  59.4198952
   3.7978978  52.5879745  25.8190479   4.0994792  52.0072403  26.5176392
   4.5863624  52.7828941  25.3125286  53.3840828  71.2759323  17.3888855
  52.5423813  71.6698990  17.6181526  53.5613213  70.6592941  18.0992184
  17.7896690  69.3440018   2.3825686  18.1329365  68.4505234   2.3727028
  18.2491379  69.7691269   3.1067181  57.7920380   6.1705189  44.1853676
  57.6474915   6.4859037  43.2932510  57.9398842   6.9645295  44.6990967
  41.5870285  11.8100672   7.4634709  41.0333900  12.5907450   7.4795780
  42.3344116  12.0349922   8.0175991  40.2505798  42.2043648  65.2495117
  40.0576057  42.7946358  65.9779129  39.7766991  41.4000435  65.4610138
  56.1836586   5.2404871  84.7146912  55.2604866   5.3494864  84.4864349
  56.4521675   6.0986276  85.0429153  52.3570175  14.1994438  13.7916231
  52.7677956  13.7786694  13.0363464  52.3442001  15.1304340  13.5695295
   4.9560966   2.3506391  64.9398499   4.8028955   2.8333027  64.1275711
   4.1331534   2.4270556  65.4227142  27.1779823  42.5542603   8.2459669
  27.4468994  42.1360779   9.0639143  26.4004555  42.0675507   7.9724727
  62.2561646  14.0073051  12.1798038  62.0140877  14.0141544  13.1058626
  62.9910965  13.3961487  12.1288719   0.2706673  26.9899654  21.9318714
  -0.4844193  27.5338879  21.7077675   0.2911669  26.9912205  22.8888512
  38.2042389  22.5669861   9.5605545  38.7330971  21.7707520   9.6110811
  37.4816666  22.4136162  10.1693239  81.6347198  15.7576857  19.8942108
  81.5971756  16.4273510  19.2112980  80.7916565  15.3082094  19.8355198
   8.0875387  36.9573708  57.4321213   8.3132410  37.0692711  58.3555756
   8.1573677  36.0147591  57.2810135  58.2079506  10.1340237  62.1919556
  57.9892502  10.2435760  63.1173744  57.4006882   9.8110104  61.7916794
  73.0913773  68.2905197  73.1550903  72.7732391  67.4022675  72.9937210
  72.6991730  68.8158112  72.4576111  85.9041824  45.5793495  88.7318497
  86.2152863  46.2536774  89.3357773  85.8170929  46.0312347  87.8925400
  46.7599373  66.6051559   8.0444403  47.1107483  65.7187958   8.1312046
  45.9359245  66.4913177   7.5708632  52.5442505  22.8925018  42.6331329
  53.2872696  23.3835411  42.2823639  51.7784500  23.4164295  42.3980103
  57.5550995  46.2168999  19.2624168  56.8454399  46.8338928  19.4411259
  57.1224327  45.4646873  18.8584328  80.8992081  48.5006409  49.8233070
  81.1468735  47.6410599  49.4827042  80.1343384  48.7520981  49.3056450
  48.5031357  55.4906349  69.8611984  48.6676254  54.5498581  69.7971115
  49.3168259  55.8527031  70.2119827  19.1274586  69.3325119  86.9065094
  18.9036026  69.7823868  87.7211990  18.4535732  69.6107635  86.2862778
  62.2358131  25.0448589  50.2850266  62.9862442  24.6705399  49.8235359
  62.5815086  25.2934647  51.1423035  11.6071854  41.0616493  15.5367126
  10.7074175  40.8569374  15.7911568  11.5543232  41.2490463  14.5995255
  43.6331367  69.3894501   9.8793697  44.1645737  69.9266891   9.2918558
  43.1403580  70.0219345  10.4022121  77.2224121  24.1386375  40.6237602
  77.8741074  24.5101624  41.2183189  76.4360046  24.0415974  41.1607704
  32.3681908  33.6870842  86.4631042  31.9167175  33.0982628  87.0678253
  31.7762432  34.4333534  86.3686905  51.7506599  25.0052452  85.2926483
  51.1726074  24.4611835  85.8275223  51.9239616  24.4766808  84.5136642
  48.5440941  59.6156578  12.8784256  47.6224098  59.3686714  12.8027868
  48.6262741  60.4023209  12.3393135  19.4580479  43.7129669  61.9250069
  19.4875240  43.0420952  61.2428856  19.0771351  44.4773979  61.4928246
  81.5915298   8.9687328  78.2919540  82.1324005   9.4444733  77.6615906
  81.5395432   9.5506248  79.0501938  50.1258354  31.7730064   8.2450075
  50.9738579  31.5197773   8.6096535  50.1352119  32.7300568   8.2591095
  53.5873947  20.0455570  17.0876122  53.6970100  20.7212906  16.4185829
  53.0010223  20.4403782  17.7329922  52.7660522  44.6782875  20.7306747
  53.0144386  45.0713196  19.8939781  53.2062569  45.2167702  21.3883133
  70.6618042  18.9719772  44.6475296  70.8052139  19.6420593  43.9792061
  69.7115097  18.8604946  44.6748772   2.8926053  39.0883522  66.4770126
   1.9509094  38.9809532  66.3432007   3.0427341  38.7892990  67.3738251
  27.3581390  21.3713169  75.3398666  27.9623470  20.6290226  75.3527069
  27.4259949  21.7505646  76.2161102   9.0080795  59.8761902   2.4641438
   8.8726511  59.9556770   1.5199122   9.4558840  60.6854172   2.7108381
   5.2837362  14.9710941  54.2793198   5.3997030  14.1592999  54.7730560
   5.2192898  14.6893110  53.3668098  86.4256821  56.1625748  21.8815117
  87.2164078  56.5478668  22.2590523  86.2050705  55.4419899  22.4716969
  74.3929443   4.8082633  76.9931107  74.4566422   3.9423347  77.3960266
  73.5432053   5.1435575  77.2790375  46.9675789   8.7532959  49.4842720
  47.7904167   8.7082405  49.9712410  46.6176643   7.8631601  49.5223770
  30.6868248  52.9036903  25.2624054  30.1387501  52.7025642  26.0209522
  30.1652718  52.6254311  24.5095520  42.2277985  37.1686668  83.7514725
  42.3880348  37.2100487  82.8086929  41.9747581  36.2595367  83.9117355
  64.5446472  23.4377880  29.7611980  65.2451324  22.9411316  30.1841412
  64.2342453  24.0385323  30.4386826  80.5551376  67.7252426   8.1808748
  81.4253845  67.9963837   7.8886514  80.2536621  67.1185379   7.5046711
  84.2586517  32.5653725  30.0444908  84.6992950  33.0454330  29.3433418
  84.7717285  31.7635632  30.1449318  76.8594437  14.2625313  43.9197044
  77.7912292  14.4803848  43.8964920  76.8319855  13.3620510  44.2431450
  11.4786444  56.6175385  35.3984375  11.6488056  56.5507927  36.3380241
  12.2007551  57.1477661  35.0613251   0.0534620  55.7638969  42.4776726
   0.8466778  56.1747246  42.8215599  -0.2673275  55.2218742  43.1984596
  70.9649963  29.7804680  52.7769432  71.6290665  30.2803326  53.2516823
  70.2408752  29.6948605  53.3970642  38.3729820  71.1627960  40.4028549
  37.8351135  71.4895020  41.1240997  37.7982101  71.2022934  39.6384544
  74.1538544   4.2615681   1.2354852  73.3849411   3.7756968   0.9372650
  74.8809814   3.8886361   0.7370536  51.7538490  32.5079155  29.6558723
  52.5990829  32.7756195  29.2951164  51.6585579  31.5934677  29.3895321
  54.8989029  33.7194443  61.9076691  55.1686630  33.0142021  62.4959641
  54.0331688  33.4543190  61.5971107  84.1579056  50.8540916  59.4674530
  84.3543091  51.0490150  58.5511208  83.3807526  50.2963791  59.4324341
   1.9858619  42.2583961  15.1252651   1.0421063  42.3756523  15.0165997
   2.3710496  42.7044182  14.3709946  45.6169662  36.8616104  65.1310806
  46.3137474  36.7252083  65.7730484  44.9070396  36.2897491  65.4229965
  73.6195145  59.4704437  11.7211256  73.5334854  58.5481339  11.9623213
  72.8253326  59.6627159  11.2225885  14.4630508  46.2889519  24.9363079
  14.8645220  45.4418449  25.1298695  14.4573078  46.3384476  23.9804058
  53.2185020  66.3964386  29.7492409  54.1465530  66.5422974  29.5657120
  53.2004433  66.0728378  30.6499004  33.4738007  46.9051476  81.7291641
  34.1871910  47.4886398  81.9877090  33.9033966  46.0710678  81.5394592
  65.6869965  50.9442558  52.8917809  65.3057785  51.7762604  53.1722717
  66.3162003  50.7252884  53.5790825  85.0112686  10.5156498  57.2484512
  85.5169601  10.7850943  58.0152016  84.6401596  11.3297110  56.9081345
   9.9658937  13.3602476  68.1708755  10.2310524  13.7959557  68.9808655
   9.0720434  13.6657238  68.0161285  63.5196838  29.9465981  21.2257481
  63.3301506  29.7916183  20.3003883  62.7421684  29.6301956  21.6857433
  14.8355370  55.0255775  68.9947128  15.7052946  55.3100281  69.2754974
  14.2331209  55.6195259  69.4425430  36.8657913  31.6942787   0.3961623
  37.5132027  32.3293152   0.0898616  36.2285347  31.6394482  -0.3159685
  50.5498466  62.9924431  19.9313755  51.0657692  62.1916389  19.8377419
  51.1897392  63.6630592  20.1702194  32.7213898  64.9080276  39.9000664
  33.6108704  64.5572128  39.8554535  32.4372025  64.9570618  38.9873428
  83.8478775  35.2701263  51.5810356  83.6403809  34.9373360  52.4542084
  83.9407730  34.4850616  51.0413361  53.0315285  64.2432327  87.7174072
  53.7158394  64.4241104  87.0730209  53.5065727  64.0844879  88.5331116
  16.9408970   5.1962805  83.6212387  17.8091087   5.3295007  83.2408524
  16.6659985   6.0690575  83.9021683  70.7266846   7.7826319  69.3682709
  71.2490845   8.4743366  69.7743225  71.3373260   7.3328099  68.7843170
  34.7527771   2.9841249  71.9653168  35.6133842   3.3148606  72.2226105
  34.5488281   2.3140776  72.6177521  33.9375305  47.2261734  20.8201542
  33.1584892  46.8694420  20.3934574  34.3096504  47.8276558  20.1751919
  47.2006226  16.6049080  73.7735748  47.3297615  17.5467815  73.8850632
  48.0757027  16.2632599  73.5898819  68.0801544  26.7663631  86.5600662
  67.1489182  26.9668159  86.4659958  68.2555084  26.1174526  85.8785934
  55.5700874   9.4570961  61.6823349  55.2713394   9.1508045  62.5385857
  55.2488594   8.7981806  61.0668030  60.0096550  67.9869537  49.8460960
  60.4277344  67.4060898  49.2104492  59.1498642  68.1747589  49.4696388
   7.4080768  70.0488510  25.4732132   7.7132459  70.9509506  25.5698109
   7.8047476  69.5817795  26.2085533  84.3871155  70.1923828  51.7564087
  85.1954117  69.6919556  51.8680534  84.5205994  70.9828262  52.2794876
  16.2927017  49.7337341  20.8599358  16.4545059  50.4109268  20.2030792
  16.3224144  48.9123077  20.3694229  26.6850166  19.1785450  81.7526932
  25.8830795  18.8247948  81.3680038  27.3910618  18.7756100  81.2473450
  72.1009903  60.8510132  73.2205734  71.5436020  61.5933342  73.4540405
  71.5118179  60.2380943  72.7807617  11.4274225   5.3511095  70.7783127
  11.1284199   4.5675778  70.3168869  10.7077589   5.5696707  71.3703766
  49.1740837  62.5265770   9.8541136  49.0991325  63.1513901  10.5753775
  49.0566673  63.0560532   9.0653801   8.2833261  42.9206200  37.5684204
   8.0921144  43.6367874  38.1740379   8.9660196  42.4123764  38.0064278
  73.6893158   6.0521593  84.9690628  72.7571716   5.9457378  85.1588440
  74.0894470   5.2358184  85.2685928  49.9898033  11.4021072   8.3544168
  50.8423309  10.9787922   8.2532578  50.1301689  12.2989454   8.0507536
  42.4374657  40.4810944  67.4953918  42.9666748  41.2783165  67.5200806
  42.9036903  39.9027290  66.8917770  59.8449287  23.9956284   3.2986736
  60.4157829  24.7234516   3.0524309  60.2599144  23.2244320   2.9123135
  75.8401184  68.9007187  15.3847179  74.8937759  68.9607697  15.5152979
  76.2065125  69.5488586  15.9863062  79.4637222  27.7810230  27.2578201
  80.2987442  27.8880386  27.7133522  79.5411148  26.9382343  26.8106613
  26.1789856  53.6926575  44.6956787  26.2691460  53.9233932  43.7710915
  27.0354233  53.8880348  45.0759087  56.1664619  23.1420708  53.8222923
  56.9924698  22.8209476  53.4605980  55.5494881  22.4231529  53.6854286
  55.1757584   7.8572025  64.1288223  55.4915810   8.5375195  64.7235107
  54.5459290   7.3580499  64.6488113  30.5976162  60.8617668  70.3118210
  30.6722031  59.9936447  70.7080917  30.2171860  60.6991577  69.4486542
  43.0339432  55.6266632  12.6739273  43.5811882  55.0641479  12.1259041
  42.3509979  55.0448265  13.0075178  22.2602196  57.3411560  37.9818954
  22.8766041  57.3344727  38.7141914  22.7984371  57.1488991  37.2140465
  54.1177673  43.9364395  64.8056488  54.9220734  44.1389771  64.3278427
  53.7882881  44.7883224  65.0919495  42.5782700  15.5272188  80.4033127
  42.7784843  15.0863447  79.5776138  41.8310738  16.0896873  80.1994629
  68.4020462  39.8703499  74.1253891  68.6306534  38.9496078  73.9980621
  69.1167603  40.3540535  73.7113266  75.5125885  17.1192856  65.6873550
  76.2036591  16.5044785  65.4410477  75.9234848  17.9811554  65.6196899
  15.3186541  62.1108170  14.4517632  14.5088348  61.6660881  14.7020435
  15.6034031  61.6603432  13.6566381  59.2589874  55.8029022  65.0131683
  59.6894493  55.0329742  65.3848495  58.4419670  55.8816109  65.5056305
  49.1668243  35.3564758  75.0763397  48.6175919  35.0371208  74.3603897
  49.5021896  34.5628090  75.4933014  61.5126495  -0.1370787  78.9446793
  60.9436455  -0.0171545  78.1843643  62.2803726   0.4028731  78.7568359
  63.6729164  58.0855408  79.1388855  63.7637177  59.0381012  79.1140671
  63.2567825  57.8628311  78.3061447   6.1360631  40.1765480  51.9376640
   7.0077410  40.1712494  52.3331146   5.6773787  40.8917046  52.3785629
  58.4399109  58.3316307  42.8608704  57.9649849  57.6531792  42.3808937
  59.3081017  58.3467674  42.4580688  74.4082184  66.5500717  16.7378387
  74.2976532  66.5829773  17.6880627  75.3070679  66.2461243  16.6116791
  16.8104820   0.7827062  34.3389778  15.9454403   0.3729096  34.3393631
  16.6674633   1.6444262  34.7304077  62.7859955  10.1544456  80.4881821
  62.3035316  10.3284950  81.2963638  63.0177460  11.0217571  80.1560745
  15.0650997  53.2389832  12.4007435  15.1457510  52.4802780  12.9787512
  14.1581287  53.5258598  12.5072165  52.4432678  38.8773651  88.4308853
  51.9046440  39.3455620  87.7929916  52.3739586  37.9579048  88.1739502
  61.7670517  54.3394318  61.7411003  62.5485382  54.3532028  62.2936592
  61.5840988  55.2617455  61.5619545  17.2679577  43.5660515  24.0259933
  17.8565636  42.8112755  24.0165138  17.0477886  43.6865005  24.9497070
  41.6315842  67.4913864  83.0326996  41.3501701  67.7677231  83.9048615
  42.4371109  67.9834442  82.8738403  68.0788651  61.9188919  79.4308624
  68.4381790  61.7145996  80.2942200  68.6028061  62.6581001  79.1221695
  75.3303375  71.2202682  21.2368603  75.0652390  71.5441360  22.0977116
  74.5112534  71.1418686  20.7477970  37.1946220  30.7474937  66.8931808
  38.1124001  30.4897499  66.9797211  36.7506714  30.2974815  67.6119461
  54.0821838   7.9194093   2.3818514  54.8304443   7.3815827   2.1228437
  54.2870255   8.7922010   2.0464323  36.0979881  18.1881351  76.8714600
  35.1690636  18.4165745  76.9053268  36.1940918  17.6962261  76.0559692
  69.7386780   1.2287289  58.2476349  69.5884018   2.0697949  57.8160629
  69.4873352   0.5759540  57.5942268  42.6377449  22.2639561  70.8461456
  43.4368973  22.5702953  70.4174881  42.5438614  22.8312588  71.6113815
  47.3117027  16.4182949  29.6761780  47.0643463  16.2422581  28.7684002
  48.0149269  15.7948761  29.8580036   6.4530630  58.6948891  78.4493179
   6.3964701  57.8516541  78.8987427   7.2673445  59.0828781  78.7696991
  57.8217278  53.8936920  24.4138145  58.0656433  54.0654526  23.5042877
  58.3439713  54.5135612  24.9229889  66.5948029  24.7127571  33.7812653
  66.1508179  24.0020714  34.2439003  67.4134903  24.8365307  34.2615318
  25.7188854   1.2189159  34.9168053  25.4434395   2.0428195  34.5148773
  26.3011627   1.4828541  35.6292114  18.9090004  17.8765202  61.7746086
  18.2306118  17.3480930  61.3541489  19.0396461  17.4634876  62.6281738
  44.8639526  66.7143478  30.7844448  44.5182228  66.7786102  31.6747093
  44.5297318  67.4939346  30.3408604  64.8812790  69.7136765  27.3095627
  63.9843521  69.4212265  27.1476307  64.8678360  70.6496429  27.1094933
  71.6612778  57.2422600  25.2309322  71.3891220  57.5441742  26.0975399
  72.5948029  57.0529747  25.3254986  71.9612961  38.3941193   2.6825624
  72.4242630  38.0454025   1.9207962  72.6484146  38.7854233   3.2219927
  45.0026550  43.7261238  74.6408234  44.5681915  43.2311058  73.9462509
  44.2895737  44.1670494  75.1026917  51.3580475  16.3883095  36.3083878
  50.7435036  16.8045921  35.7040100  51.1884956  16.8101940  37.1507072
  75.8666687  36.6819305  36.8041000  76.1366577  37.2234001  36.0623779
  76.6880341  36.4080925  37.2122650  80.0291443   8.3217096   8.1028643
  80.9475861   8.0923157   8.2445498  79.8996506   9.1194668   8.6157465
  16.0906391  54.6836510  81.2931671  15.3008785  55.0449524  81.6956253
  16.7703648  54.7943954  81.9579468  57.8843307  70.1520920  67.1563492
  57.0724335  70.6102448  66.9392242  58.4537239  70.8316956  67.5171356
  11.6585131  16.0574760   6.8906288  11.9188290  15.2255783   6.4951367
  12.3828068  16.2820034   7.4747672   8.1893835   1.9740626  61.8854828
   7.6719990   2.1201272  61.0935173   7.7532992   1.2442212  62.3252487
  16.2373695  14.0781565  28.4174576  16.2749977  13.1952925  28.7853813
  15.3134050  14.3218298  28.4735489  45.8693886  25.3631744  82.2211304
  44.9123383  25.3511429  82.2094421  46.1160507  24.4929695  82.5343933
  23.0657425   6.7389250  52.4926338  22.5116329   7.4369006  52.8419571
  23.9477005   7.1109219  52.4920502   5.3739209   4.6437826   2.8320708
   4.9914536   5.4977160   3.0339322   5.4525785   4.6360364   1.8781395
  31.6889915  10.8531523  18.6800346  31.8203201  11.4362173  19.4277115
  32.5716209  10.5754213  18.4349575  38.7167053   7.9668450  72.3284302
  39.2933197   8.4205055  72.9431992  37.8328133   8.1980076  72.6139679
  75.2887268  61.3065300  10.5875006  74.7556381  60.7289658  11.1338215
  75.3070984  60.8773842   9.7320890   3.0083067  52.5597382  44.3194656
   3.1723781  51.6740379  43.9956551   2.1221044  52.7636642  44.0206490
  56.1120987  31.9833698  25.4072971  56.1225281  32.4991608  26.2135754
  56.9855728  32.1036339  25.0347195  71.8605270  21.9744549  62.2787476
  72.5519638  21.6961460  62.8793221  71.1604004  21.3343334  62.4064293
  82.6947250  55.5065231  40.4368362  82.8814621  56.0243492  39.6537552
  82.1118164  54.8115768  40.1310463  42.5420952  51.9388618  46.8435745
  43.4515305  51.8922043  47.1385002  42.1776428  52.6916275  47.3091431
  57.9180870  71.1862793  70.6793518  57.6453400  72.0190811  70.2942810
  57.7014580  71.2694321  71.6080017  66.3255692  56.6408615  69.1098709
  65.9870758  56.7366409  70.0000839  66.0075531  55.7846451  68.8235321
  50.3012733   4.5201383  55.2755241  49.8819237   4.2000942  54.4768066
  51.2388687   4.4765077  55.0877762  56.3380013  68.7736130  16.8026390
  56.3518524  69.5582809  17.3506660  56.8107758  69.0268250  16.0097961
  43.4427605  66.9451675  23.1556091  44.3161736  67.2074509  23.4464493
  43.5635109  66.0655365  22.7979832  77.8454895  32.5982132  85.3105240
  78.6337814  33.1305504  85.2035751  77.9033356  31.9423103  84.6157761
  84.6553040  39.4893456  86.7849808  84.9965744  39.5436516  85.8923340
  83.8532867  40.0115356  86.7669601  27.5903378  53.0631714  53.3134880
  26.6515312  53.2379494  53.2477341  27.6733055  52.1276283  53.1288185
  78.4871063  48.3576736   9.9114714  78.5993042  47.8864899  10.7370815
  78.5439606  47.6790810   9.2387819  69.3807983  49.1489906  85.0195236
  68.6877136  49.7631035  85.2618866  70.1536636  49.4625740  85.4891739
   5.7177081  11.2265787  20.5358047   4.8013744  11.2486372  20.8116264
   5.9957657  10.3255711  20.7004280  74.2383957  20.7695160  68.8946609
  73.6665344  20.0023460  68.9202957  73.6384201  21.5142097  68.8535004
  52.2903976  40.4917107  64.3577499  52.3610420  40.4364090  63.4047661
  52.1020546  41.4140968  64.5308380  10.5617895  39.7894554  13.0914335
  11.0212526  39.5508308  12.2863359   9.8621826  40.3757057  12.8031731
  80.7110748  47.9433060  41.5746460  80.8942337  47.1919479  41.0106010
  80.2974091  47.5651016  42.3505783  63.0250740  22.6364250   2.8179345
  63.0505638  22.1895924   1.9718126  62.9575386  21.9297619   3.4600399
  73.4238358   4.4448543  30.1308594  73.6456528   4.4785457  29.2003250
  74.2674408   4.4964190  30.5801926  15.5133314  61.2521439  31.3474617
  15.8940268  61.6966095  32.1049271  15.7225876  61.8204155  30.6061707
   5.6352611  64.2130356  54.2850418   5.7701221  63.4433441  53.7322083
   4.9430923  63.9530029  54.8929214  14.3697243  47.5815811   1.8933251
  14.7570505  47.4752769   1.0244696  14.9452953  48.2041283   2.3376050
  53.5076065  56.4537468  86.4034424  53.4682503  57.2655792  85.8978577
  52.6075172  56.1280632  86.4039993  83.8062668  13.7702808  42.7369919
  84.4300232  14.4175444  42.4080467  82.9698181  14.0238209  42.3467293
  71.4957352  62.0318680  48.3924332  71.2564774  62.9578247  48.3524818
  71.6979752  61.8763351  49.3150024  71.7610626  49.3292732  53.1410446
  71.0023575  48.8514214  52.8059998  71.3876495  50.0061188  53.7055588
  78.6099167  47.7744446  88.8140335  78.9811325  47.7728310  89.6963196
  78.9917374  47.0047417  88.3921280  35.2133675  24.4733810  13.2756033
  35.9866943  25.0202656  13.4138632  35.4336510  23.9348240  12.5155611
  72.5473328  42.5503578  61.3940964  72.6904373  42.5297890  62.3403168
  72.5013199  41.6289978  61.1387367  79.6544113  18.8787193  62.6798363
  79.6911621  19.1010609  61.7495461  78.7256012  18.7250614  62.8528633
  39.1709175  32.2281342  87.8107986  40.1069298  32.0386963  87.8758087
  38.9768448  32.1586723  86.8760605  43.1646461  50.6604309  16.6549664
  43.7008286  49.8800125  16.5146561  43.4342995  51.2639313  15.9626484
  19.9389248  45.3800812  85.3202133  19.6773033  46.1233406  85.8636780
  20.2280216  45.7749062  84.4975586   1.0405892  12.0305281  62.9058380
   0.1896181  12.2537537  62.5286789   1.0784872  11.0750532  62.8626862
  30.3343525  16.3024731   1.6525267  29.5300140  15.7875767   1.5880909
  30.2552929  16.9579639   0.9594818  76.0541687  20.5206947  55.0675468
  75.6358566  20.0088768  54.3752403  75.4413681  21.2353649  55.2406197
  31.3978920  40.6996346  67.4764328  31.7948666  40.0472641  66.8993225
  30.5070724  40.3807831  67.6213608   7.1154327  52.8336716  16.1570282
   6.5377374  53.0517654  16.8884201   6.9549928  51.9042015  15.9940023
  86.9324341  27.0821896  16.1012936  86.4439545  26.9967270  16.9200211
  86.3833542  27.6417637  15.5520878  75.2839432  14.1472225  47.9844742
  74.9254227  13.4902544  47.3877449  74.8370667  14.9587440  47.7437172
  82.4715500  22.9762001  59.3636856  82.3181305  23.6245670  60.0509377
  83.2764053  23.2673340  58.9351082  63.0106697  66.1191025  60.6047668
  63.2400055  66.7823410  59.9538040  63.5518112  66.3324356  61.3649559
  37.1532936  13.2977381   1.0365998  37.0143356  14.0072317   0.4092710
  36.8716927  12.5092545   0.5726753  59.6374588  19.1933899  35.0571213
  60.3930817  18.6114731  34.9756660  59.2130775  18.9223557  35.8711700
  53.0244560  15.5025339  71.8163071  52.8561707  14.8707943  71.1171494
  52.9330215  14.9963808  72.6235733  61.3658524  62.3720055  68.7375336
  62.3216858  62.4096451  68.7721710  61.1403923  62.7770233  67.9000626
  79.3122330  18.9984741  26.3198528  79.5106583  18.3179607  26.9630947
  78.5866852  18.6403732  25.8084068  75.0412445  50.6309433  82.8730011
  74.1481094  50.9692841  82.8092422  75.1049881  50.2897148  83.7650452
  76.4394989  36.1660461  61.0464439  75.6523056  35.8576126  61.4952469
  76.5211563  35.5923538  60.2845764  12.1031122  64.1502304  41.0754509
  11.2235250  63.8441353  41.2965050  12.5231314  63.3949890  40.6638336
  58.6047363  28.2719288  63.6681213  58.8003807  28.3924522  64.5973282
  58.5332108  27.3236103  63.5594559  13.6018877  15.0504551  28.6732235
  13.9105654  15.6615143  28.0042267  12.8661041  15.5009193  29.0878754
  61.1576653  32.6450462  45.6178055  60.3881683  33.0664444  45.2350159
  61.1320343  31.7490788  45.2819214  74.7147675  38.5118408  26.7970219
  74.9436874  38.2178001  25.9153366  74.5788498  39.4550705  26.7071934
  35.9972725  66.5693817  49.8330727  36.8142090  66.2458038  49.4534111
  35.3151131  66.0393372  49.4208374  86.2383118  39.6823845  18.1285725
  86.2413254  40.6297684  18.2652550  85.4626465  39.3751564  18.5978146
  10.1550646  34.4958267  62.6877556  10.1785507  33.5788231  62.4142876
  11.0749111  34.7364159  62.7983551  52.7958107   9.6252909  83.7160187
  52.7815704  10.5451937  83.9802322  53.4712334   9.5809097  83.0392151
  70.5609436  45.5634956   8.3846626  71.4463730  45.9230423   8.3301792
  70.6900711  44.6417236   8.6080370  61.8886833  33.7339020  85.0822449
  62.2641068  33.6277122  84.2081680  61.5373459  32.8701859  85.2985611
  71.1980057   5.5268369   0.7266890  72.0199966   5.6823778   0.2615226
  71.2380066   4.6051965   0.9820535   4.3566875  62.3421021  82.2437210
   4.7424002  61.4686050  82.1769333   3.8028371  62.3003922  83.0233002
  11.6687498   9.8997736  24.1528416  11.7223549   9.5417261  23.2667484
  12.0270252  10.7840557  24.0759315  60.1742744  63.0124435  57.9031067
  60.4922562  63.9117737  57.9826431  59.7625732  62.9794540  57.0396004
  15.3720770  40.7228012  21.7958298  15.4481525  41.5715904  21.3599358
  16.2768536  40.4433327  21.9355049  83.5309219  49.6920013  18.1044312
  83.1161880  50.5514221  18.0294132  84.4487152  49.8848572  18.2959766
  50.0239754  23.9550877  41.9396172  49.9648666  24.2298107  41.0245934
  50.5017891  24.6629810  42.3718376  17.1855431  57.3372993  39.2667427
  16.7302418  56.9949226  38.4975128  18.0584164  57.5651398  38.9467239
  67.0072632   0.7829341  76.7825089  66.1715927   0.3176808  76.7447281
  67.4117432   0.6183584  75.9307175   0.8042063  41.6996803  83.2421188
   0.8699063  40.9591599  82.6391754   1.5014280  42.2950592  82.9671021
  22.6234436  62.0417519  40.6674652  22.3630486  61.5744438  41.4612198
  22.7343369  61.3545494  40.0104332  37.7556763  30.9955959  71.2490768
  38.0815659  30.6458569  72.0783539  36.8033905  30.9934711  71.3459473
   4.6850381  32.4988861  83.5969315   4.6444454  32.7146034  82.6652374
   4.9873343  31.5909576  83.6196136  10.1691179  68.5292435  12.7584505
  11.0970831  68.6536713  12.9575253  10.0734367  68.8404312  11.8583193
  44.4580231  58.3090096  52.2153358  43.6785812  58.6198044  51.7547836
  45.1179276  58.2094955  51.5291443  72.2421875   2.3034556  37.1413155
  72.7144547   3.1232622  36.9960251  72.7041855   1.6619987  36.6015778
   1.1194826  70.1592102  22.8229790   1.3674294  70.9469070  23.3070011
   1.7117332  69.4814987  23.1488419  35.3940201  47.7146187  88.7329483
  35.4944649  47.7900734  89.6818695  34.4889107  47.9777145  88.5662384
  22.0767498  22.8000984   8.2902718  21.3682213  22.4506645   8.8307495
  22.2063522  23.6920147   8.6126385  61.2262077  65.9850311  48.5229568
  60.8806267  66.3465424  47.7067986  62.0300980  65.5345840  48.2639503
  17.9428825  32.1928825  18.3606949  18.7899132  32.3601990  18.7739487
  17.4629650  33.0155144  18.4565315  70.2105942  42.8910675  70.0038147
  70.6811829  42.0680542  70.1358337  69.7634811  43.0474052  70.8356094
  53.8943024  20.5260429  77.2921677  53.0661011  20.5351753  77.7719879
  53.6609688  20.2149010  76.4175339  55.5422859  16.0256653  65.2673569
  56.0202637  16.3923721  66.0112000  55.4016647  16.7702065  64.6824493
   5.0276608  19.5623703  22.5988522   4.9302363  18.6176128  22.7179070
   5.1104507  19.9084740  23.4874420  68.8295288  46.4408836  34.9004784
  69.2504730  47.1548767  34.4216766  67.9714127  46.3481750  34.4866295
  24.3679485  22.3011570  32.2943611  23.4556580  22.5506802  32.1470566
  24.8543358  22.7539635  31.6054306  67.6440277  38.0883598  57.5483971
  66.9263916  38.7208786  57.5145340  67.7393036  37.7856522  56.6453323
  79.2856674  33.4481125  51.4826508  79.5534134  34.2249298  51.9736633
  79.7769623  32.7306862  51.8828506  11.6450338  64.7013245  49.3508148
  11.5462093  64.1582718  48.5687904  10.8717756  65.2655029  49.3499146
  33.6629982  55.5499535  27.2791710  34.5655098  55.7165718  27.5510960
  33.1383934  56.1494026  27.8099098  57.8326187  60.1041260  73.3211746
  57.4971924  59.2831993  73.6814499  57.5699883  60.0868149  72.4008713
  69.1334000  17.1651001   7.7148933  68.4961700  16.8226948   8.3417349
  68.7191086  17.0420876   6.8608060   2.2270558  10.7240429  66.2813110
   2.0235102  11.0448809  67.1598663   1.4230057  10.8667803  65.7819519
  51.5035667   7.7094831   6.5073519  52.1059952   7.5935941   5.7725844
  51.5528870   8.6431284   6.7125487  26.4112835  51.5412483  20.3872414
  27.1359386  51.0517883  20.7765217  25.6545620  51.3215103  20.9306736
  49.4702454  48.5617256  65.1835938  49.1386948  48.4895020  66.0786362
  48.7968826  49.0577888  64.7180481  47.8586197  54.6400986  53.4042892
  47.2101326  55.1049385  53.9330750  47.3561363  53.9654541  52.9475594
  34.4587288  46.4317627   3.9881048  34.0221252  47.2809486   3.9210644
  34.0639038  45.9039917   3.2939863  17.2978115  38.3745499   0.5730233
  16.9097214  39.0159492   1.1681881  16.8370819  37.5582733   0.7670772
  68.4314957  61.4653816  11.7016554  68.7388992  61.7891617  12.5483551
  68.5341187  60.5153046  11.7569370  75.3883667  11.0017071   5.5367303
  76.1720123  11.3719997   5.9429555  74.8842773  10.6463318   6.2687368
  38.9948730  56.2890892  37.7119255  39.5202141  56.9479065  38.1660233
  39.5988655  55.5613670  37.5641060  48.6571655  58.9417572  78.0298386
  47.9869194  58.6147881  77.4297562  49.2334938  59.4718666  77.4793243
  17.0902290  44.3282280  18.6475925  16.8102798  44.7702827  17.8460636
  17.8132172  44.8627625  18.9759083  56.4670372  25.7683926  27.3681126
  57.3378334  25.4296398  27.5759373  56.0722084  25.9530506  28.2203102
  21.3154068  28.6371765  70.2613754  22.0217495  28.1585140  69.8275681
  21.7452202  29.4001713  70.6478119  30.7088165  48.9759712  49.3822937
  31.4674091  49.5587044  49.4168091  31.0731754  48.1005020  49.5127869
  14.7700577  58.7551689  35.2876625  15.1347876  59.5638771  35.6471024
  14.1164293  59.0485840  34.6529121   7.3158937  16.9430599  10.8720274
   6.4203734  16.9444313  11.2100706   7.8321753  16.5283813  11.5632057
  74.8950577  21.2381821  19.8150558  74.9358063  21.0782948  20.7579288
  75.7804489  21.0526199  19.5021801  15.0966520   6.4960494  75.1583405
  14.3594475   7.0533042  75.4077988  15.4158773   6.8738146  74.3388138
  62.8336258  67.4876022  24.1317616  62.9130859  66.7472229  24.7332230
  62.3947830  67.1250153  23.3622303  79.3606796   7.8839655  59.3673401
  79.7671280   8.2600212  58.5865631  79.5779953   8.4971886  60.0694542
  66.8341904  42.3534355  33.9790192  67.7334213  42.6606026  34.0941620
  66.6460800  42.5049477  33.0527954   8.6057034  61.7643890   5.8624010
   7.9804387  61.0441780   5.9434810   9.3561668  61.4905472   6.3897023
  51.2453804  60.4780388  62.6986961  52.1238213  60.2934113  63.0310936
  50.6972466  60.5223312  63.4821625   2.0057006  15.2426414  38.7015419
   1.6400605  15.8760891  39.3190231   2.9414635  15.2252283  38.9022331
  11.2508631  25.5703278  17.0374718  11.9703836  26.1588783  16.8091507
  10.4809847  26.1376762  17.0778961  68.6396103  57.0521126  32.0129890
  68.0983505  57.2427254  31.2468700  69.5221939  57.3178673  31.7548180
  47.1283226  53.5983353  50.7223816  46.4430008  54.2074509  50.4475327
  46.7107925  52.7376060  50.6900711  58.3270149  19.2660408  10.7634258
  58.0883293  18.9149609  11.6213322  57.7884712  18.7728958  10.1445494
  71.5495834  61.2102318  44.7313499  72.4805374  61.0855026  44.5469818
  71.3010025  61.9703827  44.2054100  51.7371521   4.7668295  37.1175117
  51.0845909   5.2166204  37.6542473  52.1595421   5.4657612  36.6181984
  60.7853127  14.1860285   6.0747862  60.4279633  14.8655891   6.6463900
  61.4553490  14.6347599   5.5591092  51.9282265  19.3527336  65.4875336
  51.9568405  18.6071415  64.8879471  52.6872253  19.8835907  65.2459946
  80.1593628  69.5810242  88.2491989  80.6349335  69.3354874  89.0427856
  80.8443832  69.8007431  87.6177750   2.6435623  70.9828720   9.5300636
   3.1669400  70.3395844   9.0520573   2.3890960  71.6247940   8.8671808
  29.6316948   9.0699778  18.4232407  29.4886169   8.8911533  19.3526402
  30.1232929   9.8911924  18.4102516  47.5482216  42.8060684  75.2981033
  47.9478531  43.2840424  76.0247879  46.6837959  43.2042999  75.1960602
  15.2566433  42.3673134   7.6878624  15.9950171  42.9690170   7.7826676
  15.1148558  42.0214424   8.5690565  23.1697788  33.6594162  22.3310337
  23.7244453  33.8616676  23.0844727  22.5397606  33.0194588  22.6623421
  29.1555614  41.4966164  78.8888550  29.8016262  40.8292923  78.6575317
  29.6627522  42.3048210  78.9649506  50.6312752  46.3094711  63.8091583
  51.3950119  46.7552757  63.4428291  50.1412926  47.0006561  64.2545929
  26.4990711  60.7832909  69.9412079  26.9946327  60.7899437  69.1222992
  25.8942299  60.0471344  69.8491669  25.1814442   2.2731154  24.1956730
  24.8334732   1.6085507  23.6011124  24.4463921   2.8671565  24.3474808
  27.4693756  46.0285759  32.8532867  27.1256180  45.8486023  33.7283134
  26.6925583  46.0774193  32.2961502  22.0300884  59.6949768  65.4521866
  22.9133549  59.9052238  65.1490784  21.8236809  60.3832970  66.0845184
  82.9688797  28.9514370  16.4333134  83.3823166  29.1529961  15.5938625
  83.1889191  28.0339203  16.5944881  40.6924667  26.3915844   2.8454671
  41.5562820  26.0764046   3.1113956  40.1400757  26.2543621   3.6150537
  37.7587471  54.7262840  20.0256615  37.6153259  53.7897987  20.1622715
  38.2305489  54.7775803  19.1943970  54.4999924   1.9599478  15.1394339
  53.7189560   1.4082161  15.1819839  54.3781853   2.6018584  15.8389654
  84.5036926  24.0498409  51.5298576  84.1107712  24.8909550  51.7630386
  85.2002945  23.9240570  52.1741867   5.6239953  40.5930519  48.9253845
   4.9862804  41.1860046  49.3228226   6.0249605  40.1403313  49.6673470
  70.4032593  58.0326576  27.4023018  70.5397568  58.5903778  28.1681690
  69.7550583  58.5017204  26.8769016  51.9609413   7.9487395  68.1206741
  51.6111984   8.3449001  67.3225708  51.8424149   8.6197395  68.7929382
   0.8774157   0.4360617   1.1044359   1.2866666   1.2355826   0.7735102
   1.4274278   0.1732414   1.8424360  34.7067451  31.7816448  73.6242142
  34.0831909  31.9223366  74.3366928  35.3426399  31.1617241  73.9813843
  77.1076050  58.3687286  70.5338593  76.8877411  57.4615555  70.7458267
  77.4763641  58.7213097  71.3437576  49.7507820  33.1001282  39.5628433
  49.6676826  33.3316040  38.6377792  49.1332855  33.6782722  40.0108147
  53.4395370  63.4262619  37.4811478  54.2244949  62.8901863  37.3684654
  52.7608528  62.9634285  36.9898148  44.0828400  43.2884636  42.6197624
  43.3802376  43.4855804  42.0003052  43.6438026  42.8489151  43.3479614
  65.6298523  33.3754387  56.0064392  66.1590652  34.0805244  56.3792915
  65.6032791  32.7077904  56.6918335  54.1623421  71.3651352  62.5618248
  54.5709991  71.0291595  61.7641106  54.7871323  71.1576462  63.2566795
  29.0774326  13.3031321  82.2620621  29.7269115  13.9057655  82.6243362
  28.8384476  12.7384195  82.9970551  83.5654373  28.0152721   8.5735264
  82.7986984  27.5091248   8.3048887  83.4539871  28.8641911   8.1455717
  10.0505772  11.3575048   6.5134268  10.2773876  12.2597828   6.7385564
  10.8701611  10.9758358   6.1990342  49.0694237  41.1920967  53.0601463
  49.4651909  41.2129593  52.1888466  48.8119850  42.0986099  53.2280426
  38.5757866  20.1182957  82.9981842  38.3303833  19.3143787  83.4561386
  38.1216125  20.8134003  83.4744034  14.4923954  70.9968185  62.8972664
  14.7200480  70.2686844  62.3191452  15.1290283  70.9447021  63.6101570
  67.5148392   8.1954002   7.2921162  67.9661865   7.9691968   6.4788809
  66.9670105   7.4337425   7.4818420  45.7353134  62.6061592  73.0650940
  45.4335213  62.6289940  72.1570053  45.3856773  61.7858810  73.4131317
  16.3624725  60.9865036  81.1650238  17.0227375  61.5537834  80.7669296
  16.7498932  60.7154922  81.9973068  76.0501633  61.4171677  42.9028816
  75.4530792  61.8931046  42.3256378  75.5644226  60.6318436  43.1549835
  27.7713432  61.2962112  87.2207565  27.7905655  62.2532158  87.2189178
  27.5068703  61.0636711  88.1108170  50.3849068  12.7967091  17.9025307
  49.6178703  13.2026367  18.3064022  50.1595039  12.7291355  16.9747066
  72.7000809  44.9384842  16.6899166  73.3390961  45.1686020  17.3644066
  72.1528854  44.2671356  17.0974712  41.5873184  69.2494278  23.0863266
  42.1951485  68.5265198  22.9308357  41.2316322  69.0798721  23.9586620
  61.5879631   4.0414176  21.3269253  61.4221230   4.8944016  21.7283573
  60.7259293   3.6282616  21.2775936  80.4490128  26.4283638  86.9339600
  79.7682114  27.1009235  86.9541855  80.0285492  25.6508331  87.3012390
  12.4441433  28.6348171  64.3194809  11.5573826  28.8472481  64.0283432
  12.4775925  27.6782818  64.3071213  38.7093506  68.7828979   6.7186894
  39.2334862  69.1959457   7.4049149  38.0293312  68.3038712   7.1923304
  21.3484344  10.8410501  26.8173313  21.1093769  11.5135784  26.1795311
  20.7351151  10.9685249  27.5410862  84.4188919  14.2052746  88.6554260
  83.6658401  14.2176962  88.0646744  84.7605209  15.0989771  88.6268158
  74.8798752  37.7828255  82.4623108  73.9295654  37.8637657  82.5435486
  75.0195312  36.8814850  82.1719360  63.8754768   0.2121092  13.2750359
  63.5166321  -0.6752516  13.2825012  63.2868767   0.7036757  12.7021942
  50.7001228  51.7131081   8.6071606  51.2660408  51.3996086   9.3126259
  50.2191086  50.9359741   8.3226976  28.0558872   5.2985983   3.4919653
  27.9021244   6.2269640   3.3166754  28.9765854   5.2528124   3.7497420
  56.0389900  68.8784866  78.4194183  56.1839600  67.9583969  78.1988373
  55.2291756  68.8777161  78.9297485  43.5958290  36.3512917  87.6586533
  43.6219597  35.3966217  87.5941849  44.2215157  36.5617561  88.3517990
  86.3902664  37.5808830  76.5057755  87.0194626  37.0150681  76.9532089
  85.5482101  37.1404228  76.6205139   5.6750388  18.1202679  67.6871338
   5.5434952  18.9567604  67.2408066   5.1538639  17.4953079  67.1831131
  86.2373734  24.5874939  40.2383423  86.3284760  24.7386990  41.1791229
  86.6662445  25.3406487  39.8320694  52.5955505  61.9883728  66.0188980
  52.9746056  61.3212852  66.5912094  53.1304398  61.9555321  65.2257690
  32.1397247  71.2519455   9.0973063  32.6685486  72.0461960   9.0215406
  32.3516998  70.7472534   8.3120775  39.1594505  65.1271210  50.2134743
  38.7896156  64.7407913  49.4196205  38.8956566  64.5316544  50.9149475
  79.2060928  11.3775511  80.0734482  78.9714661  10.6589842  80.6606827
  78.4468079  11.4748945  79.4987793   1.8873653  48.8248749  74.8111954
   2.3694994  49.6423721  74.9356079   1.0823715  48.9424324  75.3155670
  30.3434868  61.7907715  54.4556236  29.5070019  61.4212341  54.7384033
  30.8093376  61.9799538  55.2701340   5.6087508  25.8554974  66.2717438
   5.3312855  26.3728333  65.5156937   6.1727157  26.4455509  66.7717590
  80.8041763  46.6421738  76.0342102  81.1022339  47.3368530  76.6214294
  81.5083847  45.9941216  76.0530014  58.9026985  34.8319893  46.1599884
  59.7425995  34.9394150  46.6063728  58.7825012  35.6489868  45.6759377
   3.2705178   7.4437389  38.2603340   3.4823642   6.7136040  38.8419304
   4.0307517   7.5189085  37.6835976  24.1115284  29.6833744  86.2113113
  23.2116966  29.8883610  86.4653091  24.3955002  30.4425011  85.7020798
  63.1712265  11.8868561   4.2101398  63.1626434  11.3023348   4.9680929
  62.9561310  12.7477274   4.5691204  38.0518265  49.3000221  80.5574417
  38.3086243  50.2192268  80.6305847  37.1749153  49.3260574  80.1745834
  54.8656807  42.7620087  78.7555008  54.9533730  42.2693405  79.5714798
  54.2420158  42.2551537  78.2355270  71.4547119   9.4443827  77.5645676
  71.3568115  10.3094988  77.9623337  71.0788422   8.8417788  78.2063065
  72.4072113  19.8662510  65.9757538  72.1232529  20.3025780  66.7790070
  71.6804810  19.9913578  65.3654709  15.4655676  38.9036713  29.5974903
  16.0063000  39.5206032  30.0906773  15.5530014  38.0766068  30.0713577
  38.9220657  46.6485939  49.8251762  39.0817947  47.2648163  49.1103401
  38.5041656  45.8970833  49.4046745  51.0658379  55.7468796   8.5459728
  51.1226654  55.5504112   9.4810677  50.4710808  55.0827942   8.1974182
  64.2012024  24.7023449  46.1731606  64.8305817  24.9469643  46.8515968
  64.7396622  24.3644428  45.4575424  44.0611343  10.9520159  13.8114195
  44.0177460  11.8273020  13.4264202  43.9173851  10.3586836  13.0741787
   4.5741873  15.7415648  19.4813633   3.8317888  15.6090050  20.0708580
   5.0116000  14.8906603  19.4519768  62.3101234  14.7936049  39.7176514
  62.7691917  14.2401752  40.3494759  61.4080200  14.4737844  39.7301064
  29.3665771  32.2768784  70.8564072  29.9698277  31.5649529  71.0696793
  28.4985237  31.8755569  70.8971252  77.8217621  35.1081772  37.9839401
  78.1128693  35.0695992  38.8949852  78.3013687  34.4030571  37.5491867
  11.2526913  62.8874245  15.1820641  11.6116667  63.4534836  15.8654013
  11.9567890  62.2681923  14.9896355  32.9868851   0.5291641  21.8480625
  33.1860657  -0.4059027  21.8950596  33.8161011   0.9612690  22.0528030
  22.2906780   8.5450525  25.8502178  23.0993347   8.3205233  26.3105354
  21.9758396   9.3345909  26.2903748  62.5000992  47.1475906  81.7014771
  62.1254692  46.2922173  81.4911957  63.4400101  47.0397224  81.5559921
   9.1562691  56.4846802  11.2589540   8.8707209  57.3595581  10.9957361
   9.3130064  56.5570526  12.2004566  78.4399643  25.5824623  83.9878540
  78.0211716  25.7550564  84.8310928  79.2168579  25.0680790  84.2070999
  43.9542542  55.0256424  19.7771435  43.9891853  54.1291466  20.1107712
  43.6907730  55.5520096  20.5319595  81.3734970  35.2991409  68.2815857
  82.1512909  35.8570290  68.2764740  81.5235519  34.6725082  67.5737381
  11.9217138  17.3715019  26.1514950  11.8010406  17.5366344  27.0865879
  11.0358829  17.2323322  25.8165817  32.3306122  35.5261078  79.6386185
  31.4480934  35.5016479  80.0084763  32.8659630  35.0375175  80.2638474
  71.5917130  60.2017136   0.5183592  71.0595398  60.6649437   1.1652278
  70.9943008  59.5624237   0.1302478  36.3874474  30.1464500  11.1036720
  35.5314560  30.1109924  11.5305805  36.5953484  31.0798264  11.0610352
  13.7657681  11.0723925  74.4844437  13.5004988  11.9554300  74.7415619
  13.2291851  10.8751144  73.7167282  66.6639633  29.3888626  40.5507584
  67.3063889  29.9392700  40.1028976  66.4240723  28.7257004  39.9035339
  25.3929863  58.4283981  22.0822830  25.6671181  57.5427628  22.3204746
  24.4572563  58.3479118  21.8974457  73.3899612  28.3491249  24.8475666
  73.3431244  27.8715324  25.6757832  73.2163467  29.2597389  25.0860443
  46.8654137  34.2257957  87.1809769  47.1734276  35.0157738  86.7368011
  46.7946281  33.5720673  86.4853745  54.2528114  42.9143181  26.0927982
  54.2663422  43.8700485  26.0415344  55.1558075  42.6520538  25.9137688
  73.6093140  53.9418869  37.8639603  73.1038971  53.9115295  37.0516396
  74.4346848  54.3590584  37.6170616  80.8999710  47.0425568  25.2510071
  80.9541702  47.1576653  26.1997128  80.8753128  46.0938911  25.1258621
   2.0106018  13.1466208  51.9382782   1.6726358  12.4547777  51.3696289
   1.2789236  13.3592072  52.5176620  24.9377975  64.2997742  25.5616264
  25.2171078  63.4032173  25.7470970  25.5601501  64.8481827  26.0392818
  42.9486313  27.2992306   6.2831016  42.9055405  27.1943111   7.2335577
  43.8105621  26.9588699   6.0433946  85.4131241  59.8020592  57.7588158
  86.0769272  59.1847343  58.0662422  85.7662888  60.6636391  57.9805908
  36.4431000  17.9706116  80.9241867  36.8986549  18.6879768  80.4836349
  37.1233902  17.5336571  81.4365387  83.5521393  13.7544670  51.0453568
  83.1079025  13.2505627  50.3634758  84.4748611  13.5157700  50.9568253
  12.8701735  33.6391983  18.1825562  12.2874136  34.2968140  18.5622425
  13.6407490  33.6456032  18.7503624  86.4692841  43.7100143  46.9884987
  87.1966858  43.3555183  47.4998207  86.2177963  44.5089684  47.4518051
  86.1449661  53.5391083  22.7287979  86.8139420  53.2181244  23.3335133
  85.5583344  52.7933159  22.6027794  49.8455315  37.1410179  38.7559662
  49.7736053  37.2370224  39.7056160  48.9519501  37.2615166  38.4346886
  68.5418091  61.0714836  33.8889236  67.7509155  60.7551727  33.4522781
  68.9289246  60.2883224  34.2801208  42.6599464  16.4047585  68.1412582
  43.0179062  17.2096138  67.7666931  43.0028000  16.3832130  69.0346909
  18.6510735  43.8664589  88.5977707  18.4633751  44.7076607  89.0141602
  18.2578316  43.9367409  87.7279129  12.6012020  33.1823845  12.0180883
  12.0272131  32.9403381  12.7448502  12.8965082  34.0677147  12.2307177
  29.1468601   6.2174206  81.9776688  29.1031322   5.7495341  82.8115768
  30.0225582   6.6037259  81.9654160  33.8591232  34.7222137  82.0716934
  34.6697769  34.6367493  82.5734558  33.4213676  35.4838867  82.4517593
  47.5930672   1.9151723  38.9865074  47.9352989   1.0218743  38.9529228
  46.6897697   1.8144673  39.2867508  15.1267309  50.5332031  37.4268112
  15.9867477  50.5942307  37.0110245  15.3147774  50.2758560  38.3293877
  34.2766571  63.7204514   5.8643961  33.7731857  63.0804100   5.3613086
  35.1898766  63.4696350   5.7252836  34.6316032  59.7871742  39.3600121
  35.5762558  59.6407585  39.4093132  34.5115166  60.3116379  38.5683403
   7.8689137  64.2510452   9.0449829   8.2298899  63.5669670   8.4810991
   8.4063492  65.0214539   8.8609734  15.1856165  50.8631325  77.1885834
  15.4197407  51.3079529  78.0031738  15.9283371  50.2868347  77.0083694
  44.9274979  56.4080009  80.6389618  45.3063622  57.2073860  81.0045776
  44.5316200  56.6865273  79.8131638  15.8467875  32.2811813  66.1082611
  15.5098686  32.4696159  66.9841690  16.7985172  32.2968140  66.2092438
  68.8433456   5.0203676  80.9395981  69.2085724   4.2406406  80.5214310
  69.5906143   5.4312963  81.3742905  84.5793228  68.6239243  28.6806641
  85.4027405  68.1647568  28.5151730  83.9114227  67.9393311  28.6422787
  50.5293312  40.9675446  14.9039717  49.6764145  40.7418594  14.5327148
  50.8365326  41.7003632  14.3702679  47.6338387  36.9940414  37.4315529
  47.1371346  36.1773453  37.3813210  47.1286774  37.6143227  36.9059067
   2.3229039   8.8973961  82.8217468   1.7324888   9.1166134  83.5425644
   1.7412367   8.6657209  82.0977097  46.3377914  41.3851891  33.7718697
  45.8233223  41.3250732  34.5768166  47.2407761  41.4891243  34.0719490
  11.4113245   3.0774572  56.8259506  12.0853634   2.6258907  57.3338814
  10.9940834   3.6679301  57.4532356  16.1717453  22.7598114  80.6426163
  16.8013382  22.0548325  80.7937775  16.7116127  23.5231991  80.4376373
  56.8518219   1.9779066  42.4545937  57.2179260   2.7305179  41.9900780
  56.6308975   2.3163059  43.3223000  11.9823885  16.2916603  21.0108967
  11.4014759  16.7863636  20.4329357  11.4131823  15.6422529  21.4238224
  84.0796661  16.3120174  70.2613297  83.7334747  15.7169142  69.5963211
  85.0125580  16.1027374  70.3077087  25.5030594  12.2522001  51.4165611
  24.7836781  12.4279003  52.0230713  25.8200550  13.1191788  51.1633949
  63.2851753  50.2874260  76.1427460  63.2764397  50.5458870  77.0643539
  63.1353722  51.1026192  75.6639481  21.4588013  15.0179749  68.7065735
  21.3280544  15.3854246  69.5807114  21.9884300  15.6709566  68.2490387
  19.6506100   4.7056227  79.1787872  19.2865314   4.5811343  78.3023300
  19.8224449   5.6455646  79.2354813  48.4475937  43.7786255  54.0622368
  48.9862595  44.3366241  54.6232300  47.7000313  43.5388603  54.6098671
  34.2648964  55.9541359   2.9682248  35.0287018  56.1040573   3.5253198
  34.2106895  55.0019035   2.8872740  78.2057037  33.1749344  72.2806396
  78.5170059  33.9121475  71.7554398  78.9795837  32.8783951  72.7596130
  60.9412384   3.2995555  72.3517914  61.1306992   3.9441175  71.6699677
  61.6203995   2.6332517  72.2468643   4.7342429   4.9035606  71.9855652
   4.6157875   4.0208697  72.3363647   4.1425915   5.4487777  72.5041428
  13.5509214  68.8612900  53.0220833  13.9902830  69.0760040  53.8449402
  14.1421461  68.2460251  52.5883293  12.2676706  41.1564102   3.7611713
  12.8038588  41.3496666   4.5301876  12.6080828  41.7363319   3.0799649
  81.3721161  60.3365402  43.7366982  80.4154739  60.3205528  43.7081642
  81.6203308  60.9904404  43.0832214  47.7156105  70.3317719  26.4753590
  48.4566841  70.9328003  26.5515747  47.6243286  70.1822052  25.5343342
  40.0081902  71.1241150  26.6143093  39.4177094  71.3622208  25.8995571
  40.1593361  71.9446106  27.0835342   4.7871599   1.1469818   0.4825805
   4.0138721   1.6491495   0.7396514   4.6107049   0.2592528   0.7940809
   5.7185364  10.4398584  84.9377518   4.8931189  10.5388803  84.4632874
   6.2998672  11.0913935  84.5455933  65.5221634  62.8261223   2.7766323
  64.6363678  63.1806450   2.6998031  66.0519180  63.3784790   2.2017412
  79.9010696  31.8890572  62.3195190  80.5287857  31.7104683  63.0197372
  80.2667007  32.6428757  61.8565941  15.9963207  26.5472584  20.9828415
  15.3491669  26.8513145  20.3464642  16.0799999  27.2709198  21.6037636
  55.2215080  29.5398712  28.0703506  55.7798347  29.7075596  27.3111515
  55.8210182  29.2124977  28.7409077  21.6924324  31.1000576  20.2520046
  21.0300007  31.1513557  20.9410496  21.4479389  31.7880306  19.6330147
  80.1332397  26.6288834  52.1152611  80.0344391  27.2642136  51.4061584
  79.4256821  26.8384361  52.7249107  11.9868288  27.2232857  87.6710052
  12.0346708  26.3481941  87.2860947  12.8788729  27.4035683  87.9676285
  77.2326050  59.8399429  76.7155151  76.4101715  60.2876091  76.5169525
  77.9067764  60.5053825  76.5779724  56.5241318  59.9849930  70.6879425
  56.8050613  60.2229233  69.8043671  55.9584007  60.7068710  70.9619293
  49.1697350  12.7259512  83.8896484  49.3868179  12.8369532  84.8152771
  48.5977249  11.9587679  83.8681183  15.4426365  47.1489182  81.2273865
  15.8414698  48.0186920  81.2017212  15.0937014  47.0715370  82.1153488
  15.3424902  54.1290894  56.1838570  16.0577984  54.0289001  55.5557404
  15.2659931  53.2698936  56.5987854   7.0815926  61.8426704  77.8150024
   6.9954267  61.6227417  78.7425995   7.9607058  61.5463409  77.5792542
  79.4947281  37.8440323  43.3002014  79.9883575  37.7222786  44.1112099
  78.7014771  37.3223495  43.4220161  73.9191055  52.5080109  73.4750137
  74.3245850  52.5186081  72.6080093  74.0058746  53.4073715  73.7910156
  21.5246620  58.1680107  17.6323242  21.2259789  57.2893372  17.3979034
  22.4389648  58.0494766  17.8896770  67.9485931  59.5734520  70.0380096
  67.8294601  60.4519043  70.3990631  67.2267609  59.4693909  69.4180374
  69.2085342  40.6798973  32.2914162  68.2957535  40.5161400  32.0542717
  69.6951294  39.9670868  31.8774681  15.8428097   8.6021099  26.1590309
  15.5545740   9.5147381  26.1428528  15.6620245   8.2781620  25.2766438
  59.8498306  52.6121788  19.7043781  60.7939911  52.4590416  19.7409706
  59.4614487  51.7494926  19.8498669   4.7507482  53.0198441  17.6607304
   4.9730887  52.0994034  17.5207844   4.0595737  53.1988945  17.0231953
  15.0294342  21.1685734  85.6034012  15.6413107  21.6749115  86.1376877
  15.4339199  21.1419926  84.7362747  75.6235199  27.5158463  70.5112076
  75.0508499  28.2826862  70.5266571  76.1563263  27.5988388  71.3020706
  77.8816757  21.5680237  70.4336700  78.1324615  20.8539944  69.8475800
  77.1500473  21.2159977  70.9406509  62.6958961  63.5755119  27.4035244
  62.4607162  63.9034309  28.2715073  63.5623703  63.1861610  27.5212612
  29.7409210  59.2875137  43.1910248  29.4233303  58.7851295  42.4407082
  29.0649719  59.1734123  43.8590851  22.9999390  68.2121124  46.9693527
  23.7676544  67.9146042  47.4575462  22.5467262  68.8018799  47.5718536
  27.2567272  53.3450699  39.8466606  27.6536617  52.4771233  39.9197311
  26.7399464  53.3051262  39.0419388  67.7879333  11.0964432  80.6594162
  68.4022217  11.6918364  81.0888062  68.2774429  10.7414789  79.9173813
  12.7983818  60.6533279  15.0899343  12.1603975  60.0400009  14.7251911
  13.2977238  60.1332741  15.7195616  30.9181194   5.4129434  15.5925188
  30.8858433   5.0855231  16.4913998  30.3395195   6.1754727  15.5944452
  43.8801079  41.9223061  79.0220490  43.8756409  42.8663521  78.8639755
  43.3517456  41.8092575  79.8121643  48.3893051  34.7277489   7.4178033
  49.0468903  34.7918015   8.1104155  47.7502441  34.0982132   7.7517524
   1.6536397   1.9092784  17.0054932   2.5514550   1.7530450  16.7126617
   1.6229537   1.5434539  17.8894978  14.6201553   3.3629005  88.7394333
  14.7110014   3.8607657  89.5519104  13.7094212   3.0682914  88.7396240
  53.6103821  68.3569031  79.8220825  52.7650757  68.7134628  79.5490341
  53.9511604  68.9988327  80.4450073   5.6694317  23.3580894  86.1818771
   5.1748228  23.3696747  87.0013046   5.2637663  22.6604748  85.6670990
  29.8962822   4.7819762  20.8242149  29.0078964   5.1328144  20.8867798
  30.3338833   5.3497186  20.1898613  50.9740791  57.9516487  82.2040710
  51.1231956  58.8207207  82.5765076  50.1099129  58.0107002  81.7966919
  71.7238617  10.3804131  69.8691025  71.2280197  10.5764933  70.6640472
  71.8220062  11.2268915  69.4331284  46.3090744  41.2664604  89.1356430
  46.4895592  40.4347649  89.5737534  45.9641571  41.0158272  88.2786407
  77.2555695  24.7092552  81.3139038  78.1627502  24.6507301  81.0141830
  77.2488861  24.2427273  82.1496887  79.0480652  54.3230896  59.3872643
  79.1045609  55.2734413  59.2879143  79.7249832  53.9805946  58.8035545
  26.8418865  36.6313019   9.9023848  26.9513416  35.6884689   9.7786150
  27.3386269  37.0262032   9.1857719  12.6103783  35.8417473   6.7123899
  13.4854546  36.1176224   6.9850917  12.0168915  36.4221535   7.1889749
  68.3666077  56.6297569  65.8298798  68.9216385  57.2651558  66.2820282
  68.4165955  55.8410072  66.3698883  20.3296890  64.2473755  31.0237904
  19.4034710  64.2568893  30.7824192  20.7168541  64.9604950  30.5160542
  42.0008354  35.0898438  72.4963913  42.8663292  34.9204788  72.1242828
  41.5515366  34.2458344  72.4516220   9.1575565  26.8098679  74.6986694
   9.8331499  27.4819775  74.6088104   9.6450281  25.9932518  74.8070297
   9.0233583  48.3482208  11.6299877   8.7626047  47.8363609  12.3956509
   8.5976067  49.1966820  11.7527781  85.6973343  32.0782585  11.1718225
  84.7835083  32.3206444  11.3215199  85.7335281  31.8411846  10.2451525
  60.0790520  52.3266945  53.4593620  59.8259354  52.7481079  54.2806892
  59.3134537  52.4257965  52.8934364  71.3419113  63.0670547   5.7214065
  70.8988876  63.3574066   6.5186896  72.2278671  63.4214287   5.7970920
  53.3507385  18.9790764  81.4149017  53.5892601  18.6759262  80.5388641
  53.7150040  18.3186722  82.0043106  15.0537338   5.4475765  21.3141308
  14.5004902   6.0756598  20.8497353  14.6467209   4.5981245  21.1438274
  35.6929932  52.8827705   6.4568882  36.0818939  52.9906197   7.3248496
  36.1604958  52.1395912   6.0756264   7.6951466  19.6845646  10.5859184
   7.9680419  20.0183849   9.7313290   7.7775173  18.7340069  10.5091848
  24.8541985  51.2295876  25.5002251  25.3174725  51.9935570  25.8436794
  25.0530605  50.5294266  26.1218853  72.9378052  14.8911247  70.1038132
  73.4487534  15.4876738  69.5567322  72.2516708  15.4411678  70.4818344
  53.6237526  49.4013138  76.4746017  52.8074265  49.5622177  76.0013657
  53.6179657  48.4601555  76.6490250  85.5000305  47.2306786  63.7087784
  85.4821167  47.7472572  62.9031372  85.7197647  46.3447876  63.4204254
  78.6339798  38.2383881  72.1626129  77.6897049  38.1399307  72.0405807
  78.7554855  39.1691399  72.3501511  78.0829086  35.1729012  66.9022751
  77.1475677  35.3762817  66.9040833  78.3695221  35.3558388  67.7970505
  62.0706673  41.0660057  75.0483093  62.3517265  41.9397240  75.3200760
  62.3045769  40.4996338  75.7836609  27.2214260  50.3170166  40.4789429
  26.9790726  49.8739319  41.2920685  28.1683311  50.1939507  40.4121628
  81.4707642   2.1862297  64.2382431  81.5742569   1.3034261  64.5934601
  81.4415359   2.7527323  65.0092468  20.9790077  29.1448288  75.5995712
  20.5636787  29.9934292  75.4459152  20.7756367  28.6333313  74.8164749
  23.7999859  25.0203896  75.3891068  23.8797607  24.4492779  74.6251068
  24.5815182  25.5721970  75.3582993  43.6064453  18.9967384  23.1624298
  43.7687912  19.7935467  22.6574841  43.1133194  18.4322338  22.5671196
  30.2391968  17.2314243  13.1014042  31.0327511  17.6184769  13.4711227
  29.7819309  17.9665852  12.6931410   1.8072004   5.1714706  66.2192459
   1.0509144   5.4174833  66.7519226   2.3196194   5.9765067  66.1445770
  39.3825989  66.7504807  61.5729942  38.5094109  66.3666916  61.4924583
  39.2414017  67.5694199  62.0480080  81.5735550   1.3154304  53.0976562
  82.3668060   1.7779380  52.8273277  80.9092636   1.5894777  52.4653244
  77.8766174  28.4776783  65.1585388  78.3614044  27.6825066  65.3796997
  77.8765793  28.9907284  65.9666290  17.8910294  34.0883598  26.3261642
  18.0632076  33.2451820  26.7452602  17.6502094  34.6696320  27.0475254
  81.6415863  56.2526970  28.3843117  81.4819870  57.1957664  28.3471394
  82.3595276  56.1068115  27.7682724  71.7940521  23.0494957  28.3852558
  72.4219208  23.7695217  28.3254547  71.0688782  23.3165359  27.8204155
  79.5995178  40.5559845  58.9177017  79.5705872  41.3690681  58.4134293
  79.6698227  39.8668365  58.2571259   6.0907683  29.3236904  16.3501472
   5.2343335  28.9058819  16.4406300   5.8913074  30.2433853  16.1751919
  23.5529747  41.8666191  61.2843437  24.0612888  41.2566109  60.7497940
  23.8845482  41.7397804  62.1732750   2.6778109  67.7337341  75.5972748
   2.0513299  67.1475143  75.1728897   2.9352741  67.2719879  76.3952408
  37.2260323  64.5859680  15.2657976  37.3592339  63.6406288  15.3352566
  36.9172745  64.7191315  14.3696022  58.8409538  40.7052994  71.8570938
  59.5134010  40.0886765  71.5675735  58.9515266  40.7517853  72.8067551
  44.7166023  42.8196106   8.6657677  44.3459969  42.0259781   8.2797279
  45.4478226  42.5076866   9.1989231  50.4211655  63.5974922  68.0241318
  51.0409927  64.0360489  68.6069870  50.5758438  62.6639977  68.1686935
  25.5241127   2.3037791  11.3111467  26.4139347   2.6311126  11.1796188
  25.1684227   2.8514898  12.0109539  69.4806213   1.3849921  49.9626198
  69.4994431   0.6315394  50.5526924  68.7280884   1.2245630  49.3932457
  65.4169540  52.1821785  17.7652740  64.9211273  51.4477577  17.4033241
  64.9304810  52.9588966  17.4890766  19.5353222  55.7037964  51.5656433
  19.5742168  55.6890564  50.6093483  18.9962406  56.4674492  51.7716866
  71.5905991  50.2465210  21.3664417  72.3498154  50.1117020  21.9335823
  71.3776398  51.1742096  21.4678059  30.9484425  42.0738525  42.7123947
  31.0567970  41.3599777  42.0840034  31.6420403  42.6952248  42.4909325
  74.3676834  49.2782211  76.7471237  74.4838943  48.4812546  77.2643967
  74.6674118  49.9825935  77.3218002  43.7542915  48.6825447  65.4044800
  42.8756218  48.3146515  65.4984360  44.0867996  48.3037453  64.5907364
   4.3090005  13.4075594  47.9296837   4.7641363  12.8653307  48.5739441
   4.9068298  13.4450788  47.1830750  46.8722725   0.8303390  18.2503700
  46.4876976   1.3967904  17.5814381  47.6249313   0.4264585  17.8183784
  13.6426601  56.6408081  46.1957130  14.4801741  56.1979446  46.3323593
  13.7798433  57.5237961  46.5388603  84.1411057  63.8335190  24.2225552
  83.8000946  64.7269135  24.2648201  83.6179581  63.4093895  23.5423660
   9.5706902  27.2237911  84.9606934   8.7155857  27.5668678  84.7012177
   9.9289455  26.8423100  84.1592178  37.5417824  46.7820435  12.8513556
  38.2587624  47.2283401  12.4008131  37.3772278  46.0003395  12.3240061
  64.0594101  51.1954956  78.4877167  64.9250946  51.5529480  78.6852951
  63.4631538  51.9357414  78.6006241  46.4019623  33.1196823  75.9258652
  45.6035194  32.7504158  75.5485535  47.0589447  33.0246162  75.2362442
  57.2204514  15.5396614  86.3570480  58.1679153  15.4835091  86.2329865
  57.0602455  15.0882921  87.1858063   5.5943508  34.7402687  84.5280228
   6.4930491  34.5443649  84.7929688   5.2829976  33.9317818  84.1210251
  70.7428970  60.8330269  16.5508995  71.5169678  60.6960526  17.0970478
  70.8427124  60.2079506  15.8328819  60.7159691  47.3976517  57.9228973
  61.2620811  48.1505623  58.1490021  60.5036812  47.5248146  56.9982414
   4.2970810  45.5088463  15.1429615   4.3214221  46.0278511  14.3390484
   3.5261362  45.8288879  15.6114159  66.3632050  57.4039154  39.4891853
  67.2714386  57.6230736  39.6972923  65.8577271  58.1530685  39.8046150
  79.4467926  63.2837067  18.7968178  79.6283875  63.1060295  17.8739491
  79.7139664  64.1942291  18.9225101  68.0382919   4.5528255  39.3193016
  68.2982788   4.9092026  40.1687889  68.3185883   5.2138767  38.6863098
   0.6684788  50.7920647  32.8566895   0.3336627  50.9768486  31.9792023
   1.5182248  50.3778114  32.7064934  70.6475449  16.1895065  47.8567200
  70.5579910  17.1334591  47.9877434  70.5040894  16.0632076  46.9187965
  80.2909546  49.8057785   7.3709054  80.1879654  50.2325211   8.2215042
  79.9642410  48.9165611   7.5079355  59.2891388   2.9952829  64.2175980
  58.5227051   2.4504588  64.3964233  59.9774742   2.6302722  64.7736511
  53.0692253  62.3156509  84.3069229  52.3133659  62.2573357  83.7225342
  53.2937202  63.2461090  84.3160095  70.9830017  41.0016747  78.9819260
  70.5200500  41.8284798  79.1172104  70.7569351  40.7440414  78.0882034
  41.8518066  67.6088943   8.7922478  42.4305496  67.9794540   9.4585648
  42.0641098  68.0932617   7.9944081   9.4736128  45.7567368  34.1845627
  10.1499853  46.3496628  33.8571663   9.9171896  45.2320900  34.8510590
  75.6062851  53.7054672  53.9361954  76.5364761  53.4999580  53.8427277
  75.3189468  53.9237175  53.0496063  75.5627747  46.3012543  64.1979980
  75.5165329  45.4373207  63.7884712  75.4117661  46.9153252  63.4794235
  24.9416370  70.2975769  30.8395557  24.0870934  69.9845428  30.5429173
  24.8298073  70.4453354  31.7786465  85.8979416  21.5869656  71.2120438
  86.1630325  22.5066833  71.2032013  86.0478516  21.2858677  70.3158875
   3.2981367  13.6032934  62.3101807   3.8733678  13.0867004  61.7458458
   2.5015256  13.0779438  62.3853455  58.4053497   1.8929261  80.8248138
  58.0710068   1.1266870  80.3586349  59.3278999   1.9419590  80.5743484
  59.1652946  39.5315781   2.5671375  59.9671249  39.0133171   2.6357415
  58.5162354  39.0358200   3.0663140  81.3162537  16.5767593  46.0790939
  81.4998474  15.9809551  46.8054161  80.3697815  16.7148342  46.1159554
   0.7181268   7.7785187  24.8202591   1.5221127   7.4683657  24.4035530
   0.2641149   6.9798222  25.0889378  46.8113213  18.7269764  23.2358837
  46.3132324  19.5312233  23.0898418  46.3046799  18.0473957  22.7912292
  56.9492378  63.5279884  38.4737663  56.7512627  63.1387558  39.3255501
  56.4077797  63.0380478  37.8548813  30.3727417  66.0387497  67.7700424
  31.0974846  66.6578827  67.6825714  29.6288300  66.5773621  68.0397186
  12.9340477  33.5827332  68.2848663  13.8911800  33.5721588  68.2891998
  12.6842976  32.6586952  68.2881851  30.3089199  66.3355789  22.6228695
  30.4782162  65.7131119  21.9156895  29.5320396  65.9916687  23.0637913
  67.6101379  19.3070164  46.8546104  68.3799210  18.9870892  47.3250542
  67.6631012  20.2598801  46.9286270  43.4610367  35.5455666  66.3151245
  42.5182495  35.6338806  66.1751785  43.5578651  35.4896927  67.2657700
  77.9022827  41.6174316  68.4390259  77.5734711  40.9359283  67.8527985
  78.8395462  41.6639366  68.2503281  60.5867805  70.0828323  13.6496086
  61.5191269  69.9118958  13.5164022  60.2322884  70.1793137  12.7657204
  40.8836365   7.3836541   9.4775391  41.5043259   7.8550916   8.9219084
  41.4305649   6.8107824  10.0150518  75.8257904  17.4202461   8.0034504
  75.0610046  17.1618176   7.4891095  75.5170364  18.1486187   8.5423164
  72.3267365  14.6696091  73.9822464  72.2082520  13.7505636  73.7423553
  71.4440002  14.9803848  74.1833191  36.5247879  51.4367447  55.7335091
  36.0087624  52.0499573  56.2568855  35.9095459  50.7398491  55.5053825
  62.1106606  56.3190956  87.8968887  62.0421028  56.7153664  87.0282669
  63.0515099  56.2797050  88.0685959  51.5638161  17.6521797  71.4759521
  51.9191589  17.8238983  70.6038971  51.8522491  16.7628613  71.6812592
  40.9205132  22.4666080  45.9459877  41.5214729  23.1303711  45.6076050
  41.4118347  21.6471310  45.8886108  24.0247993  51.4778748  29.6331577
  23.4705696  51.6559868  28.8733311  24.8676853  51.8745155  29.4130478
  24.7846851  65.8973618  13.2452955  25.3026485  66.7008820  13.1972675
  23.9141006  66.1893921  13.5155411  40.1991768  21.7788849  86.7018051
  39.7277794  22.4799328  86.2517548  40.5532455  22.1946201  87.4879532
  80.9462967  33.3950691  58.9912796  80.6798248  32.4939804  59.1736565
  80.9649811  33.8177528  59.8498955   2.6413128  23.4728241  22.1345081
   2.4154601  24.0974960  22.8237152   2.8080626  24.0160027  21.3641930
  57.8487320  50.0188560  22.9224892  57.0193443  49.8787689  23.3793507
  58.3803177  49.2566376  23.1519947  69.4493103  36.9311256  88.2222824
  68.5171814  37.1213570  88.3280640  69.8812332  37.7772789  88.3393173
  69.3409348   5.8569117  36.8652611  69.6927567   5.0173750  36.5692368
  70.0610352   6.4753222  36.7417183  61.6966286  32.5515518   4.3380914
  61.8332138  33.1865234   3.6349621  61.4339066  31.7486458   3.8880384
  47.2847786   3.9105732  47.1865959  46.9464684   4.1615596  46.3270721
  48.2278290   4.0632248  47.1267128  26.1339703  56.1413040  19.6900215
  27.0886517  56.1997147  19.6525326  25.9537220  55.2034149  19.7540932
  70.4532394  69.6101685  78.3865509  70.9645233  69.7305984  79.1867523
  71.0229263  69.0973434  77.8132324  82.0356674   5.5695701  21.4500713
  81.6196671   6.0672774  22.1539669  82.8012314   6.0907874  21.2082710
  22.3242092   7.7980299   5.6731586  22.7990742   8.3057432   5.0151596
  22.6498928   8.1274519   6.5108004  66.8290558  -0.0175593  12.9430170
  65.8966217  -0.1482608  13.1154213  66.8768082   0.8409072  12.5223188
   8.2350273  68.6562958  60.9719315   8.7702246  68.8247070  60.1964111
   7.6170731  67.9800873  60.6942482   8.9433260  51.5645142  79.5437241
   8.6209221  50.6632576  79.5482330   9.4363918  51.6384201  78.7266159
  76.7461853  62.0592346  24.1055183  77.1837997  61.3393250  24.5598927
  75.8439789  61.7592926  23.9946575  64.4723816  52.3249016  29.1615734
  63.9891815  51.4987259  29.1752605  65.3622437  52.0862541  29.4212437
   2.7776608  18.1724339  19.0917320   3.4800246  17.5221329  19.0866013
   2.0584707  17.7445450  19.5563908  19.4556770  11.5685816  10.2502861
  18.6946468  11.0098743  10.0924540  20.0611420  11.0149193  10.7433414
  12.0243864  30.4614620  72.4094315  12.8127346  30.9275608  72.6878052
  11.6027908  31.0542488  71.7872696   6.9174728  49.9325638  13.9262838
   6.2094669  50.0864677  14.5518026   7.6476970  49.6233444  14.4623699
  82.9866867  14.5090914   5.1906710  82.1928940  14.4526510   5.7225924
  82.7062912  14.2479219   4.3135161  13.6738787  22.0232430   1.8187685
  14.3683634  21.9487724   2.4732733  13.1712875  21.2136917   1.9096675
  86.7917264  71.6118015  89.1526075  90.0000000  90.0000000  90.0000000
