QMMM reactant CHA#2 frame 48292
 55680
  18.3826752  40.8921852  35.8272514  17.8630352  41.3031044  36.5896301
  18.4873486  41.5888710  35.1035271  17.8441868  40.1688347  35.3723907
  19.6730957  40.3300095  36.3055687  20.2315216  39.8572655  35.4976158
  20.5968113  41.4522400  37.0339012  20.7689209  42.2510185  36.3124962
  20.1378937  41.9977798  37.8584518  21.9529572  40.8646622  37.5652695
  22.5545788  41.7072449  37.9061584  21.7770977  40.2051811  38.4151268
  22.8347588  40.0259476  36.1323433  24.3039742  41.0209808  35.9412231
  24.0735874  42.0643234  35.7256660  24.8403187  40.9844894  36.8894348
  25.0063343  40.7149162  35.1659088  19.3789787  39.1677895  37.2772980
  19.2422867  39.3480453  38.5019112  19.3006935  37.9988594  36.7124329
  19.6315174  37.9585876  35.7589989  18.8860626  36.7504997  37.3750992
  19.0935802  36.8003235  38.4440041  17.3592567  36.5660172  37.0946083
  16.7755566  37.3704605  37.5421104  17.3064899  36.6032906  36.0065231
  16.8062820  35.1841393  37.6613693  17.2500000  34.4823875  36.9551392
  15.7222471  35.2566795  37.5735817  17.2200756  34.7682037  39.3734207
  16.3461838  35.9781494  40.4281425  16.8193226  36.9075851  40.1113014
  16.5383148  35.7336960  41.4728584  15.3005199  35.9217415  40.1256409
  19.7938023  35.5634804  36.8808746  20.3295841  35.6089287  35.8087311
  19.9386635  34.5952148  37.7751770  19.3595619  34.6873589  38.5975227
  20.7703419  33.4047813  37.4996452  21.7037048  33.8020630  37.1007652
  21.2097893  32.6460075  38.7994385  20.3166332  32.4885406  39.4040718
  21.9486046  31.2744446  38.5476341  22.7768002  31.4092102  37.8519058
  22.2593365  30.8049927  39.4809952  21.2761726  30.5641270  38.0666084
  22.1044540  33.5782280  39.7293167  23.1358452  33.4284363  39.4101028
  21.9631062  34.6277924  39.4713631  21.8191624  33.4117699  41.1867981
  21.7319889  32.3607559  41.4622536  22.6316986  33.8938179  41.7304115
  20.9118061  33.9864120  41.3727798  20.1478004  32.5319710  36.5175819
  19.0094604  32.1074982  36.6106949  20.8950558  32.1893501  35.4642563
  21.8674183  32.4614487  35.4403343  20.4889336  31.1077671  34.5126076
  19.5963230  30.6190662  34.9031372  20.2916660  31.7379971  33.0917282
  21.1856766  32.2359428  32.7163696  20.1437740  30.8919220  32.4206123
  18.9811039  32.4848404  32.8209496  18.8063889  32.5875206  31.7499561
  18.1205273  31.8755646  33.0971603  18.8566704  33.8269768  33.5084114
  19.2200832  33.7618942  34.5339813  19.6011715  34.4443092  33.0056992
  17.4709263  34.4064140  33.3988037  16.6669121  33.8023796  33.3049927
  17.2722168  35.7383575  33.3750000  18.1545792  36.6197319  33.4244308
  17.8539982  37.5822983  33.3676300  19.1155586  36.4299011  33.6705666
  16.0460644  36.0663986  33.3242455  15.3330622  35.3512535  33.3416405
  15.9121914  36.9187012  32.7991219  21.5973072  30.0325642  34.4885864
  22.7801685  30.2686443  34.6878777  21.1731262  28.8433037  34.1186523
  20.2224483  28.6487427  33.8385506  22.0327129  27.7448540  33.7254143
  22.8621941  27.7343597  34.4324875  21.4266167  26.8475399  33.8502121
  22.5358677  27.8842278  32.3390808  21.7704868  28.0157375  31.4151592
  23.8216209  27.7000294  32.1602173  24.3900356  27.6304264  32.9921799
  24.4513321  27.3604565  30.8932877  23.7201729  27.4948769  30.0961380
  25.6095867  28.3982563  30.6449318  26.4152832  28.2821617  31.3698349
  26.1413593  28.2260704  29.2655048  26.8667622  29.0068398  29.0368118
  26.6440926  27.2643547  29.1632042  25.3279686  28.4162464  28.5652714
  25.1501026  29.8638134  30.7045975  25.5913105  30.3658600  29.8435612
  24.0648098  29.8479557  30.6046486  25.6798878  30.4120617  32.0309868
  25.2507458  29.8777370  32.8785896  26.7647972  30.3079224  32.0159035
  25.3854866  31.4556484  32.1421318  24.9343109  25.9092312  30.8152943
  25.4050045  25.3678665  31.8502274  24.9824200  25.3489075  29.6107845
  24.6806641  25.9043884  28.8230762  25.5918198  23.9836464  29.3781052
  26.4207077  23.8319035  30.0694981  24.5438251  22.9184723  29.6086712
  24.9417820  21.9095058  29.5004349  24.3284454  23.0996838  30.6617050
  23.2853241  23.2099342  28.7871399  22.5845718  23.8233299  29.3535271
  23.5038223  23.6789360  27.8277664  22.5223007  21.8256073  28.6155128
  22.4225330  21.3988533  29.6135254  21.5366631  22.0220909  28.1935902
  23.2572956  20.9419975  27.6615582  23.7306843  21.4551983  26.9317417
  23.1502533  19.6074371  27.6093998  22.4985657  18.7429657  28.3481369
  21.8288288  18.9474010  29.0759869  22.3206863  17.8721905  27.8683338
  23.8110065  19.0163975  26.6719704  23.6591759  18.0419636  26.4539623
  24.1644688  19.6953869  26.0130768  26.2772369  23.7995205  28.0022602
  26.3404751  24.7252655  27.1983662  26.7227821  22.5648689  27.7503777
  26.6809883  21.8638363  28.4762611  27.4998798  22.2123680  26.5876884
  26.9066811  22.3879852  25.6902599  28.2969189  22.9457169  26.4650974
  28.0985985  20.8338661  26.5225163  28.1305447  20.1756897  27.5544949
  28.5304127  20.4107590  25.3565540  28.4419994  21.0328445  24.5658016
  28.9759007  19.0840569  25.0758572  29.4419231  18.7597160  26.0063019
  27.6850052  18.2483463  24.7809219  28.0230179  17.2129803  24.8240871
  26.8811073  18.3988743  25.5014725  27.3370800  18.3766308  23.7559376
  30.1732140  19.1838684  24.0677261  30.1789970  20.0893288  23.1947365
  31.1187706  18.1665478  24.2102299  31.0975494  17.4615936  24.9332027
  32.2081528  17.9235420  23.3171425  32.0532379  18.2694283  22.2951527
  33.4799995  18.6910725  23.6987209  33.2854004  19.7600327  23.6117496
  34.0702591  18.4231682  25.1217251  33.3773346  18.7073441  25.9136906
  34.2713623  17.3519287  25.1115494  34.9350510  19.0641727  25.2930470
  34.5464325  18.5168896  22.8984699  35.1192398  19.2805176  22.7966595
  32.4776878  16.3427639  23.1876564  31.8737488  15.5366488  23.8942051
  33.4055862  15.9221354  22.4033279  33.8482323  16.5702019  21.7675800
  33.8720703  14.5210752  22.2770081  33.6617508  13.9775410  23.1981125
  33.2154007  13.6542015  21.1557732  33.6185799  12.6449499  21.2392159
  31.7053413  13.4693756  21.2735691  31.1990471  14.4273424  21.3921509
  31.3822689  12.9132338  20.3935528  31.5929451  12.8789291  22.1828823
  33.5723686  14.1321707  19.8583031  34.4629517  13.7983112  19.7278957
  35.3824005  14.5122766  22.0705566  35.9288101  15.4847813  21.6375065
  35.9962006  13.3577881  22.4334679  35.3401642  12.6012783  22.5654163
  37.4413071  13.1402521  22.2780666  37.8854408  13.9503880  21.6996861
  38.1568832  13.0395555  23.6397648  39.0763130  12.4553614  23.6014709
  38.4401016  14.4628305  24.0855370  39.1046104  14.9428463  23.3671341
  37.5343285  15.0599432  24.1910706  38.9797325  14.4230127  25.0317440
  37.3083153  12.3419914  24.7291241  36.3196449  12.7797041  24.8671227
  37.2767639  11.2702799  24.5328121  37.7956505  12.3148909  25.7037411
  37.6339836  11.8460588  21.5318508  36.7483177  11.0268860  21.4551640
  38.8022003  11.7036457  20.9217377  39.4495277  12.4661760  21.0617828
  39.2416153  10.4063215  20.3271942  38.3782692   9.8053875  20.0415173
  40.1203232  10.7430496  19.0776310  41.0233536  11.2464476  19.4229221
  40.4609871   9.8492470  18.5549793  39.4950256  11.6396914  18.0066471
  39.2564621  12.6563339  18.3190994  40.2555122  11.7934208  17.2410507
  38.3478546  10.9440517  17.3241367  38.5364838   9.9338312  16.5910168
  37.2104645  11.3936148  17.4505367  40.0417786   9.5172958  21.2656116
  40.1929321   8.3479919  20.8669491  40.5033875   9.8588524  22.4550247
  40.3966560  10.8204594  22.7448883  41.2741928   8.9283161  23.3430691
  40.8900757   7.9455981  23.0695210  42.7563972   9.0867004  23.0883961
  43.1460571  10.0392303  23.4474983  43.2499657   8.3271770  23.6947098
  43.3408928   8.9516792  21.6787605  42.8654671   8.0764761  21.2359409
  43.0605431   9.8182707  21.0799942  44.8225098   8.5670652  21.4926853
  44.9498482   7.5311785  21.8070545  45.0725555   8.7533712  20.4482403
  45.7301064   9.3396540  22.2531471  46.2362633   8.7514563  22.8996220
  46.0744591  10.5843544  22.0702400  45.5261917  11.4413567  21.2458248
  45.8812141  12.3868933  21.2410526  44.7265129  11.1501284  20.7019539
  47.0719376  11.1330242  22.7094460  47.4183731  12.0406837  22.4333420
  47.7345467  10.5230007  23.1665211  41.0187607   9.2428055  24.7908268
  41.1708641  10.3373222  25.2760906  40.8445091   8.1610661  25.5065823
  40.9158401   7.3031178  24.9784374  40.7661514   8.0918999  26.9750957
  39.9509087   8.7862139  27.1785946  40.2859001   6.6755095  27.3944588
  39.3259773   6.4420061  26.9338837  41.0537224   5.9523582  27.1195011
  39.9827156   6.6211166  28.8593769  39.7677269   7.6839375  29.5048103
  40.0106659   5.5005541  29.4245968  42.1483536   8.4439068  27.5446892
  42.9575768   7.5708475  27.9279842  42.4927330   9.7760315  27.6183014
  41.8709373  10.4452829  27.1875210  43.7161102  10.2250471  28.1286812
  43.9506226   9.7103033  29.0604229  44.8827515  10.1426916  27.1241531
  44.9768295   9.0750580  26.9256401  44.7354736  10.8277578  25.7610607
  45.4875870  10.3869276  25.1067753  43.7450714  10.5661049  25.3885746
  44.8503647  11.9098349  25.8243027  46.0583916  10.7156620  27.6588364
  46.3713531  10.1297646  28.3519306  43.6210976  11.6630573  28.5485573
  43.0231819  12.5089426  27.8680954  44.3489723  12.0690289  29.6016808
  44.9850960  11.3735027  29.9645710  44.4455147  13.4219151  30.1154671
  43.4848213  13.7760859  30.4892750  45.3813477  13.2724237  31.3173637
  44.9970818  12.6270952  32.1072960  46.2998466  12.8135738  30.9514179
  45.9298668  14.5559216  31.8806114  46.1028366  15.3168106  31.1195412
  45.1516380  15.0161486  32.4894295  47.1526108  14.2478037  32.6489029
  47.0544014  13.4604225  33.6512032  48.2392654  14.6531181  32.2425117
  44.9759598  14.4690495  29.1336346  44.6852074  15.6114731  29.3250809
  45.6914444  14.0785160  28.0800037  45.7745628  13.0719852  28.0893669
  46.1841393  14.8210096  26.9442177  46.8313408  15.6239672  27.2970505
  47.1566582  13.9472036  26.1047077  48.0853004  13.8714342  26.6703758
  46.8167114  12.9217491  25.9598503  47.5410652  14.6170740  24.7512703
  48.3287086  14.0017910  24.3163567  46.7149353  14.6881695  24.0437717
  48.1621399  16.0134563  24.9149055  47.9624596  16.8066559  24.0035133
  48.8444328  16.3620930  25.9437275  44.9794083  15.3618965  26.0929012
  45.0178299  16.4870148  25.6094933  43.9868507  14.4889526  25.8475380
  43.9357948  13.6009684  26.3260536  42.7341347  14.7651434  25.1660442
  42.8782082  15.4243670  24.3100262  42.1650543  13.4477491  24.6544514
  42.2529755  12.7049809  25.4473343  41.0810394  13.4448614  24.5403843
  42.6742592  12.9989595  23.2536716  43.7561302  13.1041002  23.1724396
  42.3753548  11.9615631  23.1034546  42.0455246  13.8390236  22.1300888
  42.7422295  14.7035179  21.5561733  40.8974495  13.5590544  21.7412376
  41.7338791  15.4459982  26.1198254  41.2539520  16.5262241  25.8348007
  41.2790184  14.7543364  27.1396694  41.8223724  13.9254904  27.3342991
  40.0545807  15.0046682  27.9718094  39.1823997  14.9449158  27.3207855
  39.9291954  13.9024029  29.0715256  40.8519173  13.8861618  29.6515427
  38.7904587  14.1683550  30.0977058  39.0233765  15.0454884  30.7014332
  37.8032532  14.3269558  29.6636887  38.7701073  13.3681211  30.8375111
  39.5993462  12.5974236  28.3914738  38.6645088  12.6828222  27.8374996
  40.3136635  12.3999815  27.5921764  39.5534439  11.3088083  29.2755966
  40.4501724  11.1720858  29.8799858  38.7383270  11.3841801  29.9953251
  39.5450096  10.3619061  28.7357769  40.1215897  16.4494591  28.5156136
  39.0679512  17.1262455  28.6233253  41.2968750  16.8837013  28.9521961
  42.1359444  16.3518028  28.7701340  41.4246368  18.1918240  29.6184921
  40.5865097  18.4082737  30.2809143  42.6790657  18.2328148  30.6179962
  43.4963913  18.1762619  29.8990479  42.6199036  19.2426262  31.0240555
  42.6554413  17.1600380  31.6691513  42.8606682  16.2397442  31.1223068
  43.7254677  17.5848618  32.6737175  43.8174019  16.8671379  33.4888992
  44.6984367  17.6427212  32.1857796  43.3836403  18.4545670  33.2348595
  41.2856827  16.9266834  32.4140167  40.5745735  16.5738544  31.6670704
  41.4161224  16.2942448  33.2921448  40.9372978  17.8437119  32.8891945
  41.4116592  19.3117313  28.5796032  40.9298363  20.4321136  28.8264542
  41.9067955  19.1185284  27.3877983  42.1960106  18.1571484  27.2773323
  42.1103401  20.1142483  26.3598652  42.3156967  21.0677204  26.8465042
  43.2567711  19.7876740  25.4418087  42.9632187  19.0115585  24.7350044
  43.4215927  20.6551266  24.8026981  44.5605202  19.3954029  26.2478237
  44.3316879  18.5741405  26.9269867  45.2334747  18.9818897  25.4966621
  45.1800766  20.4183578  27.2131882  44.7567902  21.5677319  27.2277870
  45.9901085  20.0616207  28.1570930  46.3733749  19.1336670  28.0470448
  46.3359146  20.7437000  28.8168545  40.8087845  20.3902798  25.5465698
  40.3308716  21.5167141  25.3855667  40.1335220  19.2391644  25.2803707
  40.5628738  18.3416500  25.4542255  38.7124634  19.3538227  24.8676815
  38.6424408  20.0479240  24.0301743  38.2180214  17.9597359  24.4770813
  38.7005730  17.1734180  25.0575523  37.1343155  17.8909092  24.5716915
  38.3977470  17.7110729  22.9881439  37.9571342  16.7492161  22.7258606
  37.8856239  18.4944973  22.4295082  39.8595085  17.6980419  22.5298653
  40.3591309  18.6630955  22.4453316  40.4158363  17.1314163  23.2765465
  39.9995193  17.1917152  21.1020203  39.2699432  16.4130268  20.8796158
  39.5549202  17.9495277  20.4569187  41.4422150  16.9963570  20.7213802
  42.0564461  17.7160435  21.0747547  41.7808380  16.1322956  21.1199207
  41.4117775  16.8277588  19.7260170  37.7835808  20.0933418  25.8859463
  36.8997650  20.9224930  25.4993134  38.0196304  20.0279694  27.2110386
  38.6745987  19.3247128  27.5217571  37.1424332  20.7086086  28.2184772
  36.1173248  20.7743225  27.8538628  37.2191429  20.1030273  29.6773605
  38.2231903  20.2311039  30.0818233  36.2915421  20.8070660  30.6191635
  36.2354851  20.1743469  31.5049591  36.7771263  21.7237129  30.9539242
  35.3017693  20.9565258  30.1877556  37.0117416  18.6862068  29.6181355
  37.7907982  18.1801319  29.3761482  37.6083260  22.1985550  28.3511829
  36.7751732  23.1256790  28.4186497  38.9483147  22.4274387  28.2282009
  39.4881401  21.5879402  28.0735054  39.5739708  23.7469616  28.1710415
  39.2632828  24.3581142  29.0184307  41.0673485  23.6494522  28.1587296
  41.5325813  22.8797283  28.7745113  41.2910957  23.4191360  27.1170979
  41.6677628  25.0777588  28.5478630  41.3679428  25.9516411  27.9694691
  41.2946777  25.5004082  29.4807472  43.1895447  25.1055698  28.6694145
  43.4915237  26.0689220  29.0803432  43.5301628  24.3227940  29.3471603
  43.7943687  24.9891567  27.2370949  43.2309875  24.2555676  26.6604233
  43.7863197  25.9723873  26.7666759  45.1072006  24.4132614  27.2610855
  45.4322090  24.4424839  26.3052521  45.7095413  24.9330120  27.8833027
  45.0980988  23.4175720  27.4302578  38.9899559  24.5432987  26.9813328
  38.6804848  25.7386589  27.1424770  38.8117905  23.8853436  25.8157997
  39.1991692  22.9650326  25.6639309  38.2353172  24.3997478  24.5878296
  38.7553749  25.3136196  24.3006401  38.4417267  23.4407368  23.4674587
  38.1723022  22.4331665  23.7841797  37.7657776  23.7213535  22.6597157
  39.9261818  23.5025578  23.0088100  39.9633102  24.2346191  22.2020817
  40.6169548  23.9008408  23.7519836  40.5751801  22.2088261  22.4360828
  39.8816071  21.4439907  21.7365532  41.8370705  22.0068226  22.6694622
  42.1766090  21.1571274  22.2418671  42.4255486  22.6138458  23.2220135
  36.7801857  24.6648712  24.7646885  36.3265877  25.6815834  24.2867146
  36.0210228  23.7357559  25.3632946  36.4559326  22.8494587  25.5764313
  34.5777702  23.9430275  25.6350422  34.1682587  24.1628342  24.6490974
  33.9463158  22.6647034  26.2131462  34.2701950  21.8852787  25.5234356
  34.4738579  22.4506989  27.1426640  32.4371719  22.5823803  26.3506241
  32.2449989  23.1928959  27.2329159  31.6520557  23.0631752  25.0976696
  31.9733105  24.1005173  25.0037899  31.9368019  22.5621052  24.1724930
  30.6107216  22.9231415  25.3876991  32.0457802  21.1499214  26.7278881
  32.2892189  20.4862099  25.8982277  32.7428894  20.7043247  27.4375248
  30.9999866  21.0592537  27.0214806  34.3547020  25.2330647  26.4747772
  33.6500969  26.1385708  26.0164948  34.9955902  25.3136940  27.6671486
  35.5056114  24.5051098  27.9929867  34.8754044  26.4557991  28.6109295
  33.8100624  26.5873184  28.8002701  35.6699104  26.1737881  29.9085636
  36.6950378  25.9810162  29.5922451  35.6569519  27.0986156  30.4853020
  35.1914215  24.9689369  30.7574100  35.0735245  24.1288776  30.0729408
  36.2346916  24.6401501  31.7683468  37.2131920  24.5457020  31.2974873
  36.2039070  25.3850689  32.5634880  36.0451736  23.6427727  32.1651154
  33.8006439  25.1887093  31.3636856  33.6255798  26.2215347  31.6648827
  33.1363029  24.8983040  30.5497971  33.6134605  24.5321770  32.2134056
  35.3934631  27.8029423  27.9663811  34.6557503  28.7460175  28.0441303
  36.4454956  27.8027687  27.1753025  36.9073067  26.9136848  27.0473976
  36.8938255  28.9222393  26.3593788  37.0678253  29.7446690  27.0532341
  38.0681267  28.4625816  25.5396633  38.8596268  28.1170788  26.2046890
  37.6487045  27.6227646  24.9856873  38.6066208  29.5509453  24.5434074
  37.9520149  29.5362682  23.6719856  38.3699493  30.5896969  24.7737961
  40.0801277  29.3915882  24.0960426  40.3021584  29.2676220  22.8823986
  41.0458488  29.3253784  24.9152470  35.6905594  29.4286098  25.4967480
  35.5668755  30.6403008  25.4278526  34.9895134  28.5326004  24.7245045
  35.2999458  27.5722446  24.7625790  33.9176598  28.9595776  23.8252277
  34.3010559  29.7881413  23.2297554  33.5815277  27.8319931  22.8385487
  34.5059547  27.5954227  22.3116951  33.3384018  26.9431152  23.4206886
  32.5527954  28.2570362  21.7649326  32.3243752  27.3671112  21.1784534
  31.6338692  28.6810360  22.1697788  33.1974144  29.2368069  20.7642708
  33.4115295  30.2082500  21.2098637  34.0586128  28.6795731  20.3955765
  32.3171349  29.5483055  19.6507378  31.7590141  28.7236137  19.2074699
  31.4990864  30.1310673  20.0741596  32.9661751  30.3502865  18.5514317
  33.3271217  31.2595062  18.8027039  33.6810303  29.7218628  18.2135448
  32.3229713  30.5620213  17.8020592  32.6882324  29.4204979  24.6433735
  32.1725731  30.5210075  24.4139786  32.2655945  28.7625389  25.7048359
  32.8807564  27.9877796  25.9083652  31.1948414  29.0099545  26.7054691
  30.2760525  29.1184254  26.1291370  31.1539116  27.8976212  27.8055477
  32.1717949  27.6624222  28.1165123  30.2724476  28.3324451  28.9432697
  30.4923534  29.3138409  29.3635120  29.2442341  28.2665596  28.5875473
  30.2412262  27.6341152  29.7796116  30.6764069  26.6160908  27.0897007
  29.6660480  26.7538204  26.7045937  31.2651672  26.4107628  26.1956635
  30.6073170  25.4785080  28.0745697  30.3177223  24.6225662  27.4649773
  31.5767746  25.2906666  28.5360584  29.9379730  25.6369133  28.9201393
  31.4134998  30.4895649  27.1860352  30.4930286  31.2709293  27.1307812
  32.6750717  30.7626133  27.6286469  33.3132515  30.0149937  27.8607922
  33.0398560  32.0633812  28.0862350  32.3382149  32.4249611  28.8379421
  34.4255867  31.9959583  28.7874413  35.2298393  31.6237488  28.1528225
  34.8671227  33.3665199  29.2887897  35.7680435  33.3972778  29.9015713
  35.1671638  33.9476891  28.4168262  34.0049591  33.8250160  29.7731094
  34.2684250  31.0672989  30.0260220  33.8344383  31.6947460  30.8045235
  33.6287880  30.2054539  29.8357697  35.5882301  30.5255566  30.5760536
  36.1170273  29.8598366  29.8939342  36.2438354  31.3485279  30.8606529
  35.4472618  29.9753571  31.5063801  33.0199928  33.1773796  27.0317478
  32.5915833  34.2949638  27.3425179  33.5161018  32.9555473  25.8148861
  34.0041618  32.0835800  25.6680050  33.5424690  34.0398827  24.8311348
  33.7771263  34.9302979  25.4144020  34.6929626  33.7390747  23.9185734
  35.6620140  33.5431938  24.3775654  34.4752197  32.7425919  23.5342464
  35.0293770  34.5825691  22.6772804  36.0540428  34.4380531  22.3348198
  34.2302094  34.1988754  22.0430813  34.7665100  36.1198692  22.8720341
  34.4782829  36.8373642  21.9105644  35.0271225  36.6594620  23.9870148
  32.1723442  34.3597336  24.1500950  31.9223213  35.4515038  23.6168842
  31.2913265  33.4076538  24.2896519  31.5661449  32.5201950  24.6858711
  29.9071617  33.4099617  23.7859936  29.8944149  34.1368866  22.9738903
  29.3674335  32.0492668  23.3671532  29.4108276  31.3732548  24.2211018
  28.3294544  32.1185989  23.0417385  30.1891117  31.5119362  22.2078056
  31.2395725  31.8023968  22.1914711  30.0460892  30.4334354  22.2747250
  29.6172371  32.0476418  20.9333191  29.5965214  31.2596550  19.9495964
  29.0584297  33.1856651  20.8367290  28.9392948  33.9497299  24.8969707
  28.0110569  34.5852356  24.5737286  29.1370544  33.6492081  26.1650333
  29.9000320  33.0167618  26.3599052  28.3748055  34.1063843  27.3571472
  27.3980293  34.4810028  27.0510979  28.0147114  32.9459686  28.2860527
  28.9576778  32.5256729  28.6357193  27.4414997  33.3217926  29.1335697
  27.2145042  31.8861084  27.5082760  26.0516605  32.0265083  27.2464809
  27.7701340  30.8021183  27.0647621  27.1848984  30.0804825  26.6687241
  28.7711506  30.6712914  27.0339336  29.0435352  35.2997971  28.0936565
  28.4640541  35.7621346  29.0862007  30.1680012  35.8127403  27.5793114
  30.3951054  35.3423538  26.7148685  31.1139374  36.8417969  28.0447426
  32.0488625  36.8113327  27.4851933  30.5531216  38.1745338  27.6560841
  29.7284546  38.4094086  28.3290310  31.2832661  38.9768944  27.7619839
  29.8728294  38.1127243  26.2735043  30.5143890  37.7863426  25.0577850
  31.5044518  37.6438103  24.9179325  29.5273476  37.7344704  24.1008320
  29.7399693  37.4783707  23.0734062  28.3344860  38.1238937  24.6441956
  27.4770813  38.1799545  24.1133347  28.5700245  38.3061447  26.0146236
  27.8030128  38.3891945  26.7703991  31.5315266  36.6778984  29.5606880
  31.5677528  37.6798630  30.2976856  31.8217659  35.4487801  30.0131531
  31.8536301  34.7364540  29.2978363  31.5977650  35.0527840  31.4574528
  30.7544632  35.6736641  31.7598724  31.3043919  33.5719070  31.6621494
  32.1705093  32.9218559  31.5381241  30.7408524  33.3357201  33.0690422
  31.4522133  33.5498581  33.8666725  29.8940296  33.9985046  33.2471046
  30.5424118  32.2714233  33.1955414  30.2981110  33.2420998  30.7194347
  29.4951916  33.6273460  31.0779114  32.8309517  35.5489998  32.2766037
  34.0195770  35.5271873  31.8902664  32.6645889  35.8360329  33.6000099
  31.7345753  35.9829063  33.9655266  33.7647820  35.8257561  34.5871849
  34.7033730  35.3687859  34.2736168  34.1642265  37.2895470  34.7658157
  35.2034531  37.2659607  35.0937538  33.9892731  37.8189163  33.8291931
  33.4177132  37.9995308  35.8129845  32.3734856  37.7924995  35.5788193
  33.6764870  37.5619431  36.7771683  33.6339684  39.5507469  35.7684402
  34.6970139  39.7865677  35.8177071  33.2028542  39.9817848  34.8648682
  32.9081459  40.1154022  37.0139618  33.0770416  39.4280739  37.8429070
  33.3367538  41.0909805  37.2433891  31.4295235  40.2929153  36.7858963
  31.1382198  40.8625984  36.0044212  31.0670471  39.3703995  36.5917816
  30.8972301  40.5657616  37.5997238  33.3628235  35.1282425  35.9062233
  32.2027588  35.0988693  36.2693672  34.3086510  34.5500793  36.7020378
  35.6790123  34.4443436  36.3173561  36.0875435  35.4434319  36.1656036
  35.7481041  33.6830292  35.5403519  36.3334694  33.7815323  37.5152779
  36.4948578  34.5766296  38.2431984  37.2278862  33.2758789  37.1513634
  35.3559380  32.8435326  38.1647377  35.6380577  32.8150597  39.2172089
  35.5277901  31.8035793  37.8871384  33.9900703  33.4369354  37.6675911
  33.4351006  32.7249374  37.0567207  33.1673546  33.9157295  38.8939476
  32.3911476  33.0822754  39.4333496  33.3260117  35.1381836  39.4257545
  34.0265388  35.7470055  39.0273819  32.4570007  35.5885010  40.5149002
  32.6550751  35.0165138  41.4213753  32.8344536  37.0283890  40.8183708
  33.9083252  36.9953690  41.0022430  32.4934349  37.7133942  40.0421104
  32.1841049  37.5326309  42.1131821  31.9347172  36.7806664  42.8618202
  32.9024620  38.1206856  42.6843681  31.0347824  38.3675652  41.8209648
  29.9464569  38.0472565  42.3750687  31.2103367  39.4362831  41.2331886
  30.9108276  35.6263809  40.1742477  30.1593819  35.3660812  41.0668831
  30.5472298  35.6537514  38.8790283  31.1823769  35.9626694  38.1570473
  29.2042027  35.5777969  38.4299431  28.5961571  36.1497955  39.1307983
  29.1264248  36.2093658  37.1051140  29.8954353  35.8413277  36.4259453
  28.1388016  36.0433998  36.6748199  29.2968426  37.7170715  37.0893135
  28.8729343  38.3746719  38.0391808  29.6521702  38.3220291  36.0329819
  28.6920643  34.1405602  38.3655472  27.4996624  34.0309067  38.4367294
  29.5697231  33.1544800  38.3682823  30.5263405  33.4440002  38.5137520
  29.1992741  31.7634296  38.4900284  28.3628769  31.5897980  37.8129768
  30.4010162  31.0245495  37.8978577  31.2882462  31.0201740  38.5310249
  30.1153603  29.4689865  37.7972565  29.2186451  29.3528385  37.1885529
  30.9302921  28.9276943  37.3166428  29.9208298  29.0743637  38.7945213
  30.8566017  31.3411293  36.4939270  31.7500343  30.7391930  36.3279381
  30.1609173  31.0479069  35.7077065  31.0746708  32.3980789  36.3409843
  28.8385735  31.2852554  39.8931046  29.4550781  31.6496964  40.8677559
  27.7892418  30.5521297  40.0344429  27.3973236  30.2502956  39.1538734
  27.1824951  30.1685276  41.3155899  27.3750248  30.9543800  42.0459824
  25.6873569  30.0028114  41.1362305  25.5009899  29.4667969  40.2056084
  24.9320793  29.2420197  42.2337341  25.1319256  29.6239853  43.2348671
  23.8534946  29.3263912  42.1009216  25.2355614  28.1952076  42.2475624
  25.0328274  31.3652344  41.0875473  25.4734268  31.9981766  40.3172493
  23.9587154  31.2782402  40.9237862  25.1387062  31.8473778  42.0593605
  27.7984772  28.8891125  41.7698402  28.1695042  28.7823715  42.9662437
  27.8423538  27.9283524  40.8149872  27.4866219  28.2276096  39.9183273
  28.4455891  26.5119934  40.9559517  29.4758129  26.5967083  41.3017502
  27.6095676  25.6826534  42.0029678  28.2212238  24.8963337  42.4453239
  27.5071278  26.3582783  42.8521729  26.2098770  25.1285553  41.5776405
  25.6084538  25.9907074  41.2893906  26.3118839  24.3930397  40.7796974
  25.6059380  24.4365215  42.8252487  25.9237537  24.6721897  43.9840775
  24.7106457  23.4640388  42.6927681  24.1868000  23.1642933  43.5026054
  24.3150406  23.2629471  41.7854843  28.5389271  25.8028545  39.5457802
  27.8118858  26.1776390  38.6033401  29.3253193  24.7145596  39.5158539
  29.8735466  24.4209251  40.3116722  29.3896027  23.8913193  38.2806320
  28.5376797  23.9607315  37.6042366  30.6241360  24.3100796  37.4847488
  30.4605103  25.3234692  37.1181755  31.4256802  24.3847980  38.2196236
  31.1303902  23.6279335  36.2769432  31.3153591  22.6332703  36.6825676
  30.4865093  23.5683689  35.3994637  32.6727180  24.2636051  35.5563850
  32.3020668  25.8979836  34.9415970  33.2550964  26.2488995  34.5457497
  31.5640621  25.8064041  34.1446838  32.0154800  26.5299110  35.7822151
  29.3729401  22.3246040  38.5098114  29.7813911  21.8229256  39.5192986
  29.0313702  21.6147346  37.4021339  28.5340748  22.1504517  36.7051392
  29.0869446  20.1473827  37.2960014  29.7649765  19.7016792  38.0238190
  27.6556892  19.6098461  37.3699570  27.2010612  20.2058029  36.5785980
  27.6576004  18.5595055  37.0786018  26.8875561  19.7038155  38.7247734
  26.6925716  20.7415276  38.9953880  25.5388546  19.0588150  38.6311188
  25.0622520  19.0790882  39.6111870  25.0246468  19.6522274  37.8751068
  25.5618820  17.9979038  38.3820419  27.5650616  19.0586758  39.9018326
  28.4057388  19.7099705  40.1409454  26.9456882  19.0162449  40.7977524
  27.9364777  18.0657616  39.6483154  29.8072510  19.7731323  35.9647179
  29.5354500  20.3973427  34.9492950  30.4275284  18.6335869  35.9792442
  30.4569397  18.1268749  36.8524475  30.9106007  17.9340096  34.7016563
  30.3085079  18.3969097  33.9197960  32.4352875  18.2386589  34.4781189
  32.9763565  17.9866638  35.3901749  32.7544518  17.5756359  33.6739845
  32.6313553  19.6795425  34.0795593  31.6684666  20.0857563  33.7698212
  33.1534462  20.4045601  35.2722511  32.3709602  20.4278336  36.0307121
  34.1930199  20.2459736  35.5590210  33.2710266  21.4551678  35.0067291
  33.4966698  19.6838150  32.8762360  33.5697479  20.7401505  32.6175652
  34.4912453  19.2825394  33.0709000  33.0652733  19.2119541  31.9934349
  30.5192776  16.4614067  34.6728287  30.3565216  15.8367662  35.7549782
  30.4453735  15.8576822  33.4965363  30.5869331  16.3270931  32.6135216
  30.1585312  14.4154100  33.3023071  30.6461849  13.8618727  34.1047363
  28.5962925  14.0657778  33.3721390  28.4581566  12.9958038  33.5276222
  28.2526150  14.4981728  34.3118362  27.9404259  14.8694677  32.3572464
  27.6763477  14.2729168  31.6529827  30.6251144  13.8078985  31.9591007
  30.8746662  14.5144148  30.9766159  30.9743195  12.5344915  32.0098000
  30.7920628  12.0257759  32.8630829  31.4968796  11.8525620  30.8011894
  31.0157356  12.3458281  29.9566231  33.0598679  11.9173632  30.6253700
  33.3355293  11.6082926  29.6171131  33.4697227  12.8959503  30.8753471
  33.4602051  11.1619921  31.3015671  31.0216656  10.3621864  30.5978889
  30.7882404   9.6808701  31.6276684  31.0985050   9.8050985  29.3599625
  31.5497246  10.3025351  28.6056023  30.5797291   8.5080223  29.0327969
  29.5469131   8.3819504  29.3575993  30.4387760   8.3432283  27.4674282
  30.1625805   7.3072715  27.2709312  29.3090515   9.1767292  26.9742355
  29.5044746  10.2237444  27.2058830  29.2749386   8.9157906  25.9164772
  28.2809868   8.9269772  27.2365398  31.6725063   8.6695700  26.7393780
  32.1822243   7.8867760  26.5179729  31.4771748   7.2698531  29.4677124
  32.6890640   7.3769784  29.6689739  30.9009228   6.0539632  29.5867329
  29.5013142   5.7277293  29.5217648  29.1815739   5.5779309  28.4905396
  28.8199539   6.4959135  29.8874760  29.2753792   4.4683146  30.3370476
  28.4577236   3.8909216  29.9055901  28.9614201   4.8048978  31.3250999
  30.5612698   3.7356300  30.2355881  30.5190315   2.9896088  29.4420090
  30.9972801   3.1909046  31.0730057  31.6305275   4.8170018  30.0613518
  32.0583992   5.0757823  31.0298862  32.7133141   4.2116046  29.2182827
  33.2982025   3.1906943  29.5889587  33.1173172   4.9193187  28.1573696
  32.6970901   5.8356943  28.0960159  34.4250526   4.6984658  27.4598255
  34.7720757   3.6945436  27.7043972  34.3142929   4.7177658  25.9275627
  35.1823578   5.0846100  25.3798466  34.1282005   3.7116303  25.5518456
  33.1671638   5.5223374  25.3100262  32.5079269   5.0390687  24.3262672
  32.8593674   6.6371169  25.7875462  35.5165329   5.6560764  27.8389473
  36.6567688   5.4982085  27.3421669  35.2806358   6.6461482  28.7469864
  34.4098053   6.6162143  29.2577324  36.1356239   7.7004709  29.3074951
  37.1440315   7.5712309  28.9144154  35.6774750   9.1062593  28.7885685
  34.6301765   9.1332254  29.0894623  36.1565475   9.9038324  29.3564377
  35.7359314   9.3312960  27.2599602  35.1015778   8.6008797  26.7577763
  35.2398758  10.7815952  26.9575920  35.0590134  10.7120247  25.8849564
  34.2784233  10.9660215  27.4368649  36.0502625  11.4221258  27.3055801
  37.2169151   9.2756500  26.6866798  37.5549393   8.2604904  26.8947525
  37.1562729   9.3882332  25.6042061  37.8322525  10.0520115  27.1413498
  36.2868881   7.5785966  30.8266830  35.2952690   7.6856875  31.5576992
  37.5567207   7.2468109  31.2715855  38.2412186   7.0143423  30.5662308
  37.9503593   6.7864971  32.6198959  37.2207184   7.2153029  33.3068123
  37.7777367   5.2610331  32.6903954  38.4243851   4.8466778  31.9169235
  38.2243118   5.0392494  33.6596680  36.3555527   4.7157364  32.6406708
  35.3268661   5.0020728  33.4636307  35.3810501   5.6761904  34.2137833
  34.2827263   4.2305474  33.0721130  33.3463211   4.2132244  33.6099281
  34.6335831   3.5433455  31.9856434  34.0739403   2.9577305  31.3823566
  35.9506531   3.8519144  31.6552200  36.5360298   3.5233696  30.8091736
  39.2555809   7.3221488  33.1440163  39.5024605   7.1287374  34.2870140
  40.1346397   7.8912106  32.3524323  39.9388123   7.9836960  31.3659248
  41.4442406   8.4147100  32.7846565  41.9921684   7.5014167  33.0165443
  42.0978928   9.0112152  31.5301418  41.4539833   9.7946520  31.1305008
  43.0634804   9.4912825  31.6891289  42.2219696   8.1807346  30.8351536
  41.3649330   9.4243145  33.9109497  42.0172768   9.3403454  34.9431572
  40.6181412  10.5222921  33.7248650  39.9812355  10.4884672  32.9417229
  40.7542915  11.8033495  34.4802895  41.0548592  11.4915199  35.4805489
  41.7718697  12.6858873  33.8898888  42.6425629  12.0944881  33.6066093
  41.3274078  13.4488859  32.6317902  41.0324974  12.7423878  31.8559132
  40.5384865  14.1382580  32.9325676  42.2192726  14.0116673  32.3561668
  42.3184013  13.7719374  34.8926086  43.2922592  14.0190277  34.4699249
  41.6337128  14.6170330  34.9641266  42.4024734  13.3768349  35.9049988
  39.3500023  12.4018145  34.6946144  38.5240746  12.2615232  33.7678871
  39.1473656  12.9698591  35.9308357  40.0074196  13.1314850  36.4351044
  37.9846916  13.7742376  36.1956100  37.0623970  13.2707119  35.9058876
  37.9325104  14.1065006  37.7087708  38.8281479  14.5983944  38.0882149
  37.1552391  14.8429861  37.9125710  37.6910858  12.9491739  38.6613960
  36.3675270  12.4021482  38.8527145  35.4497528  12.8463097  38.4966125
  36.2644196  11.2933245  39.7060356  35.3277817  10.8289852  39.9771538
  37.3555489  10.7321873  40.3663292  37.2408028   9.8877077  41.0297203
  38.6315689  11.2712545  40.1807899  39.3938637  10.8061008  40.7881927
  38.7796974  12.4008360  39.3708458  39.7982559  12.7386084  39.2489624
  38.0519218  15.1234932  35.4172363  39.0153465  15.8673897  35.6703949
  37.0808334  15.5353746  34.5694580  35.9248657  14.8228531  34.1824875
  35.3059196  14.6444397  35.0617905  36.0749474  13.9052401  33.6136513
  35.1349449  15.7255917  33.3026466  34.6660233  16.3839741  34.0339050
  34.4389191  15.2058029  32.6442604  36.2237740  16.3739452  32.5254631
  35.9546165  17.3579140  32.1414604  36.6282425  15.7594643  31.7211494
  37.3277359  16.5852585  33.5672646  38.3295403  16.4063053  33.1767845
  37.5629807  18.0222092  34.0798912  38.0909653  18.9342995  33.3984146
  37.2006950  18.1369076  35.3757057  36.7480698  17.2746201  35.6434555
  37.1222191  19.3404808  36.2132301  36.4969444  20.0736675  35.7037468
  36.4611855  19.0384254  37.5501747  36.9711533  18.1742687  37.9759331
  36.4561195  19.9693890  38.1170845  35.4396973  18.7079544  37.3618851
  38.4822731  20.0731773  36.3237572  38.3977547  21.3096771  36.5018730
  39.6511955  19.4779434  36.1546822  39.5939407  18.4714699  36.2165871
  40.9181061  20.1717434  36.2806015  41.0823593  20.6775837  37.2320480
  41.9432487  18.9823399  36.2038689  41.7843056  18.4031944  37.1135025
  41.8661613  18.3359890  35.3295784  43.3381157  19.5301723  36.3589668
  43.6441841  19.8997631  35.3802795  43.2402382  20.4541054  36.9289360
  44.4100571  18.5693989  36.8587189  43.9511185  18.2159557  37.7820587
  44.6884613  17.7485943  36.1977577  45.6682549  19.2870541  37.2625580
  45.4804268  19.9866142  38.0770721  46.3539543  18.5209122  37.6244240
  46.3531799  20.0245457  36.0755081  46.9840584  19.3561974  35.6566963
  45.6801414  20.4002533  35.4228516  46.8721733  20.8017597  36.4585037
  41.1140938  21.3028984  35.2220764  41.7682152  22.3179569  35.4426956
  40.4698334  21.2010670  34.1268349  39.8488655  20.4052429  34.0927277
  40.4627724  22.2305641  33.0812531  41.4815598  22.6129665  33.0184669
  40.0184441  21.6295242  31.7342319  40.7949677  20.9614334  31.3617077
  39.0981712  21.0755405  31.9194298  39.9014435  22.3978004  30.9699268
  39.5360909  23.4666233  33.4918289  39.5712776  24.4973545  32.8219719
  38.9072838  23.4761543  34.6735039  38.7984352  22.5790558  35.1245766
  38.3368835  24.7323227  35.2638168  38.0095482  25.3326778  34.4149818
  37.2049255  24.3833256  36.2500763  37.6273727  23.8648891  37.1108093
  36.5827675  25.6613121  36.7833595  35.6928635  25.6189785  37.4113503
  37.3275719  26.2730236  37.2924500  36.1366959  26.2005405  35.9476814
  36.0894012  23.4800739  35.6523972  35.4012108  22.9932747  36.3434219
  35.5456696  24.0107269  34.8708191  36.5954056  22.6975899  35.0869102
  39.4456978  25.5236549  35.9525757  39.5890770  26.5781956  35.4954033
  40.1118813  24.8571377  36.9046288  39.7266235  23.9589577  37.1594734
  41.1691933  25.6254253  37.6209412  40.8188820  26.6282654  37.8652649
  41.3796654  24.9498558  38.9921303  42.0393600  25.5871086  39.5810394
  40.4928360  24.8556004  39.6188278  42.0458641  23.5340309  38.8728638
  41.5157166  23.0181293  38.0723076  43.0550117  23.6639767  38.4819221
  42.2645836  22.7096729  40.1870575  43.1308289  23.1622372  40.6696587
  41.3758507  22.7787323  40.8143387  42.6792412  21.2556534  39.9393845
  43.6470718  21.0063000  40.0850792  41.8439064  20.2833004  39.7087975
  40.5547256  20.4867897  39.5239677  39.9688950  19.6905365  39.3168640
  40.0450211  21.3230057  39.7710419  42.1901588  19.0063629  39.5763474
  41.5308189  18.2945862  39.2957306  43.0418625  18.6894016  40.0170708
  42.4853020  25.8366280  36.9241486  43.3930435  26.4587822  37.5719872
  42.5894051  25.6120281  35.6519508  41.7825661  25.1976032  35.2076950
  43.6059456  26.0786991  34.7232513  44.5416031  25.8355293  35.2267570
  43.4389839  25.2722645  33.4277267  43.2863159  24.2201881  33.6684074
  42.4860802  25.4848137  32.9430542  44.6023674  25.5788536  32.4536209
  44.1259041  25.6830254  31.4788208  45.0925217  26.5105114  32.7362137
  45.6812439  24.4069519  32.3448143  45.6811104  23.6111679  33.3748665
  46.4359741  24.2597427  31.3197441  43.5089912  27.6195927  34.6143913
  44.5041351  28.3233280  34.6822701  42.2906799  28.1390762  34.5882492
  41.4978218  27.5561218  34.8155060  41.9447212  29.5429211  34.4039383
  42.6322899  30.0960865  33.7641296  40.5026054  29.5942860  33.7369576
  39.8443604  29.1344891  34.4741173  40.3767929  30.6397419  33.4553719
  40.3873901  28.8589458  32.3250465  40.8554573  27.8745842  32.3317566
  38.9436989  28.7151890  32.0314407  38.3515663  29.6261730  32.1185455
  38.7717743  28.3253059  31.0281792  38.4724388  28.0604954  32.7645111
  40.9723282  29.6778622  31.1754074  41.9738312  30.0182133  31.4385662
  41.2260895  29.0368710  30.3311119  40.3931084  30.5219135  30.8009930
  41.9363022  30.1860638  35.7774849  41.7008247  29.5881958  36.7959442
  42.2313805  31.5308075  35.7672272  42.5435982  31.9191208  34.8886833
  42.4083786  32.3306618  37.0114784  42.9849396  31.8390350  37.7950478
  43.1947899  33.6706390  36.8067665  42.6776619  34.4672546  36.2719002
  43.3577957  34.0728531  37.8066444  44.4077110  33.3385048  36.0972939
  44.1410255  33.1791687  35.1889458  41.0378723  32.6240730  37.7045708
  40.0390053  32.9570427  36.9918518  41.0202446  32.7057076  39.0761299
  41.9077530  32.5603104  39.5357895  39.7523270  32.8309860  39.8585548
  39.8983574  33.0526886  40.9157295  39.2208557  33.7055931  39.4834480
  38.7993698  31.5973053  39.7906303  37.9830093  31.3618984  40.7341690
  38.8020668  30.8586864  38.7092514  39.5040817  31.1190052  38.0313797
  38.0402794  29.6358871  38.4036636  37.0082664  29.8965225  38.6384239
  38.1247063  29.2796650  36.9363403  39.1509895  29.3702106  36.5804710
  37.7476883  28.2571659  36.9149437  37.3031960  30.1892624  36.0961227
  37.8136177  31.2623672  35.4790497  38.8480873  31.5691643  35.5253792
  36.8952484  31.7895088  34.5859756  36.9979820  32.5609131  33.9421692
  35.6680489  31.2035446  34.6632080  34.4435539  31.4222870  34.0416756
  34.3550644  32.2252083  33.3248100  33.4714012  30.3643646  34.1802177
  32.5516891  30.5227642  33.6366692  33.7595863  29.2042122  34.8758850
  33.0206604  28.4173698  34.9115028  34.9790192  29.0178204  35.6221924
  35.1600533  28.1033936  36.1675835  35.9920654  30.0724640  35.5379524
  38.4516411  28.5235367  39.3243256  37.6185303  27.6315842  39.5370560
  39.5618515  28.5415173  40.0153198  40.2683678  29.2103729  39.7440834
  39.8280525  27.6508980  41.1485558  39.6817131  26.6308746  40.7932587
  41.2767181  27.6996155  41.6474419  41.4422646  26.8283863  42.2812080
  41.8963394  27.6192989  40.7542915  41.6612396  28.9842262  42.4001350
  40.9116669  29.3688736  43.0917206  42.5165749  28.9097157  43.0716591
  42.0949402  30.1497898  41.5234756  41.8847351  30.1767712  40.2896652
  42.7203712  31.1957531  42.0253830  43.0996590  31.8600445  41.3658676
  42.7734985  31.2572613  43.0321121  38.8935089  27.8787689  42.3695183
  38.8797722  26.9411201  43.2511482  38.0453262  28.9130363  42.3930397
  38.2124138  29.6706448  41.7463455  37.0159569  29.2591934  43.4086914
  37.1019058  28.5558758  44.2369804  37.3004761  30.6869316  43.9345627
  37.0890617  31.3465385  43.0929451  36.5661774  30.8194828  44.7291374
  38.6677933  30.9686508  44.5612793  39.0601311  30.2036438  45.6600189
  38.3544273  29.5236111  46.1138229  40.3143082  30.3199654  46.2688675
  40.5989151  29.6880360  47.0971603  41.2174683  31.2427292  45.7509880
  42.3830643  31.3124752  46.3140564  42.5785675  30.4185600  46.6043892
  40.8118248  32.0498848  44.6209259  41.5044289  32.8035278  44.2763634
  39.6017075  31.8961735  43.9771881  39.3097382  32.4406929  43.0913773
  35.6012497  29.0387383  42.8334084  34.6861916  29.4761448  43.5187569
  35.3795891  28.3563328  41.7537880  36.1224785  27.9620819  41.1945229
  34.0637665  27.8767376  41.2316818  33.2880135  28.5189075  41.6487312
  33.8470802  28.0486221  39.7069168  34.7079315  27.6434422  39.1750679
  32.6488876  27.3121204  38.9868660  31.6851273  27.6771660  39.3418388
  32.6779060  27.4316998  37.9038353  32.7141914  26.2528114  39.2352600
  33.7468338  29.5548115  39.3162766  34.6522217  30.0243359  39.7008896
  33.8525391  29.8170834  38.2635918  32.8121948  30.0274315  39.6182289
  33.8179131  26.4676991  41.6487465  34.6057587  25.6230907  41.2703094
  32.8609581  26.1740456  42.5191154  31.7474289  27.0174122  42.9365845
  31.1631966  27.4202843  42.1092606  32.1111374  27.7662926  43.6401405
  30.8207779  26.1381493  43.7697601  29.9730358  25.7070198  43.2372589
  30.4421501  26.7521133  44.5869446  31.8254375  25.0738392  44.3043976
  31.3471298  24.1424980  44.6075821  32.2918282  25.4137630  45.2290764
  32.8237572  24.8739796  43.1501923  33.7947083  24.6611958  43.5974922
  32.4123535  23.8007946  42.0947380  31.5024109  24.1172619  41.3196907
  33.0008469  22.5636692  42.1381416  33.8792496  22.4598446  42.6257133
  32.6848412  21.6194496  41.0819588  31.6325855  21.7649174  40.8376236
  33.4220428  21.9326515  39.7810669  33.0897942  22.9031544  39.4125099
  34.9821930  22.1603928  39.9547348  35.4607124  21.1871986  40.0643463
  35.4377480  22.7071457  39.1291237  35.2212677  22.6865177  40.8789368
  33.3050766  20.8708057  38.7073860  33.6581497  19.8741074  38.9720078
  32.2510223  20.9138508  38.4331207  33.9671516  21.2243862  37.9169807
  32.8380280  20.1877117  41.5935326  33.5431252  19.9548893  42.5098991
  32.1018105  19.2798653  41.0359230  31.5111542  19.5692482  40.2694473
  32.1809921  17.8542194  41.2804565  33.1689186  17.4994221  41.5740852
  31.4046059  17.4798851  42.6328239  31.4583130  18.3285370  43.3147392
  29.9850235  17.0530243  42.3924980  29.5277805  16.9864597  43.3797150
  29.3820534  17.7475986  41.8076096  29.8507576  16.0797195  41.9205322
  32.1004906  16.3929615  43.3289948  32.0643654  15.6444111  42.7290230
  31.6933861  17.1418877  39.9902954  30.8171902  17.7035446  39.3038559
  32.1321831  15.9743395  39.7514877  32.8774490  15.4945536  40.2357216
  31.9154167  15.3029737  38.4886055  31.5550709  16.0256462  37.7564850
  33.2122269  14.7090187  37.9887238  33.4223022  13.9861965  38.7770767
  33.0405769  14.1842699  37.0488968  34.5488548  15.9011536  37.8745575
  34.7530823  16.2358437  39.1517296  30.8553352  14.1679153  38.5725784
  31.0504932  13.0797672  39.0802689  29.6651249  14.4556036  38.0262451
  29.6040916  15.2639694  37.4238167  28.4766750  13.6193399  38.1640739
  28.4903736  13.2205887  39.1784248  27.1282597  14.3915405  38.0548325
  26.2981339  13.9231443  38.5836067  27.3874073  15.2760201  38.6367607
  26.8424129  14.8327045  36.6132584  27.7657528  15.3238659  36.3061714
  26.7207432  13.9045992  36.0547638  25.4757938  16.0087299  36.4740677
  25.2762966  16.3008175  34.7647896  24.7007904  15.4933844  34.3120842
  24.8390121  17.2744331  34.5435333  26.2590981  16.2444153  34.2967949
  28.6713104  12.4198380  37.2534180  29.1810379  12.6260347  36.1651726
  28.2567368  11.2288933  37.6611023  27.8484554  11.0842428  38.5735092
  28.1696835  10.0836124  36.7490234  29.1020985  10.0275269  36.1872787
  27.9414177   8.7780304  37.6385345  28.7790070   8.7544785  38.3356628
  27.0894909   8.9946041  38.2830658  27.8534412   7.4228129  36.9530182
  27.7987785   6.6614928  37.7311592  26.9345036   7.4147420  36.3668556
  28.9025688   6.9962692  36.0556984  30.0577393   6.9145207  36.3733063
  28.4877453   6.7506652  34.8661575  27.5310841   6.8586025  34.5607872
  29.1853752   6.9483347  34.1630630  27.0997276  10.1785517  35.6451569
  25.9553413  10.5703077  35.8091888  27.5178604   9.8150587  34.4109573
  28.4401703   9.4163008  34.3087845  26.7774296   9.8539495  33.1356316
  26.0985203  10.7007875  33.2358742  27.6534386  10.0281210  31.9467392
  28.4941730  10.6809597  32.1814041  28.1934834   9.1113777  31.7100220
  27.0726929  10.5614119  30.6245213  27.8439751  10.5213604  29.8553524
  26.2233238   9.9296665  30.3645744  26.6310349  11.9770250  30.7587109
  25.4531689  12.2079048  31.0469170  27.5238552  12.8607626  30.7284222
  25.8633957   8.5771933  32.9136086  26.3113995   7.4235859  33.1629333
  24.6720943   8.7154179  32.3702507  24.2972431   9.6527405  32.4020615
  23.7987423   7.6235580  31.9723797  23.4961605   6.9474006  32.7719765
  22.4752522   8.3409920  31.4257317  22.7362213   9.2703953  30.9195614
  22.0319405   7.7315636  30.6382217  21.4290905   8.6662922  32.4514542
  21.2917042   7.8064451  33.1071129  21.7633457   9.4678631  33.1101418
  19.9042130   9.0457563  31.7139225  19.2503700   7.3599753  31.4630527
  19.8363552   6.5778084  30.9804230  18.9254417   6.9422526  32.4159584
  18.3351898   7.4987774  30.8874855  24.4254608   6.7452912  30.8321171
  25.0509014   7.2027731  29.8819542  24.2715664   5.4654365  30.9442310
  23.6793327   5.0942235  31.6733150  24.4102612   4.6114011  29.7356052
  25.1939201   5.0579123  29.1235542  24.9878654   3.2088215  30.0423927
  25.9694805   3.3216403  30.5026150  24.3237133   2.7183692  30.7540531
  25.0933685   2.4252222  28.7510490  25.2026806   2.9530747  27.6269112
  24.9696712   1.1696578  28.8212891  23.0808258   4.5475750  28.9836311
  22.0792503   4.0414186  29.4573250  23.0390263   5.2148418  27.8222485
  23.9229031   5.5975223  27.5182419  21.8299446   5.2002382  26.9628201
  21.1421623   4.4445634  27.3423042  21.1740494   6.5425000  26.8391514
  21.8885059   7.3108745  26.5437469  19.9580917   6.5784621  25.8899174
  19.4495411   7.5424051  25.8729267  20.3511658   6.2729611  24.9202461
  19.1715164   5.8710380  26.1524925  20.7079430   6.9808545  28.1802845
  21.5996761   7.1233191  28.7907124  20.1241169   7.8961282  28.0827084
  19.9484005   6.3460283  28.6365681  22.0569324   4.5305390  25.6231518
  23.0672855   4.7668829  24.9797878  21.0928593   3.6653106  25.1965981
  20.2499599   3.7470796  25.7469940  21.2964497   2.8564403  23.8906651
  22.1748028   2.2112968  23.9102764  20.0600834   1.9201075  23.8394318
  20.0420265   1.3945485  24.7941952  18.7639503   2.5493858  23.5374012
  18.5193691   3.2926292  24.2962551  18.6973286   2.9802024  22.5383720
  18.0200005   1.7592438  23.6389465  20.3392696   1.1888371  22.7246151
  21.0504780   0.5705271  22.9075851  21.3678093   3.7156928  22.6314240
  20.6111374   4.6831188  22.4486942  22.3875256   3.3641350  21.7831554
  22.8652878   2.5241377  22.0768356  22.7379017   4.1384401  20.5718746
  23.2571602   3.5550706  19.8115120  21.7734394   4.3072739  20.0929031
  23.3414574   5.5055680  20.8374882  23.4279385   6.3765597  19.9778824
  23.5297165   5.8801675  22.1216583  23.2703094   5.1582775  22.7786846
  24.1275959   7.0996699  22.7061481  23.5568562   7.9855485  22.4276218
  24.1803188   7.0246482  23.7922859  25.5749512   7.2037992  22.1764412
  26.1494427   6.1980529  21.7300892  25.9649677   8.4242725  22.0181656
  25.3432980   9.1913567  22.2307892  27.2707462   8.8655481  21.3296928
  27.2909775   8.4807568  20.3100719  27.1779995  10.3599653  21.1476498
  26.4308033  10.4573565  20.3600483  26.6859493  10.7978916  22.0160999
  28.4333515  11.1120720  20.5983620  29.1993847  11.0784492  21.3730621
  28.8742104  10.4026709  19.3669128  29.4660988   9.5594769  19.7229919
  28.0498962  10.0577202  18.7427177  29.5248547  11.0005598  18.7287197
  28.1556358  12.5657787  20.2807541  29.0295658  13.2113390  20.1935825
  27.7366886  12.5354147  19.2749405  27.6537285  13.1056023  21.0837326
  28.4409084   8.3635654  22.1940460  28.5175228   8.6194477  23.4349422
  29.4364300   7.7820506  21.5764046  29.2995205   7.5687857  20.5987167
  30.7227211   7.4184017  22.1024857  30.4806309   6.8472266  22.9987297
  31.3742275   6.2775569  21.3614540  31.6904411   6.6089406  20.3723640
  32.2434654   5.9343185  21.9224472  30.2875576   5.1316195  21.1018162
  29.8531914   4.8498802  22.0610104  29.4588737   5.4609284  20.4749699
  31.0763626   3.9416633  20.5853195  31.5227432   4.1242781  19.6078224
  31.9138699   3.8006694  21.2685509  30.0866032   2.7542326  20.5143948
  29.2594337   3.0085266  19.8516541  30.6322098   1.9119886  20.0889015
  29.5955334   2.1775944  21.8375301  29.1231995   2.9073448  22.3517914
  29.0415268   1.3459924  21.6905041  30.3946056   1.9075198  22.3930874
  31.7537193   8.5331030  22.3616505  31.8557644   9.4972906  21.5919113
  32.5634499   8.3993683  23.4411545  32.4126053   7.6544590  24.1063271
  33.5865669   9.3266010  23.8621578  33.7601852   9.0501356  24.9021206
  34.8361740   9.1864634  22.9578590  34.5308800   9.5144215  21.9642105
  35.5971642   9.7612610  23.4856873  35.4626617   7.7756567  22.9678745
  35.6617966   7.3876419  23.9668179  34.7147789   7.1667881  22.4598846
  36.8017578   7.8502321  22.1042805  36.5147133   8.3090553  21.1581364
  37.4634285   8.5861197  22.5611839  37.4613380   6.4521728  21.9752712
  38.3022499   6.4153161  22.6678123  36.7321320   5.6712098  22.1908073
  38.0811501   6.3081136  20.6536808  37.4375381   6.2118526  19.8812809
  38.7289162   7.0721149  20.5240555  38.6437416   5.4823003  20.5066433
  33.0959549  10.7752447  24.0263710  33.7732811  11.6268396  23.6124687
  31.9815922  11.0281782  24.6854362  31.5659294  10.2976809  25.2455235
  31.4155178  12.3646135  24.9572430  31.8199406  13.1665363  24.3396168
  29.9352245  12.3548479  24.6868668  29.8325748  11.8454609  23.7286968
  29.4968872  11.7811193  25.5034428  29.2866688  14.0537996  24.5622234
  28.0040646  13.7051497  24.4270706  31.5777092  12.8941650  26.3870220
  31.5273895  12.1622353  27.3860760  31.8585663  14.2242517  26.5930653
  31.9277897  14.7051907  25.7076225  32.1389465  14.9700451  27.7534828
  31.9848862  14.4072266  28.6741352  33.6408310  15.4820137  27.8443909
  33.7659454  16.2426987  27.0738010  33.8489151  16.0700474  29.2591133
  33.0679550  16.7502155  29.5990696  34.0332718  15.2575912  29.9619865
  34.7849617  16.6256008  29.3163548  34.7291908  14.4551897  27.5910664
  35.0888252  13.8919258  28.4521694  34.4063416  13.6275797  26.9594574
  36.0273666  15.0349092  26.9321728  35.7692375  15.5342579  25.9983006
  36.3139191  15.8664427  27.5760250  36.7282791  14.2009048  26.8966827
  31.2194118  16.1829815  27.8225346  31.0354080  16.9594364  26.8904362
  30.5486317  16.4301033  28.9699268  30.8434029  15.9405355  29.8027115
  29.4708176  17.4217243  29.1398125  29.5014362  18.1207657  28.3040485
  28.0836353  16.8085880  29.1814041  27.9508858  16.3651199  30.1682243
  27.3362789  17.5849056  29.0174255  27.8412876  15.7290277  28.0398865
  28.0588741  16.1875782  27.0752659  28.5674438  14.9312820  28.1960907
  26.4316025  15.2503099  28.0026054  25.6894722  15.8188114  27.4421158
  26.4146786  14.3074408  27.4559689  26.0084457  14.7374516  29.3034077
  26.6012135  14.1214714  29.8412704  25.1274014  15.3015184  30.0694065
  24.4131393  16.3508148  29.6534958  23.7912693  16.7418919  30.3466301
  24.0929127  16.4288521  28.6987877  24.8964405  14.8979044  31.3207512
  24.2786503  15.3251019  31.9959888  25.3402977  14.0227251  31.5598164
  29.7881870  18.3923340  30.2786770  30.5899258  18.0419502  31.1918621
  29.1615849  19.5652142  30.4678307  28.5625477  19.8124809  29.6931610
  29.2466488  20.5824680  31.5547237  29.5363598  20.0954933  32.4858665
  30.2655258  21.6302776  31.1054115  31.1793213  21.0963917  30.8445568
  29.8512592  22.5323658  29.9041309  29.5321140  21.9548569  29.0365276
  29.0486298  23.1692066  30.2760429  30.6583652  23.2410507  29.7185059
  30.8041992  22.6927433  32.0319595  31.5768623  23.2501888  31.5024853
  29.9894085  23.3276749  32.3799210  31.2824459  22.2458324  32.9035378
  27.8856716  21.2577076  31.6653481  27.1131439  21.3843765  30.6933136
  27.5839043  21.6181526  32.8907051  28.2534828  21.2734070  33.5636940
  26.4496078  22.3852673  33.3404312  26.1082592  22.9917202  32.5015068
  25.3908501  21.4253826  33.8902588  25.0982914  20.6273727  33.2078438
  25.7728863  20.9448357  34.7909393  24.2248154  22.1479225  34.5332146
  23.6779690  21.5431099  35.2565804  24.4474297  22.9794922  35.2018280
  23.0167274  22.5828762  33.3097725  22.5207367  24.1022816  34.1042862
  22.1504574  23.8706989  35.1029587  23.3893337  24.7592335  34.1496391
  21.7298317  24.5517311  33.5038147  26.9556484  23.2911797  34.4880524
  27.5718517  22.8979206  35.4692955  26.5471592  24.5687866  34.4332962
  25.9889431  24.8466797  33.6387711  26.8844318  25.6220074  35.4174347
  26.9937248  25.1715565  36.4039726  28.2020226  26.2238140  34.9708633
  28.5293465  26.9728699  35.6918869  28.9983711  25.4998360  35.1434517
  28.1484032  26.8927994  33.5518494  27.5366535  26.2490997  32.9197769
  27.5434570  27.7945709  33.6464729  29.7065067  27.3508663  32.7888107
  30.2625961  28.6029587  33.9888802  30.0828724  28.3501778  35.0338211
  31.3287163  28.7404518  33.8083611  29.7697773  29.5642548  33.8434792
  25.7153225  26.7456436  35.5249977  25.0581589  27.0870800  34.5332146
  25.5078869  27.2978325  36.7247124  26.0795345  26.9288540  37.4711533
  24.6773186  28.4362297  37.0228233  24.0848713  28.6709061  36.1384964
  23.7494068  28.0531445  38.1387405  23.4578075  29.0083027  38.5754814
  22.5589790  27.4672642  37.5433426  21.8105812  27.1613998  38.2744064
  21.9164944  28.2540092  37.1479340  22.7540836  26.6764202  36.8190498
  24.1998863  27.0029449  39.0365982  24.4934559  26.2917423  38.4624863
  25.5031643  29.6787109  37.2020912  26.5275955  29.7117329  37.8192215
  24.9544983  30.7017689  36.5357246  24.2180462  30.4511051  35.8915939
  25.5771446  32.0552406  36.4288254  26.3120537  32.1535721  37.2277870
  26.2368793  32.1415367  35.0153809  25.4244194  32.0788765  34.2914391
  26.8285542  33.5004539  34.7827568  26.1214619  34.2576485  34.4439697
  27.3491592  33.8401070  35.6781425  27.5373783  33.4110680  33.9595451
  27.3069763  31.0400581  34.8883858  26.9217091  30.0395813  35.0851555
  27.6735821  31.0804291  33.8626785  28.0929699  31.2293587  35.6194649
  24.4915466  33.1644020  36.5343170  23.4224262  33.0622025  36.0014420
  24.8412609  34.2685318  37.2267227  25.7390366  34.2170486  37.6865654
  24.1685810  35.5390625  37.3474731  23.0911255  35.5243530  37.5117188
  24.8013172  36.4037857  38.4860344  24.4839401  35.8287430  39.3559189
  25.8858814  36.4528008  38.3889465  24.2698727  37.8212433  38.8235893
  24.9838028  38.3301849  39.4711876  24.3416462  38.4632759  37.9456711
  22.7891788  37.9005508  39.3714638  21.8275776  37.6130371  38.6988029
  22.6552715  38.2096634  40.6561623  21.7545910  38.1021309  41.1003647
  23.4077206  38.6271286  41.1849785  24.2679768  36.3743820  35.9504776
  25.3495636  36.5172806  35.4489746  23.1501350  36.7384338  35.2524452
  22.2059765  36.5403442  35.5514832  23.1409779  37.3896179  33.9323502
  23.9531784  38.1142464  33.8745537  23.4005165  36.3368034  32.8413849
  24.3857441  35.9525757  33.1055756  22.4622135  35.0842857  32.8231506
  22.3840981  34.6023216  33.7976799  21.4972878  35.4338989  32.4560127
  23.0007877  34.4168091  32.1504555  23.4187584  36.8926544  31.5194740
  24.3067741  37.2360039  31.3964195  21.7518730  38.1091805  33.7299957
  20.7425861  37.6869583  34.1756248  21.7323303  39.1414604  32.8242645
  22.6268272  39.3923607  32.4279976  20.5114250  39.7571678  32.3218918
  19.7036285  39.6132927  33.0394363  20.6363564  41.2559624  32.0574989
  21.4986038  41.4168816  31.4104004  19.7797775  41.6523590  31.5122948
  20.7156219  42.1481476  33.2876511  19.6982231  42.3961182  33.9374619
  21.8418674  42.6330338  33.5548134  19.9218597  39.0630074  31.0481548
  18.8155499  39.4412956  30.5942593  20.6852169  38.1284943  30.4050636
  21.6187878  37.9138069  30.7251511  20.1558647  37.3134995  29.3318748
  19.6633625  38.0335808  28.6783962  21.3375187  36.7124100  28.4542084
  21.9708080  36.0444870  29.0380955  20.8376465  35.8272591  27.3274574
  21.6917076  35.5862732  26.6945267  20.2361355  34.9980736  27.6999283
  20.2482090  36.4918137  26.6957703  22.0826340  37.8711243  27.7919846
  21.3962498  38.5182724  27.2459202  22.7231522  38.3784142  28.5134392
  22.7568169  37.3683357  27.0986023  19.1493778  36.2843170  29.7532330
  19.3877010  35.5211601  30.6660633  17.9989643  36.1527557  29.0650730
  17.4431877  37.1023903  28.0817089  17.9980068  37.0245361  27.1467152
  17.4773750  38.1395226  28.4153080  16.0576439  36.6049080  27.8604870
  16.1036777  36.0518913  26.9223213  15.3145905  37.4023781  27.8566933
  15.6201849  35.6780090  29.0429420  14.9597263  34.9050026  28.6500626
  15.2003183  36.2766304  29.8513145  16.9571114  35.1633720  29.4918652
  17.0261402  35.0931435  30.5774078  17.1376686  33.8146744  28.9247456
  17.9251118  33.6271629  27.9989891  16.5104980  32.8049850  29.5545483
  15.9151392  32.9973488  30.3474197  16.9635754  31.3997517  29.4315681
  17.9544659  31.2710934  29.8670940  16.0156441  30.6200104  30.3425331
  16.5894909  29.6961937  30.4157639  15.9899721  31.2211685  31.2514057
  14.6111355  30.3031464  29.8656063  14.0924578  31.2556667  29.7570839
  14.6425028  29.9691372  28.8285179  13.8954782  29.2484913  30.7180367
  13.3968115  28.2945766  30.1860123  13.7886410  29.4148235  32.0169029
  14.2639017  30.1346416  32.5423508  13.0716028  28.9160671  32.5240479
  16.9798565  30.8403378  28.0165825  17.6433544  29.8180561  27.7298431
  16.1973324  31.4377556  27.1228390  15.7741795  32.3462601  27.2479954
  16.0390644  30.8943615  25.7951164  16.1901779  29.8149300  25.8052216
  14.5948038  31.3747196  25.3398991  14.2705793  30.8372173  24.4487915
  13.8435698  31.2145634  26.1132660  14.5633430  32.8889389  25.1715565
  14.6628952  33.6042595  26.1821880  14.3558350  33.3808174  24.0288849
  17.1252441  31.5097847  24.8360195  17.2986660  31.0549793  23.7154522
  17.8082390  32.6203041  25.2275505  17.6131115  32.9673233  26.1557770
  18.8789749  33.2991982  24.4473572  18.7112160  33.2546539  23.3712654
  18.8577328  34.7978706  24.7537861  18.9012985  34.8404007  25.8420849
  19.7743340  35.2295876  24.3518333  17.6335945  35.6205673  24.3549767
  16.7147808  35.3748055  24.8874073  17.8320351  36.6369896  24.6949863
  17.2186031  35.6283035  22.9131508  17.7759228  36.3844833  22.1447277
  16.2302933  34.8774223  22.4819260  15.6454535  34.3139000  23.0823517
  16.0381203  35.1122322  21.5185814  20.2912579  32.6527824  24.6494122
  21.2472572  33.0448036  24.0144901  20.4208183  31.7618313  25.6308212
  19.5971642  31.3835258  26.0764465  21.7204914  31.1920471  26.0843925
  22.2256851  32.1491776  26.2139645  21.5493183  30.2754230  27.3590412
  20.9054489  29.4359035  27.0968590  22.8413544  29.6991558  27.9012127
  23.2980442  29.0172272  27.1839199  23.6189194  30.4437618  28.0716667
  22.8392963  29.2443943  28.8918133  20.8983479  30.9641323  28.5873375
  19.9331398  31.4244251  28.3761272  20.8223629  30.2165012  29.3768768
  21.7261810  32.1443253  29.0972252  21.7191582  33.0288239  28.4602699
  21.2187576  32.5120544  29.9890766  22.7170391  31.7901402  29.3815727
  22.4606266  30.5173321  24.9835320  22.0700665  29.4869556  24.4849014
  23.6917439  30.9922009  24.8053474  24.0152569  31.7644062  25.3702679
  24.7064514  30.3601856  23.9511433  24.2039757  30.0037079  23.0519543
  25.7921314  31.4099731  23.6184025  26.2907505  31.8144341  24.4992485
  26.5902252  30.9227505  23.0582600  25.1174469  32.4872665  22.7549229
  24.3069820  31.9932938  22.2189770  24.6786747  33.3086700  23.3213863
  26.1124477  33.0914726  21.7059231  27.0164261  33.4950829  22.1620159
  26.3421631  32.3767662  20.9156532  25.4156284  34.1736984  20.9918385
  24.5953121  34.6179047  21.3789692  25.9456177  34.7080460  19.9124489
  27.0766735  34.3544731  19.3751945  27.4003582  34.7966118  18.5267620
  27.7403908  33.8695641  19.9620857  25.3089275  35.6606979  19.2997169
  24.5246315  36.0795746  19.7788067  25.8494854  36.1634216  18.6103916
  25.2589493  29.0688362  24.6099491  26.4172249  29.0130119  25.0982952
  24.3865662  28.0091267  24.7300453  23.4306068  28.1585751  24.4403782
  24.8197060  26.6506519  25.0633354  25.3385410  26.6834888  26.0213737
  23.5928555  25.7306080  25.1787319  23.0892448  25.6752911  24.2136307
  24.0069065  24.7605381  25.4537373  22.6085606  26.2057076  26.2534389
  22.8397026  26.1937408  27.5986118  21.7070122  26.5709248  28.2754421
  21.6297836  26.8728294  29.3095074  20.7861061  26.7853203  27.3680115
  19.7946205  26.7219391  27.5497780  21.3025818  26.4783039  26.1101646
  20.8678226  26.5888214  25.1277313  25.7409840  26.0718155  23.9798851
  25.3978138  26.1111889  22.7715015  26.9782276  25.6458282  24.3151035
  27.3631363  25.6323032  25.2487869  28.0222702  25.4147263  23.2791767
  27.7283096  26.0345287  22.4321060  29.3721046  25.9775333  23.7024193
  29.6444016  25.5407848  24.6632576  30.5418911  25.5194359  22.7938366
  30.6387730  24.4526405  22.5921917  30.4022160  26.1050682  21.8851986
  31.4344559  25.8394165  23.3314648  29.3156300  27.5237408  23.8309822
  28.4682274  27.7337818  24.4835930  30.2222939  27.9788189  24.2296829
  29.2052994  28.0422249  22.8785591  28.1486969  23.9438381  22.7819767
  28.4793949  23.0860653  23.5977440  28.1368160  23.6031761  21.4444218
  27.9349270  24.3599052  20.8066883  28.3504925  22.2000904  20.9697075
  28.6416454  21.5835876  21.8201504  26.9748821  21.7436390  20.2892685
  26.6782284  22.5225010  19.5867958  27.2328625  20.7850761  19.8390408
  25.8835659  21.5517826  21.3143940  25.8499737  20.3511734  22.0409851
  26.5085831  19.5803280  21.6689205  24.9869328  20.2064228  23.1534462
  24.8105469  19.2139759  23.5411758  24.3238926  21.3222847  23.6706982
  23.6762161  21.2765160  24.8496799  22.9879150  21.9452095  24.8759708
  24.3666744  22.5533772  23.0041275  23.8370819  23.4399700  23.3201714
  25.1159592  22.6561031  21.7821388  25.1549568  23.5963364  21.2521935
  29.5584316  22.2310944  20.0158558  29.5082054  22.7946968  18.9243450
  30.6460381  21.5185833  20.4098148  30.6719322  20.9210491  21.2236824
  31.8105049  21.3808975  19.6372318  31.7020054  21.9072323  18.6889172
  33.0158844  21.9077435  20.3743649  33.1777687  21.2760544  21.2477837
  33.8492088  21.7793503  19.6835747  33.0062866  23.4495144  20.6784096
  32.0696602  23.5310936  21.2299309  34.1301651  23.7792072  21.6224251
  34.0795975  24.8513565  21.8122673  33.9796944  23.2204018  22.5461121
  35.1272469  23.5302734  21.2591629  33.1008148  24.4063644  19.4836636
  32.9258995  25.4358959  19.7960243  34.1273460  24.2282791  19.1633167
  32.3194885  24.1175938  18.7806416  32.0216408  19.9200497  19.2879429
  31.2996235  19.0160999  19.8057804  33.0313148  19.6222038  18.4301281
  33.4303474  20.3689156  17.8794060  33.3986740  18.2211742  17.9685287
  33.9877853  18.2260208  17.0514565  34.1766891  17.5310745  19.0909462
  33.5889626  17.3974037  19.9991360  34.6042671  16.6031876  18.7110577
  35.3984337  18.3466969  19.5636292  35.1960793  19.3383369  19.9683533
  35.6197243  17.7808495  20.4685860  36.6001968  18.2983780  18.6592865
  37.4335251  19.2262783  18.6647396  36.8413239  17.1657352  18.0074100
  32.1717453  17.3856983  17.5237274  31.2752361  17.9391060  16.8689842
  32.1623993  16.0695934  17.7096024  32.8959694  15.6222839  18.2405338
  31.0062656  15.2229166  17.2990341  30.7082500  15.6445837  16.3390961
  31.3846607  13.7639589  17.0360718  31.5778847  13.3069105  18.0065727
  30.5861607  13.3194256  16.4420280  32.6874275  13.6802950  16.2426796
  32.6721878  14.4687872  15.4902506  33.4348526  13.7323742  17.0343513
  32.8416824  12.3392239  15.5812569  32.7209396  11.5487337  16.3219662
  32.0372467  12.1360264  14.8743639  34.2731781  12.1402502  14.9313211
  34.2722321  11.0867224  14.6517143  34.3145485  12.6376867  13.9623299
  35.4879074  12.4729948  15.7405319  35.2980194  13.2668781  16.3353367
  35.9279938  11.7862473  16.3361855  36.2409554  12.7297287  15.1183529
  29.7917576  15.4483681  18.1044998  28.7704945  14.9385128  17.7307892
  29.8681469  16.3400402  19.1337471  30.6808071  16.9391212  19.1057415
  28.7710762  16.5064945  20.0561161  28.2611084  15.5590401  20.2303638
  29.3235703  17.0093937  21.4965343  28.5265827  16.9906063  22.2398758
  30.1829243  16.4494438  21.8654041  29.5813942  18.0621605  21.3811607
  27.6474190  17.4486809  19.5456676  26.5266094  17.6468582  20.1394119
  27.8414574  17.9658546  18.3572083  28.7542877  17.7663021  17.9737740
  26.8333473  18.7558804  17.5513802  26.5441132  19.6427059  18.1152859
  27.4056892  19.2113533  16.1530685  26.6610508  19.7610664  15.5773697
  28.3928490  20.2542629  16.5568295  27.9763412  21.1789036  16.9563961
  29.1187267  19.9309692  17.3029423  28.9534893  20.5196152  15.6605186
  27.9450569  18.0066071  15.3848085  28.7220192  18.3124256  14.6841602
  28.4431496  17.2822075  16.0292072  27.1366158  17.5090218  14.8491373
  25.5444431  17.9555836  17.2406101  24.4753876  18.5988827  17.0774612
  25.5392227  16.6250439  17.3128071  26.3454266  16.1392956  17.6791210
  24.2498322  15.8166733  17.1773987  23.7810268  16.2183685  16.2790871
  24.7277298  14.3841887  16.9570770  23.8090420  13.8926344  16.6369438
  25.7191982  14.2922707  15.7940941  25.7410660  13.2505522  15.4740210
  25.3848190  14.9383249  14.9823647  26.7592964  14.5354252  16.0113049
  25.0765247  13.6658583  18.2951698  25.9463425  14.0561867  18.8235207
  24.2327099  13.4771767  18.9588528  25.3448544  12.6316223  18.0796356
  23.3600636  15.8529024  18.3511639  22.2403717  15.4539604  18.2697258
  23.8808937  16.3352814  19.4855042  24.8415642  16.6397934  19.4184761
  23.2360744  16.4263153  20.8353596  22.4590435  15.6643419  20.7743893
  24.1524754  16.3564701  22.0313244  24.7977371  17.2307205  22.1175003
  23.6071014  16.3748035  22.9748993  25.0528717  15.0924616  21.9414825
  25.6788082  15.1747303  21.0529232  25.9749622  15.0026207  23.1744747
  26.6007977  14.1102428  23.1645622  26.7978458  15.7169437  23.1478844
  25.4164772  15.0288563  24.1101608  24.2105923  13.8504448  21.9654350
  23.5829010  13.8143139  21.0750427  24.8594456  12.9795790  21.8722553
  23.6345024  13.7560158  22.8859215  22.4919491  17.8416748  20.8258896
  21.7008686  18.0604992  21.7415771  22.8729515  18.7058678  19.9613991
  23.6084175  18.4754486  19.3086395  22.3558769  20.1356049  19.9378967
  22.5042953  20.5413342  20.9386272  23.2402477  20.8845901  18.9533615
  24.2859554  20.7974720  19.2483330  23.0960827  20.4749489  17.9536076
  23.0184536  22.3733044  18.7608624  21.9534283  22.5561390  18.6180592
  23.3517189  22.9767704  19.6051750  23.6695538  22.9716816  17.4616413
  23.8514690  24.0339813  17.6245003  24.7142048  22.6718502  17.3785629
  22.9580460  22.6703396  16.2284012  23.4871635  22.0480614  15.6343431
  21.9642372  23.3247662  15.6460037  21.4733582  24.4526081  16.1752739
  21.8769798  24.8779068  16.9976559  20.6350174  24.8088646  15.7389669
  21.4645100  22.9338150  14.5467043  21.7108574  22.0283585  14.1731224
  20.9209976  23.6230774  14.0470953  20.8262444  20.0762463  19.6005363
  20.5042305  19.5412788  18.5632420  19.9143124  20.5284634  20.4263172
  20.1820927  21.1237297  21.7589359  20.8593884  21.9763165  21.7091599
  20.6430035  20.4714508  22.5006847  18.8245029  21.4600868  22.3376732
  18.5089417  22.4713516  22.0810337  18.8264580  21.4962158  23.4270744
  17.9640560  20.4566231  21.6479187  16.9386044  20.8261013  21.6419144
  18.0977459  19.5514469  22.2402782  18.4937973  20.2862644  20.2422638
  18.2625351  19.2805061  19.8914413  17.8454666  21.2469730  19.2532940
  16.6911144  21.1521988  18.9126110  18.5822315  22.2064362  18.7855129
  19.5661240  22.1798553  19.0121346  18.1407661  23.1998158  17.8178596
  18.8597279  24.0152035  17.8975163  18.3546505  22.6076622  16.4355850
  19.3486214  22.1606865  16.4172955  17.6325836  21.8017540  16.3043194
  18.1646519  23.7091045  15.4108152  18.4945068  24.8443661  15.7194061
  17.7201023  23.4387798  14.2037506  16.7573357  23.8212547  18.0203857
  15.9353676  23.7078991  17.1646442  16.5551434  24.4497395  19.2389088
  17.3151436  24.3880863  19.9012547  15.3717079  25.0549603  19.6615620
  14.5411034  24.3502998  19.7022610  15.4731398  25.6576462  21.1222267
  16.0307922  26.5897102  21.0306835  14.4548979  25.9567413  21.3708782
  15.9217749  24.6595173  22.1845894  16.8886433  24.2970333  21.8354931
  16.0671749  25.5280457  23.4597969  16.7437115  25.0146370  24.1430340
  16.5143833  26.4929371  23.2208691  15.1064825  25.7647457  23.9171257
  14.8913221  23.5886917  22.4786053  13.9870043  24.0112915  22.9164639
  15.3939581  22.9481983  23.2033310  14.6086493  22.9910164  21.6120148
  14.9106464  26.2000294  18.6933556  15.6728449  27.0458279  18.2058849
  13.5880575  26.3107319  18.5063381  12.9739513  25.7487602  19.0783195
  13.0021715  27.3611794  17.7166386  13.4014740  28.3135071  18.0655365
  13.2324076  27.2707787  16.2400112  14.2783995  27.4823799  16.0181370
  12.7986937  26.3087521  15.9670734  12.5208073  28.2494144  15.4962778
  12.3032761  27.9544086  14.6090050  11.5475521  27.4836483  18.0487843
  10.8466816  26.4384251  18.1670227  10.9237766  28.6848221  18.1087646
  11.4295759  29.5202923  17.8513470   9.5830383  28.9452934  18.5113068
   9.4375572  28.7471409  19.5732288   9.2156668  30.3377438  18.1684608
   9.9916735  31.0020676  18.5487080   9.1569843  30.4815025  17.0895748
   7.8571916  30.8030052  18.5343208   7.1120110  30.1816692  18.0375824
   7.6650176  30.8077221  20.0571918   7.7931404  29.8149414  20.4885597
   6.6162353  30.9636440  20.3098679   8.3769646  31.4982281  20.5093327
   7.5861983  32.2169838  17.9581032   8.1754379  33.0255394  18.3906937
   7.8396788  32.2305908  16.8980751   6.5479970  32.5477753  17.9867077
   8.5729494  28.0772057  17.8423290   7.7391644  27.5223618  18.5559502
   8.6228247  27.7923622  16.5593815   9.2330246  28.2821445  15.9207354
   7.5505252  27.0061722  15.9552984   6.5925312  27.1693935  16.4489727
   7.4062481  27.3730850  14.4201708   6.8790550  26.6055317  13.8535728
   6.7590399  28.7573433  14.2932796   5.7434664  28.7547302  14.6891413
   7.2889032  29.4902229  14.9017477   6.8393617  29.1000347  13.2616720
   8.6758337  27.4890671  13.7769413   8.9439402  26.6044769  13.5176773
   7.7378840  25.5264225  16.1819859   6.9553695  24.7349224  15.6178255
   8.6037245  25.1195049  17.0904541   9.1322012  25.7382870  17.6887188
   8.7449045  23.7173042  17.5584717   8.4909420  23.0973053  16.6987000
  10.2920666  23.2960701  17.7505302  10.6210346  23.9831066  18.5301876
  10.4157038  22.2615376  18.0707741  11.0593061  23.5283947  16.4267845
  10.6502905  22.8813896  15.6507721  10.9066944  24.5643997  16.1242924
  12.5399303  23.1797104  16.4799900  13.0843868  23.7358036  17.2431602
  12.6943121  22.1510792  16.8058472  13.0676565  23.3258495  15.0476141
  12.3958664  22.6657734  14.4988909  13.0408030  24.3000546  14.5594521
  14.3696356  22.7517490  14.8452635  14.5255203  22.4317398  13.9000683
  15.0749207  23.3875294  15.1894464  14.5132351  21.9426556  15.4325008
   7.7667618  23.4707413  18.7171230   7.5091729  22.3091679  19.0753689
   7.3016710  24.5278988  19.4346180   7.4345050  25.4671192  19.0877438
   6.5719037  24.4541798  20.7118301   6.9939265  23.5736923  21.1963387
   6.9948587  25.6986485  21.4724827   8.0826530  25.7642212  21.4949532
   6.7180357  26.5450726  20.8439636   6.4460864  25.7764511  22.8627777
   6.8690128  25.0585938  23.6505890   5.4898477  26.6366673  23.1204853
   5.3539152  27.2305126  22.3148937   5.0319304  26.7005596  24.0184441
   5.0737305  24.0813122  20.6011791   4.3350935  24.6290817  19.7689648
   4.6224127  23.2199974  21.4917412   5.3005672  22.8680553  22.1523037
   3.2026734  22.9636078  21.9292374   2.6394925  22.5777874  21.0794907
   3.1625412  22.0585766  23.1809807   3.6522219  22.5363598  24.0295391
   1.7888063  21.6851997  23.5827522   1.2752122  22.6218700  23.7994823
   1.3008391  21.1065540  22.7984314   1.8863846  21.0952969  24.4941235
   3.8315790  20.8817940  22.7574425   3.2517977  20.1280918  22.8893051
   2.4577389  24.2084560  22.3080006   2.8695977  24.9612846  23.1699715
   1.4813231  24.5665340  21.5464039   1.3461739  24.0504589  20.6887913
   0.7541941  25.8723392  21.7571583   1.5227840  26.6378746  21.8636112
   0.0400604  26.3138008  20.4618568  -0.7615467  25.5899296  20.3151073
  -0.2504916  27.3285198  20.7339420   0.9998405  26.3288517  19.2680569
   1.5526607  25.3895912  19.2847290   0.4789308  26.2073574  18.3183212
   1.9713758  27.5210190  19.1465473   2.1352341  28.3356915  20.1395664
   2.5229640  27.7854328  18.0386524  -0.1710382  25.7511845  22.9912186
  -0.8059947  24.6844196  23.2940292  -0.2146682  26.7548370  23.7585182
   0.1776556  27.5978928  23.3642559  -0.6900608  26.8670845  25.1543369
  -0.2746634  26.0263062  25.7098866  -0.1871247  28.1559067  25.8281002
   0.8643237  28.3419590  25.6091480  -0.8175027  28.9454937  25.4191093
  -0.2259862  28.2107983  27.3681850  -1.2805134  28.2030163  27.6438923
   0.4941832  26.9627895  27.9788704  -0.2222313  26.1643829  27.7854900
   1.4616723  26.7872925  27.5084820   0.6270294  27.2748241  29.0147629
   0.3780429  29.5548611  27.8692684  -0.2371331  30.3815842  27.5140419
   0.4026495  29.6119099  28.9574966   1.3692453  29.6347561  27.4229145
  -2.2326195  26.9523525  25.3731346  -2.9698200  27.7628384  24.7105293
  -2.7053072  26.1551514  26.1583252  19.5154514  39.0044327  47.1071129
  18.7236519  38.3778801  47.0827484  19.2383327  39.7526131  47.7264099
  19.4830971  39.3494110  46.1584053  20.7961712  38.4267006  47.4012451
  21.5795918  39.1782074  47.3033066  20.7925415  37.8105621  48.8038330
  20.2314758  38.5047569  49.4294548  20.1546974  36.9290504  48.7390785
  22.2492809  37.5086403  49.2742920  22.6098690  36.6621246  48.6899223
  22.8696766  38.3720856  49.0341301  22.1411533  37.0846405  51.0327682
  21.8169842  38.6582794  51.8484154  20.7992802  38.7764053  52.2204590
  22.5984535  38.8225899  52.5903130  21.9181881  39.4096909  51.0653229
  21.2218704  37.3856087  46.3504791  20.4157448  36.6458626  45.8545380
  22.5146313  37.2842026  46.0911140  23.1398125  37.9221077  46.5626335
  23.1576462  36.1991043  45.4393005  22.6523514  35.9690781  44.5012894
  24.6041412  36.7527847  45.2709160  24.5696964  37.7621460  44.8609085
  25.1648712  36.6697731  46.2019348  25.2678604  35.7881851  44.2051964
  26.3104839  36.0929070  44.1147308  25.3889122  34.8141289  44.6791763
  24.7012463  35.5653572  42.4881439  26.1278267  34.7681732  41.8238373
  26.9677639  35.4621506  41.8556709  26.3471279  33.9224091  42.4755211
  25.9910889  34.4294014  40.7968826  23.1112041  34.8221512  46.2344894
  22.8430061  34.7714691  47.4028282  23.4033051  33.7615242  45.4953918
  23.5173473  34.0082169  44.5226402  23.6345196  32.3180695  45.9721870
  23.8050728  32.4632225  47.0389328  22.3844776  31.4294968  45.7707748
  22.5141754  30.5418262  46.3899040  20.9511051  32.0932312  46.0881500
  20.6132450  32.7122688  45.2570419  20.2929363  31.2295265  46.1826668
  20.9758778  32.7912331  46.9249763  22.4037437  31.0264626  44.2639275
  22.3365612  31.9163837  43.6381264  23.4000149  30.6189861  44.0921516
  21.4016247  30.0201321  43.8469391  20.3659115  30.2521725  44.0950432
  21.4676208  29.7580433  42.7909775  21.6532860  29.1035671  44.3804932
  24.9166355  31.6552086  45.5955238  25.4649982  32.1714706  44.6132698
  25.3864193  30.6414566  46.3405380  24.7264729  30.3786488  47.0585251
  26.7433090  30.0571003  46.1992416  27.1202507  30.1157837  45.1781769
  27.8897038  30.7704754  47.0456696  27.7202034  30.7389946  48.1219482
  28.8481445  30.2739182  46.8942719  28.1152458  32.2485313  46.9144402
  27.2253265  32.8604355  47.0618095  28.8102074  32.5267448  47.7067337
  28.7315140  32.6178131  45.5310287  29.7742767  32.3346558  45.6744576
  28.2390785  32.1333504  44.6878777  28.7008572  34.0537987  45.2627068
  28.6464386  34.6977463  46.0388985  29.0737705  34.5651817  44.1448593
  29.1773510  33.8485489  43.0313797  29.0667038  32.8453445  42.9934235
  29.3712807  34.3001366  42.1490173  29.2243004  35.8508034  44.1453781
  29.3727703  36.3287888  43.2681198  28.9350967  36.3118896  44.9961853
  26.6946812  28.5877705  46.4868813  25.9935074  28.1877708  47.3553391
  27.4474297  27.7586002  45.7779999  28.0074100  28.2344666  45.0851212
  27.8356590  26.4373951  46.1506195  26.9964352  25.9905338  46.6836472
  28.0161266  25.8388100  45.2577438  29.0366306  26.4055729  47.1029549
  29.8383942  27.3061237  47.1552277  29.0187454  25.4054260  47.9481659
  28.1300373  24.9257107  47.9351006  30.0502300  25.0598221  48.9119644
  30.9506378  25.6023617  48.6238327  29.6133957  25.3986549  50.3819733
  28.8924446  24.6319695  50.6657410  30.8843575  25.2953453  51.2099304
  30.7047558  25.5483170  52.2548447  31.4010468  24.3383083  51.1377220
  31.6718750  25.9678268  50.8698082  28.8558064  26.7557869  50.4297676
  29.3467503  27.4689560  49.7676010  27.9014874  26.5777206  49.9341164
  28.5162926  27.2451191  51.8627052  28.0386295  28.2248631  51.8682022
  28.0112495  26.5547867  52.5383377  29.4578762  27.4536285  52.3706856
  30.4003525  23.5718307  48.8160324  29.4339657  22.7993374  49.0140038
  31.6230469  23.2100868  48.4091644  32.3264809  23.9337940  48.3700218
  32.0646210  21.8426723  48.3231544  31.2172127  21.3434048  47.8533249
  33.3602028  21.8156033  47.4021111  33.8976936  22.7633724  47.4326630
  34.0351524  21.0155869  47.7062912  33.1360512  21.5917587  45.9184685
  32.5714302  22.4396057  45.5305824  34.0850906  21.4027119  45.4167824
  32.3120461  20.3696194  45.5475388  31.2735157  20.4402103  45.8709183
  32.3055496  20.2952061  44.4601021  32.7466125  19.0617828  46.1604614
  32.2379723  18.7124214  46.9600449  33.7917976  18.3293056  45.8921394
  34.3978996  18.5639191  44.7589912  35.2198830  18.0143890  44.5528984
  34.1947212  19.2984810  44.0962448  34.1957855  17.3183002  46.6596527
  35.0287666  16.8055916  46.4079170  33.7760468  17.2838440  47.5776558
  32.3528023  21.1716404  49.7038574  32.5382347  21.8877316  50.6864471
  32.3946609  19.8362427  49.7499886  32.0616074  19.4489346  48.8786850
  33.4377518  19.1333981  50.4765015  34.4351768  19.5352154  50.2982292
  33.2943039  19.2532196  51.5503578  33.5851898  17.6793499  50.1788368
  33.1132812  17.1942196  49.1620827  34.3409576  16.9116440  51.0771141
  34.7440529  17.3948269  51.8671417  34.6052933  15.4897108  50.8929672
  33.6069107  15.0557413  50.8381844  35.4926758  15.3022127  49.6592407
  35.5439415  14.2247705  49.5024071  35.0481033  15.6587343  48.7300758
  36.5335846  15.5959330  49.7946434  35.2225761  14.8000164  52.1430359
  35.8940239  15.3781061  52.9924927  35.0001869  13.5136642  52.2069054
  34.5104256  13.0022898  51.4866753  35.4838524  12.6509428  53.3529625
  36.4435234  13.0802631  53.6407509  34.6757889  12.8285990  54.6389618
  34.6024742  13.8770809  54.9277687  33.3036766  12.1326199  54.5281334
  32.7398109  12.5321045  53.6851845  33.4372177  11.0694370  54.3283615
  32.7510681  12.3144827  55.4499016  35.2680855  12.2162962  55.7435722
  35.0074959  12.6031036  56.5826645  35.6809654  11.2393122  52.8170433
  35.3416901  10.8902988  51.6872063  36.2128754  10.3089066  53.6274490
  36.3615227  10.4933519  54.6092758  36.4146881   8.8753729  53.3575859
  35.5887070   8.6724634  52.6759071  37.8064651   8.5346880  52.7670479
  37.9233665   7.4665294  52.5840912  38.0466843   9.1090345  51.3539162
  39.0391312   8.9444084  50.9343376  37.3462639   8.6601105  50.6496582
  37.8097992  10.1729574  51.3608437  38.8608437   8.9861231  53.6063042
  38.8510933   8.3676939  54.3405037  36.1486092   8.0224257  54.5601273
  36.2178307   8.3858423  55.7128716  35.7678680   6.7595744  54.2011681
  35.8605919   6.5382509  53.2200851  35.2710495   5.6869879  55.0892944
  35.5114250   5.9828534  56.1104622  33.7291489   5.5592504  54.9510460
  33.4829292   4.7566628  55.6462631  32.9743614   6.8028288  55.5701714
  33.4576683   7.0761633  56.5081520  33.0257874   7.6160998  54.8462601
  31.9203186   6.5790706  55.7345505  33.1641617   5.1384392  53.5985184
  32.1113930   4.8786907  53.7094612  33.1793060   5.9555736  52.8772964
  33.7506447   4.2759390  53.2819214  36.1268616   4.4302363  54.8953552
  36.5999680   4.2366405  53.7873268  36.3966255   3.5696721  55.9082146
  36.1264725   3.8652601  56.8354378  37.1717110   2.2958879  55.8551750
  37.9688187   2.3243108  55.1122627  37.5733643   1.8952954  57.2577438
  36.7335358   1.9987955  57.9448242  37.9566765   0.8822179  57.3795891
  38.6269226   2.9320323  57.6880074  38.1697235   3.9005115  57.8907852
  39.0793114   2.5841796  58.6166840  39.8240509   3.0838144  56.7701302
  40.2219200   4.2465844  56.5708389  40.4449425   2.0811374  56.4561996
  36.3480644   1.0699055  55.3563538  36.9536514   0.0534976  54.9834671
  35.0227814   1.2424773  55.3368149  34.5975990   2.0707967  55.7282333
  34.1168213   0.1456397  55.0761261  34.6296692  -0.4692924  54.3365669
  34.0216141  -0.7512457  56.3979492  33.3193512  -1.5793103  56.3018570
  35.0342941  -1.1412710  56.5002708  33.7363243  -0.0573666  57.7843475
  34.6120758   0.5442467  58.0276985  32.8550110   0.5825438  57.7407608
  33.5079765  -1.0233806  58.9740143  32.4857368  -1.3832356  58.8572502
  34.2260513  -1.8432583  58.9903755  33.5718727  -0.2198801  60.2519188
  34.3210564   0.4466993  60.3723183  32.7825966  -0.4749238  61.2916489
  31.9529572  -1.5661831  61.3664207  31.9643822  -2.3505340  60.7302055
  31.3406944  -1.6103735  62.1684685  32.6793365   0.4822053  62.1670609
  33.2268486   1.3199958  62.0312729  31.9840603   0.3241146  62.8823929
  32.7631989   0.5724237  54.5525818  32.1722374   1.6223583  54.8257065
  32.1065292  -0.3489777  53.8496323  32.4626274  -1.2864944  53.7298203
  30.7329578  -0.1472691  53.3198090  30.6655827   0.9031893  53.0367928
  30.4266682  -1.0559795  52.0765076  31.1874142  -0.9904873  51.2986412
  30.4791584  -2.0969098  52.3955803  29.0348663  -0.7675714  51.4632645
  28.4871635   0.3288496  51.7805595  28.5262108  -1.6771058  50.6986504
  29.6746521  -0.4434019  54.4058723  29.2147541  -1.5558900  54.6043739
  29.4218235   0.6658524  55.1898346  30.0887280   1.4237249  55.1587524
  28.4387531   0.5210868  56.3026352  27.5554256  -0.0495788  56.0159645
  29.1370869  -0.2422302  57.4476585  29.5091629  -1.2141520  57.1235771
  30.2043667   0.4558556  58.2949371  30.5123596  -0.1383212  59.1552849
  30.9974785   0.5890358  57.5591812  30.0345573   1.4493275  58.7100143
  28.0975170  -0.4638481  58.3802834  28.3728828  -1.1574135  58.9842186
  27.9142132   1.8733675  56.7379761  28.6892071   2.8512950  56.7542000
  26.6671028   1.8639928  57.0745888  26.1658459   0.9895104  57.0103760
  25.9044857   2.9766443  57.7563210  25.9251156   3.8548133  57.1109543
  24.4389744   2.5787611  57.9902039  24.1424465   2.1899362  57.0160446
  24.4115639   1.7515724  58.6995087  23.5427246   3.7230115  58.4138718
  24.0109367   4.6273742  58.0252800  22.5412788   3.6493287  57.9898720
  23.3514252   3.8222051  59.9143105  22.7720718   4.8578014  60.3772812
  23.7985229   2.9313138  60.6936836  26.5711975   3.4795854  59.0666771
  26.6328583   4.7314095  59.2817116  27.1473408   2.6150875  59.8976440
  27.1442318   1.7248242  59.4206543  28.0103569   2.8067627  61.0720100
  27.4735222   3.3180683  61.8710556  28.3860016   1.4804566  61.6297035
  27.5929031   0.7363499  61.7031746  29.0270901   0.9792505  60.9045143
  29.1787949   1.6231825  62.9316406  30.1812077   2.0002739  62.7289772
  28.7012672   2.3537986  63.5845299  29.2277012   0.2697199  63.6692009
  28.1316128  -0.1746093  64.0095291  30.3512383  -0.2162310  63.9406319
  29.2353725   3.7526338  60.8286324  29.6449833   4.4568973  61.6888199
  29.7139626   3.9358563  59.5838013  29.2474022   3.4685321  58.8195839
  30.7425861   4.8676019  59.2259636  31.0099430   5.3486729  60.1668129
  31.9647694   4.0668893  58.5290298  31.5835323   3.4548492  57.7116165
  32.6101456   4.8670883  58.1667023  32.7993317   3.2478952  59.5189438
  32.2575607   2.3265724  59.7328339  33.7068977   2.9566677  58.9901619
  33.1052666   3.8638775  60.8491173  32.9858742   3.2476025  61.9170799
  33.5166702   5.0576324  60.8809128  30.1579800   5.9735527  58.3367729
  30.3722172   7.1543808  58.5943909  29.4654846   5.6109500  57.2298927
  29.1766586   4.6477709  57.1352005  28.9126644   6.5839033  56.2413712
  29.7161713   7.1609282  55.7836380  28.1861916   5.6939993  55.2520866
  27.5885410   4.9877524  55.8283958  27.0853996   6.5335431  54.4776878
  27.3616924   7.5284929  54.1286163  26.7225189   5.9068909  53.6629944
  26.2671070   6.7637949  55.1599464  29.0934429   4.9805875  54.2784653
  29.4609013   5.7631693  53.6146584  29.9821053   4.5750031  54.7620811
  28.3309555   3.8191602  53.4755287  29.0081997   3.0661540  53.0725098
  27.5775909   3.2774396  54.0474396  27.9076729   4.2751994  52.5805588
  28.0772476   7.6646433  56.8157692  28.1890736   8.8202734  56.4895973
  27.1040821   7.3750238  57.7179909  26.9958839   6.4288015  58.0542297
  26.2727718   8.3821411  58.3981857  25.8600750   8.9853458  57.5895271
  25.1448708   7.6701121  59.2366104  24.9014416   6.8007908  58.6257706
  25.5113544   7.3954263  60.2257233  23.8999691   8.5670261  59.4865532
  24.2009735   9.6124296  59.4184914  22.8724346   8.2531118  58.3913765
  22.2244339   9.1188946  58.2549324  23.4293919   8.1624022  57.4588165
  22.3331604   7.3210883  58.5605354  23.1719971   8.3482265  60.7856903
  22.5834007   9.2216139  61.0665054  22.6016331   7.4238701  60.6943130
  23.9238186   8.2011995  61.5610962  27.0884666   9.2699146  59.3550034
  27.2316418  10.4713144  59.2045631  27.8552723   8.6281319  60.2236671
  27.9014683   7.6231771  60.1340485  28.7364922   9.3389578  61.1929932
  28.0889053   9.9113398  61.8571548  29.3512745   8.3027058  62.1654816
  29.9965305   7.6278896  61.6030159  29.9187355   8.9729414  62.8111382
  28.4428253   7.4162922  63.0090103  27.8675747   6.7879004  62.3290749
  29.1093082   6.8142424  63.6266136  27.2762260   8.0807238  63.8129654
  27.4806118   9.0078459  64.5847015  26.0964661   7.7097864  63.5822792
  26.0130672   6.9796801  62.8893929  25.3466587   7.9095325  64.2288055
  29.7164497  10.2776585  60.4962044  29.7273560  11.4782305  60.7832031
  30.5323448   9.8201303  59.4656029  30.3884850   8.8884840  59.1030579
  31.4872341  10.6029377  58.7168007  32.1311760  11.2013016  59.3613129
  32.3665810   9.6301155  57.7969933  31.7794437   8.8719358  57.2787895
  32.9203835  10.2174940  57.0646057  33.3579521   8.8835039  58.6445465
  32.7301331   8.1751528  59.1850891  33.8947678   8.3033714  57.8939629
  34.3217583   9.6012230  59.6249352  34.9340820  10.2003479  58.9509811
  33.8142662  10.1776705  60.3984070  35.2516594   8.6604624  60.3999100
  34.7065620   8.2888298  61.2675858  35.5392303   7.7630668  59.8521118
  36.4424744   9.2989473  60.9358177  36.1698418   9.7303076  61.8074265
  37.2001190   8.6738234  61.1709671  36.8286705  10.0469265  60.3777161
  30.8926506  11.7192011  57.8499565  31.4008274  12.8055182  57.7591858
  29.7108784  11.4008408  57.1890068  29.3884792  10.4524946  57.3186150
  28.9408512  12.4181147  56.5270882  29.5610847  12.8486719  55.7409325
  27.6799507  11.9458570  55.7903633  27.0181427  11.6009970  56.5848351
  27.0874500  13.0913534  54.9763298  26.1528130  12.7230778  54.5533295
  26.9706306  13.9906769  55.5810394  27.7668438  13.1352530  54.1250992
  28.0639477  10.8581104  54.8901749  28.0186825  10.0791264  55.4494019
  28.5281792  13.5422659  57.5907516  28.8878937  14.7294493  57.3571358
  27.8758888  13.1011381  58.7033119  27.7718754  12.1158209  58.8993492
  27.3331776  14.0462284  59.6691475  26.6076031  14.6592989  59.1345596
  26.5103397  13.2938271  60.6930389  25.9035740  12.5340214  60.2004662
  27.2061481  12.7463188  61.3287964  25.6569538  14.1899023  61.5680008
  26.1944675  15.0296278  62.0085030  24.9556904  14.6684055  60.8843575
  24.8563461  13.4644547  62.6379738  24.3189335  14.2404604  63.1830482
  24.0914097  12.8187323  62.2066803  25.7344418  12.7850924  63.7221184
  26.2656422  11.9038000  63.3626022  26.5977459  13.4155540  63.9350204
  24.9315071  12.3380041  64.9202423  24.3309517  13.0723581  65.2668915
  24.4349289  11.4851007  64.7056198  25.6118717  12.0599194  65.6129761
  28.4664364  15.0158224  60.1948929  28.1948261  16.1539803  60.3604546
  29.6716900  14.5552845  60.4782448  29.8606205  13.5658226  60.4049568
  30.8399048  15.3119535  60.8401222  30.6285744  15.8631611  61.7564240
  32.0222092  14.3708353  61.1746597  31.8511333  13.5456009  61.8659058
  32.1948547  13.8331881  60.2423286  33.4092026  15.0865602  61.5522919
  34.1033669  14.3070612  61.8663216  33.7496910  15.5527134  60.6276970
  33.2056198  16.1615105  62.6324120  32.3163605  16.1167355  63.4607811
  34.1440926  17.0925369  62.9015884  33.8752365  17.8437042  63.5209198
  35.0366821  17.0170689  62.4350204  31.2172241  16.2987595  59.6819611
  31.5172653  17.4803162  59.8527069  31.4233570  15.7168388  58.4467888
  31.1971855  14.7408667  58.3186264  31.7395229  16.5791054  57.2937279
  32.7546539  16.9158955  57.5039177  31.8561363  15.6909084  56.0296669
  32.6051254  14.8996763  56.0623436  30.9297276  15.1166077  56.0365486
  32.0404015  16.4731007  54.7036819  31.2329235  17.2024212  54.6390839
  33.3900833  17.2025776  54.4832115  33.3935394  17.5205936  53.4406433
  33.4857254  18.0477772  55.1648178  34.2095604  16.5219707  54.7141342
  31.8429089  15.5198240  53.5159721  31.7298698  16.0039921  52.5459747
  32.6884346  14.8351650  53.4494476  30.9501171  14.9202995  53.6937180
  30.7346878  17.7332153  57.1407127  31.1772079  18.8632240  56.9911957
  29.4179211  17.5459805  57.3451614  29.1839199  16.5806942  57.5283699
  28.4059238  18.6701450  57.4495201  28.4730568  19.3138790  56.5724754
  26.9662781  18.1575108  57.5083122  26.9159298  17.5469036  58.4098244
  26.2061062  18.9251404  57.6531601  26.5745239  17.3664436  56.3051453
  27.3102379  16.5659504  56.2274513  25.1259937  16.8979740  56.3763580
  24.8816376  16.1176262  55.6556320  24.9202404  16.3824577  57.3144455
  24.4477272  17.7511196  56.3904800  26.6030960  18.2306042  55.0400887
  27.6603928  18.4555988  54.9000626  26.3285313  17.6975155  54.1298523
  26.1316166  19.1973324  55.2168503  28.5480137  19.6445618  58.6124039
  28.4444561  20.8798237  58.4376488  28.8014908  19.0677166  59.7915688
  28.7700520  18.0582237  59.7977333  28.9750462  19.8034916  61.0361443
  27.9969196  20.2757740  61.1273613  29.1826077  18.9924450  62.3080864
  29.9592247  18.2757568  62.0410118  29.5881195  19.4986782  63.1840935
  27.8279133  18.3003063  62.7033234  27.2188168  18.0473785  61.8354950
  28.0102196  17.3467808  63.1989594  27.1262741  19.1327610  63.7847443
  26.7003555  18.5650425  64.8044357  26.9363918  20.3649960  63.6305695
  30.1171703  20.7748260  60.8268776  30.0483513  21.9012489  61.3117599
  31.1845531  20.3397903  60.2204628  31.1838150  19.4427166  59.7563972
  32.3454361  21.2496052  60.0743828  32.4255447  21.6994362  61.0639954
  33.6081467  20.3921890  59.7844353  33.5539970  19.4383526  60.3091850
  33.6763229  20.0826015  58.7415504  34.8720512  21.2472420  60.2566566
  35.7855186  20.7974110  59.8676529  34.8347816  22.2859802  59.9284363
  35.1238174  21.2207775  61.6803322  34.2286224  21.5586090  62.2024384
  35.2165604  20.1846485  62.0058060  36.3268776  21.9773502  62.0573082
  37.2161484  21.3966427  61.8122025  36.3667603  22.8825359  61.4513817
  36.4389229  22.2472038  63.5195770  37.3409500  22.6033649  63.8017006
  35.7382507  22.8920403  63.8562546  36.3128281  21.4497414  64.1264191
  32.0755692  22.3161659  59.0688400  32.4279900  23.4709244  59.3189125
  31.3479671  22.0233192  57.9549484  31.2112427  21.0375137  57.7829247
  31.0991783  22.9973431  56.8823013  31.9851189  23.5867348  56.6460037
  30.4625778  22.3288231  55.6058922  29.6463966  21.6587753  55.8760490
  30.0225697  23.3759804  54.5440063  29.7001877  22.8480530  53.6465302
  29.1963730  23.8999214  55.0246162  30.8416519  24.0232086  54.2304802
  31.6212120  21.4540787  54.9150658  32.0969009  22.0059280  54.1043358
  32.2921371  21.0219688  55.6575203  30.9559155  20.3258610  54.1288223
  30.0769405  20.0154438  54.6937561  30.6295052  20.7096691  53.1622581
  31.6848469  19.5599499  53.8639793  30.2436714  24.1449108  57.4558372
  30.5844002  25.3029385  57.2601776  29.1938152  23.7804890  58.2377281
  29.1575413  22.7951508  58.4565659  28.2514210  24.7000370  58.9037247
  27.9091644  25.3784828  58.1222725  26.9431381  24.0165920  59.3967056
  27.2449055  23.3427277  60.1985474  26.0229912  25.0758514  59.9449921
  26.4161816  25.5228443  60.8580666  26.0655117  25.9264545  59.2647209
  24.9904842  24.7537613  60.0802193  26.2242279  23.2618046  58.2518692
  25.6954193  23.9710045  57.6150818  26.9252815  22.7692623  57.5780563
  25.3416939  22.1751328  58.9462357  25.8214417  21.6090450  59.7446671
  24.4266453  22.5563450  59.3995132  25.0618763  21.4521027  58.1800613
  28.9630585  25.4686241  60.0818024  28.7853241  26.6495857  60.1201401
  29.9759998  24.9009800  60.7856865  29.9573250  23.8953419  60.6938133
  30.9636917  25.5668449  61.7209129  30.4770088  26.1530209  62.5004234
  31.8555851  24.5363026  62.4594345  31.2675400  23.7506275  62.9337921
  32.3937492  23.9795055  61.6923180  32.8074303  25.2205334  63.4330864
  33.3490219  25.9826813  62.8728104  32.1569443  25.6743279  64.1807785
  33.8394852  24.2643604  63.9609337  35.0549583  24.5596027  63.8888474
  33.4307327  23.1647224  64.3450851  31.9251556  26.5882072  60.9892540
  32.1098671  27.6456413  61.5664673  32.4594383  26.3036575  59.7402153
  32.1616211  25.4865952  59.2265854  33.2569656  27.2944412  59.0191536
  34.0363159  27.7088928  59.6586418  34.0090866  26.5622654  57.8397903
  33.2896461  25.9966583  57.2476845  34.4657860  27.2906055  57.1696815
  35.1395378  25.7124233  58.3084412  34.8165283  24.7982006  58.8064003
  35.5610771  25.4109707  57.3495216  36.2065468  26.4609528  59.1052856
  36.4878960  27.6228619  58.8740730  36.8702087  25.8158951  59.9446526
  32.3683395  28.3760147  58.3711319  32.8027649  29.5205708  58.1748695
  31.0799046  28.0811405  57.9768143  30.7145977  27.1434097  58.0623322
  30.3575268  28.9973736  57.1161079  30.9307938  29.8577671  56.7708664
  30.0537071  28.2514896  55.8655701  29.5202446  27.3501396  56.1673737
  29.4592209  28.9404716  55.2655716  31.1982269  27.8463688  54.9670868
  31.6911259  28.6700840  54.2347946  31.5723457  26.5647717  54.9320183
  32.4681664  26.3791676  54.5040436  31.1455841  25.9885674  55.6433258
  29.1237316  29.5304489  57.8292046  28.3625698  30.2924366  57.2651901
  28.7333508  29.0853920  59.0592194  29.3557758  28.4705791  59.5638924
  27.6025276  29.5955620  59.9560089  27.6157074  28.8298798  60.7316780
  28.0269279  30.9632320  60.5347176  28.1727638  31.6972160  59.7421913
  27.3107815  31.2223129  61.3145332  29.3391209  30.9863052  61.1170998
  29.7010193  30.4074593  62.3370781  29.1129742  29.8946838  62.9784546
  31.0391121  30.4978371  62.5027390  31.6414566  30.0193558  63.2607918
  31.4973183  31.1857834  61.5074387  32.4654465  31.2980995  61.2424583
  30.5028706  31.5715923  60.6273193  30.6578903  32.0383339  59.6658020
  26.1365738  29.5733967  59.4118729  25.4195175  30.5329018  59.5864067
  25.8588734  28.4571476  58.6779327  26.6270218  27.8294582  58.4880257
  24.7396622  28.3103733  57.7179642  24.5287037  29.1704273  57.0824242
  25.0386581  27.1507702  56.7191429  24.9810123  26.1506310  57.1486778
  24.1718388  27.2231159  55.4842110  24.3988018  26.3798027  54.8319778
  23.1211128  27.1057281  55.7493515  24.3343239  28.1875038  55.0029068
  26.3448315  27.2347527  56.2388229  26.3393974  28.0074749  55.6692009
  23.4384308  27.9192562  58.4299545  23.3954964  26.9163208  59.1962700
  22.3483849  28.6332321  58.2114372  22.4227486  29.3605766  57.5146332
  20.9795322  28.3380585  58.6728058  21.0727787  27.6276875  59.4942589
  20.3109074  29.6453209  59.1170425  19.2929726  29.4666824  59.4634476
  20.9145870  29.9908218  59.9562683  20.2290020  30.7991161  58.2077675
  21.1849251  30.8815308  57.6905441  19.3962803  30.6835232  57.5139999
  19.8956776  32.0546951  59.0072136  18.9904251  31.9107685  59.5970459
  20.7049675  32.3578339  59.6714821  19.8471069  33.3709679  58.1323967
  19.9154510  34.2623444  58.7560005  20.7060089  33.3060341  57.4644394
  18.6078281  33.4681740  57.3744888  18.7803764  33.0002823  56.4961929
  17.8043404  33.0673332  57.8369141  18.3579159  34.4295883  57.1919327
  20.2017059  27.5761032  57.5943871  20.1674557  28.0527039  56.4622192
  19.4367962  26.4959641  57.8605385  19.2422562  25.8291073  59.1420174
  18.7476521  26.4695816  59.8722610  20.1986504  25.4900055  59.5400391
  18.2675438  24.6715755  58.9999352  17.5098286  24.8428612  59.7645454
  18.7315655  23.7126484  59.2306824  17.6634083  24.8503704  57.6039925
  16.7358952  25.3967152  57.7752380  17.5373077  23.9081268  57.0707169
  18.5808468  25.8740063  56.8609276  19.3138618  25.3408508  56.2554970
  17.7762451  26.7406292  55.9005089  17.6464825  26.3956909  54.7587090
  17.2024269  27.8650570  56.4386024  17.3698368  28.1344891  57.3974991
  16.5287418  28.9237595  55.6565781  15.6148024  28.4504108  55.2977448
  16.2880383  30.1163254  56.6419640  15.6628685  29.8130302  57.4817696
  17.2244892  30.4537373  57.0861626  15.7303429  31.4211540  56.0726471
  16.5277061  31.9588966  55.5596695  14.9071093  31.2635269  55.3758316
  15.2837038  32.3263168  57.1931267  14.0529947  32.5393829  57.2238083
  16.0340042  32.8289757  58.0552139  17.1070042  29.3276653  54.3456841
  16.4478436  29.5227833  53.3611145  18.4250946  29.5067348  54.3581161
  18.9408150  29.2618561  55.1912842  19.2218266  30.1060696  53.2461624
  18.5759449  30.9294338  52.9411926  20.5821514  30.6549244  53.8041611
  21.1448040  29.8786469  54.3227348  21.0815601  31.1406326  52.9658432
  20.2808399  31.8075485  54.7857170  21.2747326  32.2120514  55.4626160
  19.1726856  32.2607841  54.8707809  19.4981861  28.9608059  52.2267151
  19.9176788  29.2085686  51.0978661  19.3429661  27.6618919  52.6572380
  18.9734211  27.4212227  53.5658722  19.7870407  26.4852886  51.8422318
  20.7735043  26.7110405  51.4372215  20.0886707  25.2396431  52.6694717
  19.1696129  24.9227352  53.1624298  20.6850872  24.1486797  51.7875252
  20.7434769  23.2522526  52.4048653  20.0327568  24.0533447  50.9194946
  21.7267990  24.3545036  51.5414047  21.0695744  25.6441879  53.8374329
  20.6595135  26.4816151  54.4019356  21.1556911  24.7666416  54.4782104
  22.0285759  25.8396473  53.3576393  18.7397747  26.2456856  50.7662582
  17.5917568  25.8083038  51.0121651  19.1855412  26.6670914  49.5910225
  20.1245728  27.0383663  49.5692673  18.4688206  26.5203266  48.2650032
  17.5562820  27.1164436  48.2609482  19.3225746  27.1045589  47.0982132
  20.2386284  26.5138855  47.0910835  18.6128445  26.9628334  45.7421570
  17.5878849  27.3304539  45.7913818  19.2354565  27.4765263  45.0096436
  18.5282402  25.9143791  45.4563522  19.6400433  28.6166935  47.4675064
  20.2623463  28.6740570  48.3605614  20.1758461  29.0466671  46.6212578
  18.7611923  29.2561150  47.5503578  18.2179966  25.0116558  48.0323906
  17.0762444  24.6177254  47.7786522  19.2833004  24.2260952  48.1788750
  20.1700020  24.5984516  48.4874382  19.1850777  22.7362766  48.0179939
  18.5183659  22.3979797  48.8111839  18.8978634  22.5416603  46.5353661
  18.4165058  21.5679054  46.4448090  18.0735092  23.2030430  46.2686958
  19.9664497  22.6473618  45.4890671  20.7074203  23.4155445  45.7103271
  20.5205326  21.7114944  45.5614967  19.4313583  22.9620514  44.0861893
  18.3795242  23.5543518  43.8628693  20.0885105  22.4960499  43.0783195
  21.0466499  22.1769600  43.0625000  19.6596546  22.5633850  42.1663704
  20.5254517  22.1291790  48.4191513  21.4644184  22.8716106  48.6006165
  20.5540161  20.7436447  48.6079941  19.6618729  20.3265686  48.3838806
  21.6901913  19.9893322  49.0323105  22.5699959  20.6321869  49.0602760
  21.4674416  19.4204178  50.4680710  21.4286785  20.2530746  51.1704102
  20.4416790  19.0870914  50.6255760  22.5041981  18.4030457  50.9562302
  22.0261097  18.0630474  51.8748894  22.4970036  17.6577854  50.1608505
  24.1799755  18.9743195  51.2649422  23.9452686  19.8276730  52.8073082
  22.9928417  19.5390892  53.2519417  24.7215519  19.5191936  53.5075378
  24.0606747  20.9105091  52.7598534  21.9986877  18.9612427  47.9316216
  21.0578899  18.2235813  47.5043983  23.3054314  18.7687893  47.6120148
  24.0547810  19.4016171  47.8530579  23.7452793  17.6803741  46.7790680
  22.9346104  16.9560757  46.8585548  24.0418415  18.2052155  45.3590164
  23.1259365  18.7213459  45.0712166  24.7737904  18.9838905  45.5735435
  24.6951714  17.2654591  44.3569298  25.5126877  16.8184338  44.9225655
  23.7033062  16.1576176  43.9714050  22.8595638  16.6097946  43.4501343
  24.1950951  15.3371019  43.4489136  23.3047504  15.6947908  44.8742027
  25.2598534  18.0499249  43.1669540  24.5640526  18.7656174  42.7290649
  26.0530663  18.7142448  43.5098686  25.5632896  17.2319527  42.5135422
  24.9261322  16.9863853  47.3738861  25.8298416  17.5685406  47.9289093
  24.7954216  15.6696119  47.3856812  23.9294453  15.1529655  47.3285484
  25.9615707  14.7995739  47.7664261  26.8029633  15.4236965  48.0674820
  25.5120583  13.9144573  48.9122314  24.5532818  13.4062710  48.8093033
  26.3296280  13.2127218  49.0773087  25.3187408  14.7659073  50.2170334
  25.9101677  15.6798191  50.1615410  23.8316879  15.0450821  50.5002403
  23.2214870  14.1433477  50.5514297  23.7680492  15.6641150  51.3951416
  23.5396347  15.6445417  49.6379967  25.8382359  14.0226326  51.4020767
  26.8341522  13.6190348  51.2194290  25.7459908  14.5335770  52.3604736
  25.2782288  13.0944672  51.5161018  26.3896103  13.9749784  46.5246162
  25.5989151  13.9519558  45.6129036  27.5560913  13.3001375  46.5696335
  28.1440868  13.3284264  47.3903389  27.8079376  12.1812277  45.6418648
  26.8055305  11.8002558  45.4465675  28.3535023  12.7332449  44.3204842
  28.5728760  11.8501673  43.7203560  27.5561485  13.3426323  43.8950729
  29.5776138  13.4159460  44.4955101  29.9744949  13.5072117  43.6261673
  28.7359276  11.1923685  46.2759056  29.5994034  11.4914026  47.0992012
  28.5474739   9.9129839  45.9005737  27.7415028   9.6677876  45.3434486
  29.3597717   8.7745934  46.4069252  30.1696777   9.1786137  47.0143127
  28.5020599   7.8934450  47.2838440  29.0170345   6.9959979  47.6266136
  28.1707573   8.4832211  48.1385345  27.5496578   7.5742650  46.8605652
  30.0311050   7.9711633  45.2704391  29.5634651   7.9422336  44.2133293
  31.1019459   7.2997227  45.6717567  31.5492496   7.4443636  46.5656815
  31.7877464   6.3080735  44.8644676  31.7484093   6.7710528  43.8784637
  33.2789001   6.3434229  45.2633934  33.8457565   5.6448579  44.6479340
  34.0011559   7.6477575  44.9905739  33.5931396   8.5026417  45.5298271
  35.0235901   7.5478535  45.3549194  33.9525490   7.9483514  43.9439659
  33.5038681   5.9396310  46.6434441  33.4968910   4.9927473  46.8014450
  31.1556396   4.8874063  44.8047180  30.5981655   4.4839277  45.8324509
  31.3649445   4.1133509  43.7074852  32.0576668   4.6185846  42.4546280
  33.1121292   4.5760431  42.7273827  31.7158489   5.6006188  42.1277161
  31.7258434   3.6333020  41.3418159  32.4901276   3.4791296  40.5801086
  30.7752151   3.9189246  40.8914566  31.4803696   2.3417528  42.0846519
  32.4705315   1.8954914  42.1770401  30.7872009   1.6293721  41.6372948
  30.9013939   2.7313313  43.4474220  29.8198109   2.7245653  43.3123932
  31.1478729   1.5857469  44.4051361  30.4866791   0.5604563  44.1511078
  31.9447002   1.7159587  45.4361839  32.2855148   2.6571407  45.5708046
  32.1935921   0.7728292  46.5468826  32.0612793  -0.2710859  46.2625694
  33.6410828   0.9243665  46.8828239  33.8347778   0.6362323  47.9160538
  34.1614494   0.2945156  46.1612968  34.2596169   2.2870066  46.7599640
  35.4901848   2.3083100  46.5634689  33.5774193   3.3429728  46.7102890
  31.3183918   1.0086505  47.8527260  31.1886826   0.0479410  48.6410866
  30.6856289   2.1637440  48.0091629  30.8406506   2.8693650  47.3033524
  29.6213131   2.4388475  49.0008965  29.8129311   1.8785897  49.9160423
  29.7045116   3.9465117  49.2670403  29.4751911   4.5092282  48.3621292
  29.0200119   4.3001328  50.0380859  31.0836105   4.5188727  49.5442238
  31.7414665   4.5436940  48.6754837  31.0124969   6.0196786  49.9032745
  31.9759407   6.3684382  50.2750854  30.7711487   6.5237484  48.9674530
  30.2481594   6.2036185  50.6582985  31.7604332   3.8259034  50.7665863
  31.1671181   3.8639951  51.6801605  32.0012474   2.7782166  50.5864182
  32.6814575   4.3490067  51.0238457  28.2616539   1.9410024  48.4861221
  27.7472916   2.4457822  47.4665833  27.5207977   1.1104904  49.2890778
  28.0131340   0.6074178  50.0133858  26.0789604   0.6976619  48.9664650
  25.5742798   1.5049436  48.4357185  26.0457764  -0.6820695  48.2516174
  25.7703629  -1.4586327  48.9651947  25.0961037  -0.5728813  47.7278824
  27.1756859  -1.0721598  47.3131981  28.4141083  -1.4695346  47.6438751
  28.6636906  -1.5276449  48.6208267  29.1699524  -1.5705479  46.6093750
  30.2312565  -1.7684861  46.6387024  28.5089951  -1.2401134  45.4949265
  28.8484974  -0.9789701  44.5802422  27.2166367  -0.9886943  45.9173584
  26.3393269  -0.8220173  45.3099442  25.2078590   0.5700309  50.1508865
  23.9732323   0.4723692  49.9229469  25.6862564   0.5441645  51.3371277
  26.6887665   0.5189483  51.4572868  24.9066868   0.3747266  52.6226158
  24.5387917  -0.6494695  52.5611649  25.9497318   0.5087070  53.7875023
  26.3471222   1.5222590  53.8413086  25.3169117   0.4890155  54.6747742
  26.6376228  -0.3291909  53.9007759  23.6826305   1.3174964  52.9101791
  22.7764969   0.8053544  53.5818825  23.6919136   2.5949047  52.4807739
  24.4476719   2.8477216  51.8602829  22.6638851   3.5845616  52.7641449
  21.6585484   3.2462404  52.5132713  22.5559845   3.9653733  54.2434540
  22.2319050   3.0664754  54.7679138  23.8890533   4.4296436  54.7966194
  24.2529602   5.2908573  54.2362823  23.8183613   4.8143148  55.8140335
  24.6055298   3.6089537  54.7614861  21.5499821   5.0752778  54.5764771
  22.0649185   5.9829764  54.2617989  20.5251980   4.9531074  54.2257690
  21.3420200   5.1759410  55.6417084  22.8938828   4.8946967  51.9591408
  24.0757580   5.1898355  51.7922211  21.8606739   5.6288214  51.6095467
  20.9188423   5.3786101  51.8749657  22.0626621   6.9606137  50.9429169
  22.8721447   6.8121085  50.2282219  20.8543282   7.4229116  50.1862488
  20.0083904   7.3926396  50.8729630  21.1772461   8.3735991  49.7619629
  20.4655457   6.5699763  49.0083122  19.3147888   5.7697506  49.0540314
  18.6959248   5.6825809  49.9348297  18.8137150   5.1402841  47.8480263
  17.9778271   4.4596944  47.7809715  19.5671349   5.2855148  46.6575775
  19.3253765   4.7399497  45.7573967  20.6870270   6.0716891  46.6205215
  21.2263527   6.2728286  45.7066956  21.1254158   6.7073865  47.7915459
  22.0052757   7.3308992  47.7325401  22.6707268   7.9754047  51.9966736
  22.0393677   8.3441496  52.9576378  23.8458385   8.6241150  51.6102448
  24.5292664   8.6760731  50.3781204  23.9466724   8.6544819  49.4571342
  25.1258163   7.7780104  50.5384750  25.5380268   9.8408356  50.3554497
  25.1203384  10.7957506  50.0364265  26.4199390   9.5179777  49.8021927
  25.8386116   9.9266272  51.8868866  26.2585506  10.9069204  52.1122246
  26.6100578   9.1698208  52.0290833  24.5081596   9.5810070  52.5531120
  24.6939793   9.2831860  53.5850410  23.6618328  10.8379860  52.8132477
  23.7547321  11.3694210  53.9042892  22.7275219  11.1164474  51.9261627
  22.6506920  10.3924341  51.2261581  21.6541405  12.0609350  52.1569214
  22.0219097  13.0836029  52.2405663  20.7711887  11.9644966  50.9568520
  21.3062096  12.0874243  50.0151901  20.2359581  11.0298233  50.7894707
  20.0408516  12.7701483  50.8817863  20.8858376  11.8464346  53.4873199
  20.5049591  12.8071003  54.0744553  20.6768322  10.5810843  53.9945297
  20.9981022   9.8577871  53.3670502  20.0724030  10.2175512  55.2974243
  19.0352783  10.5494480  55.3455734  20.0120411   8.6757259  55.5464058
  19.7252426   8.1501198  54.6355896  20.9650364   8.3829708  55.9870834
  18.9887238   8.2798166  56.5753517  19.3439999   8.4995575  57.5821266
  18.1150131   8.9123669  56.4184532  18.7407589   6.7562485  56.5038528
  18.4348316   6.5447884  55.4792595  19.6102200   6.2015386  56.8566093
  17.6010990   6.3101058  57.4838791  17.7327099   5.2726955  57.7913933
  17.7509975   6.9985948  58.3155098  16.2455482   6.4503331  56.9099693
  16.2359066   6.1946568  55.9329109  15.4851542   5.9236794  57.3156013
  16.0228100   7.4267998  56.7795868  20.7190971  10.8282099  56.5229912
  20.0728989  10.8564825  57.5878258  21.9216061  11.3910265  56.4320831
  22.3520451  11.3700933  55.5186310  22.6775532  12.0990114  57.4818687
  22.2446194  11.5313311  58.3055229  24.1465130  11.6897688  57.4076347
  24.2790375  10.6812840  57.0158615  24.6317463  12.4772902  56.8310394
  24.6642132  11.7169514  58.3664627  22.4014149  13.5472355  57.6438980
  22.9375477  14.1466627  58.5261955  21.5395317  14.1079388  56.7599983
  21.0916271  13.5471716  56.0493469  21.2334423  15.6062775  56.8546257
  22.1350231  16.1055431  57.2095718  20.9216881  16.1960983  55.4095306
  20.0190048  15.7226324  55.0233994  20.7213955  17.7042885  55.3144531
  21.6602230  18.1415539  55.6543083  20.5068569  17.9530087  54.2751198
  19.8959007  18.1332951  55.8824348  22.1517315  15.9580488  54.4435425
  22.9566708  16.5356312  54.8980484  22.4275646  14.9113197  54.3155785
  21.8868427  16.3873558  53.4772987  20.2257252  16.0152798  57.9136200
  20.5598412  16.8181114  58.7764702  18.9597569  15.4697418  57.8420486
  18.8033409  14.8188219  57.0857811  17.8959045  15.6279736  58.8886642
  17.5700169  16.6479664  59.0924072  16.6087379  14.8746405  58.4769478
  15.7824612  14.9705048  59.1813469  16.3045425  15.2820368  57.5127945
  16.9321995  13.3279676  58.3725510  17.9169960  13.1346760  57.9472084
  17.1220856  12.8721762  59.3442993  15.7478590  12.5593529  57.7318573
  15.3980350  13.0382204  56.8173027  16.0932503  11.5502806  57.5069504
  14.5597906  12.4619036  58.5905495  13.9450407  13.2506247  58.7323303
  14.2818642  11.4197206  59.3563385  15.1115122  10.4318485  59.6306953
  16.0669613  10.5897560  59.3438454  14.8769398   9.7206354  60.3083801
  13.1285315  11.4394875  59.8195763  12.7499189  10.6960535  60.3888397
  12.5420828  12.2232428  59.5707664  18.1793003  15.1453533  60.3018227
  17.3850651  15.2798271  61.2558250  19.3798580  14.5568638  60.4607239
  20.0275364  14.5181036  59.6867027  19.9505939  14.3443918  61.8082657
  19.1348343  13.8131618  62.2986031  21.1854229  13.4187737  61.8064537
  21.9341278  13.9343328  61.2050056  21.5810509  13.1916361  62.7963982
  20.9017181  12.0903482  61.1476326  20.6287098  12.2657099  60.1070480
  21.8743553  11.6144714  61.0226517  19.9439793  11.0972433  61.9374313
  18.8297558  10.8105297  61.4502907  20.3737545  10.6455936  63.0315781
  20.2535553  15.6188135  62.5921669  20.1875095  15.6988525  63.8081474
  20.6752090  16.6353207  61.8333397  20.7467060  16.5143375  60.8331642
  20.7143803  17.9667969  62.3757172  21.0927505  17.8967152  63.3955345
  21.6888695  18.8913155  61.5565224  21.1629505  19.1026783  60.6254807
  21.7635841  19.8851681  61.9978561  23.1422195  18.3236980  61.1775742
  23.0994968  17.3232918  60.7469254  23.9235687  19.2439842  60.2698250
  23.3515072  19.8869553  59.6009254  24.6460400  19.8413506  60.8259621
  24.5637207  18.6389370  59.6277809  24.0854759  18.0824184  62.3542290
  24.1832123  18.9994965  62.9351883  23.5358696  17.3778534  62.9784279
  24.9873199  17.6951523  61.8800964  19.3570328  18.6515045  62.3435631
  18.7053318  18.7799664  61.2740250  18.8795013  19.0596313  63.5306702
  19.4374580  19.0350399  64.3722076  17.5336437  19.5642681  63.6976662
  16.8227558  18.7739334  63.4566078  17.4035301  20.0993271  65.1251602
  18.0062218  21.0028534  65.2173767  16.4002399  20.4120426  65.4145050
  17.7331161  19.1738224  66.0626373  16.9819946  18.5912914  66.1970825
  17.1196690  20.7063904  62.7638969  17.8207893  21.6300926  62.5702858
  15.8833323  20.6433983  62.2496567  15.3736448  19.8740692  62.6600876
  15.1612644  21.6307182  61.4115982  14.1167917  21.3754501  61.2326622
  15.3001842  22.6369495  61.8069458  15.7551451  21.6511765  59.9856987
  15.3560791  22.5169125  59.2348137  16.7130852  20.8035984  59.5714989
  17.2476578  20.3320980  60.2870560  17.1218300  20.6047001  58.1627464
  17.2085648  21.5711308  57.6661682  18.5999928  20.0847664  58.1529465
  18.6329784  19.1436920  58.7019386  18.8837681  19.9289646  57.1121330
  19.6239662  21.0266190  58.5898399  19.8944778  21.4547768  59.8265495
  19.4036217  21.1965504  60.7532501  20.8564167  22.4305096  59.7967873
  21.2465763  22.9005489  60.6011124  21.3506107  22.6545238  58.5241890
  22.3853798  23.4106159  58.0425911  22.9439125  24.1495609  58.5979309
  22.7558918  23.2046604  56.7166481  23.6091633  23.7245770  56.3067513
  22.1196785  22.2794533  55.9165649  22.5825310  21.8833199  55.0247993
  21.0387211  21.6098785  56.4590454  20.5160122  20.8307476  55.9241371
  20.6781273  21.6979160  57.7942276  16.1409416  19.7975578  57.3638802
  16.3891468  19.4575138  56.1796799  14.9685593  19.4958916  57.9069252
  14.9368114  19.7742462  58.8772964  14.1121273  18.4783669  57.3244705
  14.6654892  17.6839790  56.8236313  13.3768291  17.7034798  58.4502144
  12.8456774  16.7897892  58.1834793  14.1290693  17.3614254  59.1610146
  12.4225578  18.6481590  59.3102036  13.0939465  19.3547497  59.7981262
  11.7209949  19.2668400  58.7506142  11.8113470  17.8097363  60.4152260
  12.0028563  16.6077213  60.7584648  10.9983988  18.5346775  61.1490746
  10.9834766  19.5445271  61.1580772  10.3328581  18.0091972  61.6977348
  13.2095814  19.0073147  56.2117271  12.6234875  18.1265163  55.5629692
  13.1642199  20.3373775  56.0130997  13.6934681  20.9835033  56.5810051
  12.4990034  20.9179001  54.8088036  11.8836031  20.1528072  54.3354988
  11.5610828  22.1479721  55.1247559  12.1549788  23.0613441  55.1584969
  10.9591141  22.2210484  54.2189980  10.6280994  22.0847168  56.3138924
   9.6466389  21.0530224  56.3829994   9.3507252  20.4533958  55.5348930
   8.9036350  20.9236107  57.5621452   8.0847759  20.2197342  57.5414467
   9.2797012  21.7181187  58.7202873   8.5588875  21.4843559  59.8264961
   8.7300472  22.2067604  60.4351311  10.3890352  22.6306934  58.6697884
  10.6748037  23.2405243  59.5140877  11.0200653  22.7921314  57.4352570
  11.8431435  23.4912472  57.4487305  13.4966640  21.3355751  53.7650299
  13.1417217  21.8183517  52.7138214  14.8138657  21.1396103  53.9503059
  15.1438713  20.7824230  54.8355293  15.8303032  21.3432045  52.9296455
  15.7944841  22.3824177  52.6027565  17.2644386  21.1588840  53.5388107
  17.3231411  20.2032509  54.0598030  18.3600998  21.2484035  52.5724487
  18.2487335  20.5604095  51.7343750  18.3808899  22.2876148  52.2442589
  19.3248863  20.9935436  53.0110207  17.6715031  22.1255074  54.6681099
  17.5736771  23.1609917  54.3420601  16.8883324  22.0308132  55.4202919
  18.6632881  21.9514809  55.0854568  15.5619802  20.3363075  51.8064613
  15.3092718  19.2305202  52.1133003  15.7554121  20.7272835  50.4942894
  15.7543898  22.0948467  50.0000496  16.7282162  22.5791626  49.9279366
  15.0951271  22.7265739  50.5953636  15.0552130  21.9728107  48.6210098
  15.2585888  22.8451290  47.9998817  14.0037479  22.0271664  48.9030876
  15.5316210  20.6259499  48.0744972  16.4177418  20.9225597  47.5133286
  14.6749001  20.3654499  47.4529839  15.7452164  19.7608032  49.3592262
  14.9541731  19.0216694  49.4858589  17.1008587  18.9505501  49.3234482
  18.1020145  19.4825172  48.8604088  17.1066036  17.6873150  49.7682838
  16.2629070  17.3244209  50.1884995  18.2904434  16.8196335  49.7355690
  19.1376209  17.4972591  49.6296463  18.5724754  16.0586262  51.0380554
  17.7433529  15.3816967  51.2440262  19.9203892  15.3759041  50.9889069
  20.1181183  14.7378435  50.1275864  20.6639462  16.1627083  50.8617592
  20.1438160  14.7110767  51.8232841  18.7402382  17.0005264  52.3450394
  18.6134872  16.4097099  53.2522202  19.6963959  17.5238400  52.3426628
  18.0317364  17.8279667  52.3067665  18.3554535  15.8702068  48.4709969
  17.4595795  15.0768185  48.2534065  19.4309597  15.9875450  47.6694984
  20.1983719  16.6119957  47.8725739  19.6623096  15.1944609  46.4298096
  18.8551521  14.4624147  46.4031219  19.6471024  15.9707985  45.1459312
  19.8084717  15.3547983  44.2612801  18.3052406  16.7158527  44.9047356
  17.4853840  16.0004177  44.8407326  18.0590229  17.5656757  45.5413513
  18.4227352  17.0512371  43.8742943  20.6584129  16.9942436  45.0405273
  20.6905746  17.4026756  45.9087143  20.9955101  14.4153433  46.5413666
  21.8579178  14.7132425  47.3673744  21.0524521  13.3082705  45.8201141
  20.2838459  13.0058250  45.2388458  22.2377529  12.4211349  45.8631325
  23.1057186  13.0502357  46.0605354  22.0939255  11.3461809  46.8756485
  21.8172684  11.9206495  47.7597008  21.3474865  10.6265802  46.5393410
  23.6374054  10.5551319  47.1120071  23.5142403   9.5067434  46.2930946
  22.4133930  11.8072844  44.4067459  21.4610596  11.3231592  43.8350945
  23.6359978  11.7376566  43.9560852  24.2874222  12.2210541  44.5578117
  24.1595650  11.0977287  42.7507668  23.2834682  10.5734940  42.3690071
  24.5456734  12.0747156  41.6868019  24.6872749  11.6236219  40.7046814
  23.7060299  12.7383366  41.4801445  25.6867828  13.0336895  42.1082344
  25.6741467  13.2275658  43.1807785  26.6348915  12.5187273  41.9533043
  25.6938877  14.6904860  41.3567162  27.4145336  15.0895214  41.6776123
  27.6491585  15.9963350  41.1201706  27.5218468  15.2904148  42.7435493
  28.1081772  14.2724266  41.4793282  25.2739182  10.0270805  43.0501862
  25.8919106   9.9401569  44.1367798  25.6234188   9.1790285  42.0943108
  25.0516071   9.2574615  41.2654686  26.9146900   8.5855742  41.9585953
  27.3033447   8.3554754  42.9506149  26.8146877   7.2992249  41.1077690
  25.8248463   6.8471875  41.1708107  26.7760658   7.7052069  40.0969276
  27.9524326   6.2823696  41.1309433  27.9552383   5.8873715  40.1150360
  28.9478989   6.7246213  41.1704636  27.7678204   5.2095637  42.1620674
  27.2034016   4.1935568  41.8450089  28.2192440   5.3974257  43.3898926
  28.7902355   6.1895962  43.6478386  28.2308884   4.6310921  44.0476913
  27.8982944   9.6064215  41.3862991  27.6771259  10.3220215  40.4248848
  29.1831474   9.6230879  41.8939667  29.4287796   8.8970337  42.5516968
  30.2435646  10.3252983  41.2110786  29.8485260  11.2475061  40.7849617
  31.3882961  10.6791382  42.2444382  30.9646187  11.0571213  43.1748810
  31.9166622   9.7797432  42.5606880  32.4206085  11.7611761  41.7512779
  33.3886032  11.4611158  42.1525879  32.6124153  11.6053591  40.6896591
  32.0315819  13.2986059  41.9744835  32.9663124  14.1646318  41.9458847
  30.8499241  13.5865440  42.0603256  30.9072266   9.5242310  40.0556717
  31.1488171   8.3055429  40.1775093  31.2771664  10.1638899  38.9518814
  31.1401749  11.1640272  38.9193420  31.8639965   9.5716581  37.7370796
  31.0609379   9.1185017  37.1558342  32.3909531  10.7926083  36.8606567
  31.5064373  11.3505354  36.5533295  33.0014267  11.5496979  37.3528328
  33.1302986  10.4015932  35.5913620  33.9469604   9.8136368  36.0102539
  32.4501457   9.8062944  34.9821701  33.9066429  11.7397890  34.6898270
  35.0138321  10.7122421  33.7189751  35.6344414  10.0510511  34.3237648
  34.3102188  10.0950518  33.1603127  35.6219826  11.4232607  33.1597748
  32.9111671   8.5104513  37.9141617  33.9271812   8.6828337  38.6063995
  32.7719955   7.3477759  37.3024826  31.8965778   7.1240878  36.8511353
  33.8179703   6.3860278  37.4162598  33.9262695   6.2441111  38.4915428
  33.3472939   4.9899602  36.9202423  32.4263992   4.6690488  37.4071388
  32.9623909   5.1617980  35.9150429  34.4420929   3.8701599  37.0030136
  34.5499611   3.1074255  36.0419197  35.2824249   3.9387376  37.9481697
  35.1758423   6.7992687  36.7921143  35.1737099   7.1386070  35.5722351
  36.3077202   6.8469195  37.6099892  36.1519203   6.5842609  38.5727158
  37.7080269   7.1965227  37.2082100  37.6899414   6.9550548  36.1454430
  38.0064964   8.7303123  37.5392609  37.6731796   8.9409218  38.5554543
  39.5072670   9.0349045  37.5015488  39.7786903   8.6794882  36.5075111
  39.5842667  10.1217136  37.5334740  40.0674667   8.5306644  38.2889633
  37.3147469   9.6592846  36.5786629  37.7326126   9.5651703  35.5763550
  36.2620125   9.3835363  36.5168686  37.5653877  10.7007313  36.7803230
  38.7627449   6.2678018  37.8761101  38.6595650   6.0033407  39.0525246
  39.6709061   5.6580830  37.1197357  39.6301079   5.8138485  36.1226540
  40.7256775   4.7374511  37.6041527  40.1986809   3.9840751  38.1896477
  41.3725090   3.9591868  36.4231720  40.5280113   3.6893146  35.7890625
  42.4322357   4.8614249  35.7080383  42.6663094   4.4255304  34.7368011
  42.0032158   5.8457179  35.5204048  43.3983421   5.0169921  36.1881905
  41.9548340   2.8191321  36.8623466  41.2004395   2.2391987  36.9894905
  41.7587166   5.4108524  38.4978065  42.2476807   6.5276542  38.2109413
  42.0684624   4.6924205  39.6200905  41.7432518   3.7710721  39.8759308
  42.9488449   5.3340592  40.7098541  43.2278290   4.5324054  41.3936806
  43.8730392   5.6589384  40.2319221  42.2784195   6.4589314  41.5427322
  42.9233437   6.9149332  42.5045547  41.0152931   6.9071536  41.3191528
  40.5564842   6.5637693  40.4874763  40.3314743   7.9469600  42.0283508
  40.8935089   8.8808384  42.0191269  39.3512573   8.0979500  41.5761604
  40.1122208   7.4295149  43.4186821  39.8925858   6.2383671  43.7048607
  40.2257042   8.3197508  44.4103432  40.3987122   9.2897921  44.1885605
  40.2366600   7.9436712  45.8423653  41.1055946   7.3379879  46.0996666
  40.4057159   9.2792721  46.6240921  41.2510490   9.7904406  46.1634178
  39.4378510   9.7080164  46.3642616  40.7240524   9.0955133  48.1364365
  40.1545105   8.2875423  48.5956917  42.1466064   8.8137712  48.3601265
  42.3758736   7.8352208  47.9382591  42.7926674   9.5388012  47.8651161
  42.4083138   8.7660694  49.4171677  40.4798698  10.3828764  48.8647690
  41.0699883  11.1504641  48.3641090  39.4082146  10.5705252  48.7981071
  40.6357918  10.2624264  49.9368134  39.0399780   7.0921946  46.2102585
  37.8853798   7.4744444  46.1319160  39.3360405   5.8196907  46.6697769
  40.2862320   5.5427337  46.4684525  38.3095894   4.7986135  47.0250206
  37.6659927   4.5995655  46.1681252  38.9599724   3.4354765  47.3090324
  39.6633606   3.6320767  48.1181641  38.1866074   2.7717204  47.6956024
  39.6500969   2.7345581  46.0895119  40.2067642   3.4454684  45.4789124
  40.4409599   2.1151171  46.5125122  38.7513123   2.0044200  45.1687927
  38.1395683   1.2970616  45.7287140  38.0652695   2.6482358  44.6183777
  39.6905251   1.1787732  44.1862793  40.3433113   1.9453567  43.7687645
  40.2844467   0.4462867  44.7329254  38.9813919   0.5439960  43.0820389
  38.5842056  -0.3015512  43.4659615  38.2744408   1.1455805  42.6840248
  39.6423225   0.2410906  42.3809547  37.4319458   5.2072396  48.1883736
  37.8328362   5.9175544  49.1316528  36.1881523   4.7136436  48.1522408
  35.9753532   3.9933069  47.4770126  35.2288170   4.8480873  49.2416878
  34.2068863   4.5729871  48.9807625  35.6542740   3.9266899  50.4540977
  36.7137527   4.1315718  50.6078110  35.1759262   4.1118832  51.4158669
  35.3892250   2.4674010  50.0582314  34.3265724   2.4080677  49.8229752
  35.8934860   2.3310916  49.1015511  35.7490273   1.4710059  51.1123810
  34.9705200   1.2931621  51.8542709  35.7919769   0.5586452  50.5175209
  37.1339226   1.6744599  51.6605911  37.7059555   1.8889897  50.7578926
  37.0657349   2.4817717  52.3897667  37.7310677   0.4076664  52.1474190
  37.1530113  -0.0096009  52.8628540  37.6800652  -0.3637058  51.4974327
  38.6579437   0.5913174  52.5041809  35.0608940   6.3669052  49.6779060
  34.7927971   6.5433578  50.8736382  35.2034073   7.3480177  48.7841225
  35.1202965   7.0903759  47.8110809  35.0027885   8.7738266  49.1232681
  35.2914200   8.8968077  50.1671410  35.8850403   9.6783075  48.2199554
  36.9104271   9.3245029  48.3271866  35.5472145   9.6811686  47.1836357
  35.8615494  11.4164133  48.7784653  36.2211800  11.1379671  50.0346642
  33.5208130   9.2279091  49.0550079  32.8917160   8.9247665  48.0319939
  33.0538406   9.9774771  50.0776558  33.7524490  10.1730461  50.7803650
  31.7930775  10.7297506  50.1555710  31.1861935  10.3445873  49.3361549
  30.9981174  10.5478449  51.4762039  31.5133743  11.0862131  52.2716789
  29.5688763  11.0973215  51.3684578  29.1294937  11.1883469  52.3618164
  29.4661026  12.0703373  50.8880653  29.0020885  10.3840723  50.7700233
  30.8722382   9.0910721  51.9607277  30.5202236   8.4227619  51.1748848
  31.8510704   8.6788015  52.2057114  30.1838703   8.8124180  53.3208275
  30.5531521   7.8122535  53.5475349  30.3600712   9.5488892  54.1048317
  29.1132107   8.7149124  53.1411362  32.1184540  12.2283878  49.8900337
  32.8871956  12.8880072  50.6206093  31.5684338  12.7637796  48.7786789
  31.0549374  12.1164923  48.1977844  31.5998344  14.1853600  48.3546753
  32.3810654  14.6439571  48.9608650  32.0088387  14.3063288  46.8375244
  31.3597183  13.7413120  46.1685715  32.0761871  15.3689728  46.6043892
  33.4200211  13.7350731  46.6759834  34.1967850  14.1071825  47.3440208
  33.3860359  12.6676254  46.8939362  33.7773895  13.9015255  45.1722755
  33.0627708  13.2746162  44.6389809  33.6331139  14.9595966  44.9536858
  35.1441765  13.5113649  44.8181458  35.7756691  14.2948923  44.7321091
  35.6328506  12.2879543  44.4523201  34.9067612  11.1414003  44.4604721
  34.0504456  11.0042953  44.9781914  35.2893524  10.3457270  43.9699364
  36.8850288  12.2172003  44.0387840  37.4018364  13.0844231  44.0694618
  37.2347603  11.3659172  43.6227264  30.3206787  14.9618654  48.5772934
  29.2507629  14.3256950  48.7756538  30.4068756  16.2776909  48.6223831
  31.3077011  16.7217503  48.5154839  29.2544937  17.1467972  48.9999275
  28.3991013  16.6193943  48.5777168  29.0548420  17.2306767  50.5703278
  28.9645557  16.2559090  51.0496750  30.1157131  17.9418507  51.3448563
  31.0693684  17.4370842  51.1904182  30.2972031  18.9880409  51.0985832
  29.8620605  17.9832668  52.4041214  27.7058849  17.9135361  50.7857857
  26.9261131  17.4782372  50.1608238  27.3121662  17.7383900  51.7869911
  27.7420254  18.9629478  50.4933357  29.3119431  18.4802113  48.2344398
  30.3814240  19.0111828  47.9389915  28.1706657  19.0801620  47.8972244
  27.2946129  18.5973206  48.0368462  28.0295200  20.4710140  47.4283028
  28.8659859  20.9662037  47.9214668  28.2155762  20.5407295  45.9400406
  29.1734695  20.0942020  45.6732903  27.4133434  20.0331917  45.4043846
  28.3504009  22.0446987  45.5674438  27.3702888  22.5214462  45.5812759
  28.9264450  22.4452972  46.4015884  29.2553577  22.3499069  44.0140724
  27.9300823  21.6539001  42.8636856  28.4019508  21.3365974  41.9337654
  27.4798107  20.7826424  43.3393631  27.1260452  22.3606052  42.6582794
  26.7187576  21.1706791  47.9141655  25.6187630  20.8855381  47.4404640
  26.8171902  22.0366821  48.8769188  27.7022724  22.1812134  49.3415070
  25.6426468  22.6548901  49.5331116  24.7513962  22.0324116  49.4537849
  26.0525227  22.9772034  50.9394951  26.4877167  22.1449280  51.4926910
  26.8358631  23.7338867  50.9831734  24.8464775  23.4739819  51.7568359
  24.2683659  24.1558113  51.1331406  24.1359425  22.6742973  51.9659882
  25.1884937  24.1986084  53.3280258  26.2336178  22.8831692  54.0976601
  26.6628361  23.1424007  55.0654793  25.6835136  21.9448013  54.1680603
  27.0082169  22.6537628  53.3659058  25.3781300  23.9650803  48.7364197
  26.2982292  24.7920418  48.5462112  24.1148548  24.3337708  48.3050156
  23.2884254  23.7810421  48.4827957  23.8228760  25.6384964  47.6928177
  24.7172489  26.1863155  47.3960152  23.0812740  25.3792953  46.3680496
  22.1559277  24.8499413  46.5952454  22.7712841  26.5689507  45.5446739
  22.0842857  26.2024899  44.7818832  22.2833233  27.2827301  46.2083855
  23.6687698  26.9697704  45.0735435  23.6908913  24.4724579  45.4815445
  24.4611530  24.8682880  45.0672798  23.0758114  26.5920429  48.6177826
  21.9809666  26.2465916  49.1050529  23.6280460  27.7482910  48.9212875
  24.5586300  27.9407501  48.5791283  23.1432972  28.7744884  49.9133301
  22.2078247  28.3783474  50.3083801  24.0936584  28.8395195  51.1968346
  23.8027592  29.7205734  51.7688713  23.8963623  27.5713291  52.0800056
  24.7866020  27.5624313  52.7088890  23.0469532  27.7426491  52.7412605
  23.7653484  26.7130089  51.4210510  25.6143856  28.9295025  50.7881508
  26.0632401  28.0071163  50.4195976  25.6961803  29.6856060  50.0073051
  25.9662151  29.1866531  51.7872467  22.9286098  30.1317806  49.3847618
  23.7568893  30.7014503  48.7633133  21.8939724  30.8374805  49.8220062
  21.2590313  30.2941303  50.3892097  21.8131580  32.2786636  49.6876831
  22.1678715  32.5114975  48.6836586  20.3469276  32.6321793  49.8961258
  19.7879219  32.2132263  49.0594101  20.0198555  32.2761154  50.8730278
  20.0379868  34.1240616  49.9558258  20.2456665  34.5552711  50.9351273
  20.6720333  34.6186676  49.2199936  18.6693096  34.4164238  49.4685364
  18.4358444  34.2978325  48.2896843  17.7808743  34.9855766  50.2413406
  18.0634041  35.3151169  51.1533089  16.8600101  35.2919846  49.9616585
  22.8058987  32.9948120  50.6105537  22.5978775  32.9160690  51.8452415
  23.8254433  33.7099533  50.0722313  23.8474598  33.7584763  49.0636368
  24.8973045  34.3958740  50.8002777  24.3668385  34.8338356  51.6458015
  26.0135784  33.3952293  51.2268867  25.5386105  32.7297668  51.9477654
  26.6564350  32.5048637  50.1579552  25.9050674  31.8876266  49.6654472
  27.1728992  33.1176605  49.4191399  27.3772621  31.7786369  50.5335846
  27.0757465  34.0396423  51.8827744  27.4403324  33.3438644  52.4346542
  25.5638790  35.5579834  49.9901352  25.7784443  35.4424133  48.8095436
  25.8545208  36.5785561  50.7605629  25.7262821  36.4122581  51.7484894
  26.6229706  37.8359871  50.3311348  26.5090981  37.9960556  49.2589798
  25.9247742  39.0185890  51.0716400  26.1592903  39.9163132  50.4996300
  24.8445568  38.8961525  50.9926491  26.2795143  39.2525558  52.5185699
  26.6203136  38.2563171  53.2627411  26.1846542  40.4357529  52.9790993
  28.1541424  37.9174881  50.7108612  28.8706455  38.9258080  50.5751839
  28.6507912  36.7191658  51.1462173  28.1330490  35.8657379  51.3001823
  30.1100311  36.5233002  51.2406693  30.5674210  37.4102364  51.6791115
  30.4362850  35.2778511  52.0381050  29.9144821  34.4196205  51.6147118
  31.9247894  34.8150635  52.2328720  32.3840866  34.5334663  51.2853241
  32.4811630  35.6049080  52.7375412  32.0200272  33.9978485  52.9478493
  29.9456539  35.3502884  53.4821129  30.3217258  36.3040504  53.8522568
  28.8642120  35.4258652  53.5955811  30.3645153  34.6155853  54.1697693
  30.8047638  36.3413467  49.8744049  30.2789974  35.5731773  48.9900551
  31.9882507  36.9607925  49.6823196  32.5107765  38.0659409  50.4648323
  32.7666969  37.6219864  51.4268684  31.8041401  38.8435860  50.7547340
  33.7057457  38.6328621  49.7748528  34.4504890  38.5295906  50.5640259
  33.6661263  39.6437302  49.3690453  34.0007362  37.6280098  48.6700363
  34.7508278  36.9429054  49.0651283  34.4378891  38.2094421  47.8582878
  32.7349396  36.8012352  48.4091454  32.1463051  37.4128571  47.7253799
  32.9778709  35.3701744  47.9923019  33.2323303  34.5894623  48.9298935
  33.1333351  35.1372414  46.6435890  33.0694237  35.9129677  45.9999542
  33.3067436  33.7521973  46.0986557  32.5288849  33.0952225  46.4877930
  33.2365723  33.8167458  44.6237144  32.2177696  34.0097771  44.2877388
  33.9157753  34.5618401  44.2094421  33.5638657  32.4302063  43.9682159
  34.5943336  32.1065178  44.1147385  32.8289413  31.7764359  44.4378662
  33.4723053  32.3740234  42.4995308  34.4142189  32.5597763  41.7380142
  32.3181725  32.0832672  41.9690628  31.4338360  31.9237270  42.4301453
  32.2436867  32.5244675  41.0635834  34.5698471  33.0475655  46.6246033
  34.5679054  31.8981552  46.9958878  35.6866417  33.8225250  46.7160759
  35.6153450  34.7785301  46.3981590  36.9881210  33.4571457  47.1230125
  37.3815117  32.6209564  46.5449753  38.0671883  34.5618973  46.8378143
  38.8523979  34.3884811  47.5736656  38.4467468  34.3617096  45.8358383
  37.6164589  36.0146408  46.9759483  36.4240456  36.3624001  46.8659630
  38.5343018  36.8793335  47.0561523  37.0151367  33.0699730  48.5985756
  37.9382019  32.3663101  49.0645790  36.0367203  33.6190338  49.4067726
  35.3605042  34.2290840  48.9701118  35.9560089  33.6342163  50.8027992
  36.9140701  33.2327232  51.1329842  35.9175301  35.0522423  51.3508377
  34.9822540  35.5137405  51.0340004  35.9125595  35.0084763  52.4399490
  37.1601524  35.8999138  50.9698982  38.0464363  35.5768013  51.5159721
  37.5073051  35.7509308  49.9474525  36.8748398  37.3762779  51.1856194
  36.2563133  37.8755493  52.1805000  37.2965355  38.3030090  50.3147011
  37.9545784  38.1418304  49.5656281  37.2583656  39.2695999  50.6051178
  34.8956604  32.6649055  51.3371925  34.5239258  32.6425018  52.4823647
  34.3581772  31.8356667  50.4374619  34.8150673  31.7699165  49.5391121
  33.5897217  30.6333923  50.7314873  33.0172844  30.8648338  51.6297379
  32.6350250  30.0857029  49.6040154  33.1480637  29.8869190  48.6630707
  31.9208889  28.7854671  49.9902115  32.5504456  27.8957958  50.0056877
  31.5159740  28.9316196  50.9916000  31.1693974  28.5614929  49.2331123
  31.6633835  31.1878643  49.2199097  32.2489700  32.0267982  48.8439064
  30.9138889  30.8739872  48.4933815  30.9299908  31.8117447  50.4321861
  30.2673435  32.5994682  50.0737152  30.3959732  30.9509258  50.8345718
  31.6012859  32.2514305  51.1698418  34.5698357  29.5601425  51.1676941
  35.5805321  29.3525276  50.4999619  34.3269920  28.8558350  52.2849884
  33.5683022  29.2482719  52.8239555  35.1724319  27.8949108  52.9055634
  36.1908646  27.9950790  52.5302467  35.2546272  28.1319618  54.4368324
  34.2691383  28.1420918  54.9024658  35.8850021  27.3322945  54.8257484
  35.9648476  29.4574127  54.7404327  36.9148140  29.3201523  54.2238770
  35.3742676  30.3183689  54.4272728  36.0828552  29.6202946  56.2397919
  35.1298523  30.0505733  56.5475960  36.3358688  28.6515961  56.6707268
  36.9911270  30.6854782  56.5777130  37.0044289  31.4813633  55.9560280
  37.9617424  30.6524181  57.4476662  38.3303871  29.5922165  58.0923538
  38.9905128  29.6898270  58.8505173  37.6786690  28.8218708  58.1362686
  38.7821884  31.6498489  57.6384010  39.3427086  31.6190510  58.4780273
  38.5177002  32.5411148  57.2436981  34.7401009  26.4325371  52.6729507
  34.0047150  25.8715363  53.4859810  35.2385025  25.7893295  51.5993729
  35.8068008  26.3592243  50.9891586  35.1335220  24.3941364  51.2692528
  34.1072311  24.0275421  51.2901192  35.5674324  24.1961460  49.7745399
  36.6540489  24.2788868  49.7972412  35.2327538  23.2288437  49.3998070
  34.9815254  25.3393364  48.9244537  33.7611580  25.1971722  48.3110199
  33.5030174  26.3651009  47.7501640  32.6703987  26.6229706  47.1124725
  34.5804863  27.1612015  47.9338760  34.7412872  28.0285454  47.4419861
  35.5568123  26.5729198  48.6897202  36.5396309  26.9217319  48.9704323
  36.0090179  23.5587196  52.1867523  37.2786179  23.6703625  52.1907654
  35.3896866  22.5517197  52.8338852  34.4331779  22.3393250  52.5887718
  36.0640335  21.7265472  53.8790321  37.0613518  22.1103191  54.0939064
  35.2943687  21.7607594  55.2108231  34.3536835  21.2971935  54.9136467
  35.8810654  20.8527603  56.3106880  35.8398705  19.8063068  56.0084610
  36.9376717  21.0665283  56.4718742  35.4201126  20.9316368  57.2952728
  35.0818977  23.1767254  55.6545372  36.0166321  23.6319141  55.9819107
  34.6886330  23.7788200  54.8354378  34.3065300  23.2258415  56.4190559
  36.1811943  20.3184090  53.3868256  35.1760178  19.6264935  53.0294914
  37.4117546  19.7707825  53.5419846  38.2052078  20.3822899  53.6707916
  37.7891846  18.3667583  53.1496353  36.8483925  17.9213409  52.8261909
  38.7500267  18.4325390  51.9511070  39.5467033  19.1406937  52.1789742
  39.1911316  17.4487724  51.7906990  38.2253227  18.7671661  50.5256729
  37.5078278  19.9654236  50.3477554  37.4671555  20.7312622  51.1081734
  36.8504143  20.2202377  49.1022530  36.3686981  21.1707878  48.9267273
  36.9872665  19.3554535  48.0105400  36.4799919  19.6576748  46.7970047
  36.8101196  18.9725990  46.2110939  37.7117233  18.1113701  48.2160187
  37.7585564  17.3793964  47.4232864  38.2643433  17.8035450  49.4790382
  38.8722191  16.9143353  49.5577240  38.3769608  17.6757736  54.3565903
  39.2044640  18.2247162  55.0851822  37.9916649  16.3846607  54.4837379
  37.4061203  15.9393702  53.7916718  38.4217606  15.4787455  55.6067276
  39.2023506  15.9622908  56.1940651  37.1689873  15.2402477  56.5299187
  36.4759293  14.6048737  55.9784927  37.5256462  14.5324421  57.2781868
  36.5150948  16.4394989  57.1840057  36.2994156  17.1612091  56.3961449
  35.2577896  16.1587524  58.0213242  34.8872871  17.0751724  58.4806786
  34.5079575  15.7446499  57.3472519  35.4012108  15.4424133  58.8302650
  37.4018478  17.1469345  58.1787262  38.3967934  17.3039112  57.7621498
  36.9954109  18.1448479  58.3432808  37.4784546  16.6027145  59.1200294
  38.9413490  14.1103268  55.1816711  38.7421684  13.7109928  54.0899734
  39.4607773  13.3798828  56.1914177  39.4963760  13.7977610  57.1102295
  39.9240303  11.9882545  56.1166382  40.3012543  11.7035608  57.0988579
  38.7200928  11.0717278  56.0053253  38.1509666  11.2486258  55.0926933
  39.1624489  10.0764322  56.0478210  37.7684288  11.0893087  57.2885818
  37.3328705  12.0659142  57.4998398  36.9032135  10.4598751  57.0804520
  38.4341736  10.7046947  58.6358299  39.4224510   9.9345846  58.6085739
  38.0610504  11.1662703  59.6968765  41.0329018  11.8919840  55.0598183
  41.9917259  12.7549086  55.0687904  41.0781059  10.9200439  54.1485329
  40.3837471  10.1895990  54.0820961  42.0761757  11.0589123  53.0452499
  43.0807724  11.2784204  53.4067726  42.0899658   9.7584066  52.3126450
  41.0802727   9.5161047  51.9811134  42.7157135   9.7251902  51.4207726
  42.6125793   8.4906788  53.0259094  43.6857185   8.4708681  52.8359528
  42.4557228   8.6521540  54.0924110  41.9163513   7.2245259  52.4780846
  40.8712349   7.2542396  52.7862167  41.9847488   7.2697701  51.3911743
  42.5674934   5.9042463  52.9011726  43.5612259   5.7404785  52.4843063
  42.5559387   5.7343078  53.9777832  41.8060951   4.7738848  52.2738266
  42.2805595   3.9116576  52.5008621  40.8361130   4.7686200  52.5552711
  41.7398453   4.8803039  51.2716370  41.7381821  12.1257820  52.0184937
  42.6301537  12.4459314  51.2240868  40.4727631  12.4338064  51.8516769
  39.7979774  11.9384222  52.4167976  40.0620613  13.3562565  50.7397385
  40.4648018  12.8506489  49.8620911  38.5133629  13.3688354  50.7113075
  38.2131729  13.7691383  49.7429314  38.1420326  12.3453999  50.7641716
  38.1310120  13.9407310  51.5567932  40.7611618  14.7209291  50.7472687
  40.6692696  15.4543896  49.7396431  41.5000572  15.0594950  51.8527489
  41.4336815  14.4738998  52.6729774  42.4136429  16.2523632  51.9964256
  41.8780556  17.2005615  52.0429459  42.9654083  16.1448593  53.4619827
  43.5986519  17.0277996  53.5487366  41.9557724  16.3144493  54.6020813
  41.1227455  16.9917641  54.4139023  41.4964104  15.3537045  54.8345833
  42.4410553  16.6988850  55.4991913  43.9597702  14.9660063  53.6268616
  44.7494774  15.0308332  52.8783607  44.4302521  15.0922794  54.6019554
  43.4492607  14.0034056  53.5971603  43.5086098  16.1566429  50.8823433
  43.9483719  17.2368202  50.4575195  43.9483948  14.9166355  50.4729385
  43.4816856  14.1800346  50.9825478  44.9975433  14.6641016  49.5280724
  45.8825264  15.2156124  49.8454781  45.4115524  13.1372595  49.4230576
  45.3279381  12.6122770  50.3746414  44.5993385  12.3754110  48.3872337
  43.5668144  12.5738287  48.6746826  44.8460541  12.7939711  47.4115067
  44.7056618  11.3052769  48.5650177  46.8693047  13.1346865  49.0541649
  47.2586899  12.1570921  48.7699318  47.1735573  13.7175484  48.1847992
  47.4172935  13.4520521  49.9413490  44.5728607  15.0912161  48.0897560
  45.3836937  15.1786900  47.2051849  43.2608719  15.2286997  47.8160362
  42.5632019  15.0475111  48.5235176  42.6012383  15.6678848  46.4732704
  43.1655121  15.1720886  45.6834106  41.1226540  15.3304138  46.5432472
  40.7528343  15.9896650  47.3285675  40.7029495  15.5458250  45.5606270
  40.5839005  13.9224262  46.9862328  40.9394913  13.5616322  47.9513702
  39.0249062  13.9959641  46.7972641  38.7958221  14.0961285  45.7363281
  38.4545784  13.1109343  47.0793037  38.6200447  14.8611784  47.3222313
  41.0384140  12.8736029  45.9479103  40.6086655  11.9647026  46.3689957
  40.7328796  13.1825418  44.9482574  42.1185608  12.7288685  45.9688416
  42.8229523  17.1234646  46.1898956  42.5653572  17.6048660  45.0912743
  43.2432327  17.9002724  47.1691666  43.5054207  17.5142384  48.0648956
  43.2566109  19.3689175  47.0408287  43.1647377  19.5928822  45.9780464
  42.0935516  20.0782852  47.7186775  42.1601906  19.8564796  48.7837868
  42.2250938  21.1527748  47.5911255  40.6107521  19.7672291  47.4301529
  40.4511642  18.6942482  47.5366745  40.0633049  20.2908268  48.2138977
  40.2370911  20.2821026  46.0534592  41.0229721  19.8932915  45.4059067
  39.3065643  19.8089657  45.7398338  40.3078384  21.7821026  45.8467178
  41.1438332  22.1801853  45.4433060  39.2676735  22.6502628  45.9268494
  38.0769272  22.3196068  46.4304390  37.3202705  22.9842834  46.3544312
  38.0537071  21.3169956  46.5501556  39.3506775  23.8770237  45.4586411
  38.5795135  24.5165787  45.5866051  40.2666817  24.1599598  45.1408539
  44.6185875  19.9673901  47.4240265  44.7876015  20.4876518  48.5290260
  45.6019440  20.0568199  46.4758568  45.5837250  19.4399948  45.1431389
  44.6052551  19.6290569  44.7016068  45.9955978  18.4375553  45.2596588
  46.7639694  20.1222019  44.4253616  46.3597946  20.9938526  43.9106140
  47.1383057  19.4019146  43.6979218  47.7022209  20.5090237  45.5361366
  48.3673363  21.3230915  45.2480087  48.3762932  19.6932545  45.7973824
  46.7204056  20.9400139  46.5915222  47.1669693  20.7624950  47.5698738
  46.4671822  22.4386864  46.5284843  47.2493210  23.1237507  47.2137375
  45.4375763  22.9792976  45.7985497  44.7663345  22.3211174  45.4293137
  45.1625938  24.4293823  45.5493584  46.1433220  24.8078365  45.2611771
  44.1339149  24.6962433  44.4218407  44.1585655  25.7463322  44.1306267
  44.3915520  24.0713940  43.5666885  42.7519722  24.3091145  44.8203354
  42.5791016  23.0816193  45.0497513  41.7517395  25.0747547  44.6957474
  44.6958923  25.3465919  46.7378769  44.8156166  26.5441837  46.5795288
  44.4326668  24.7265377  47.9046860  44.2564621  23.7347794  47.8307457
  44.0370369  25.3949356  49.1454391  43.5210037  26.3153687  48.8722801
  43.0676651  24.4198589  49.8977470  43.5518303  23.4828701  50.1729507
  42.6549416  24.9206371  50.7735252  41.9615326  24.0747547  48.9341125
  42.3458328  23.5640125  48.0511894  40.9346275  23.0819168  49.4081459
  40.2987480  22.7743111  48.5780029  41.4945412  22.1590157  49.5593147
  40.6040840  23.3882465  50.4006195  41.1200867  25.1956158  48.3109932
  40.3256302  24.8797150  47.6348686  40.7340164  25.8281708  49.1103210
  41.7146301  25.8621731  47.6862411  45.2415924  25.6986294  50.0259476
  45.2715111  25.5377731  51.2278099  46.3576126  26.0794353  49.3820343
  46.3221970  26.1835556  48.3780403  47.6923485  26.3462963  49.9284935
  47.5625801  26.9732399  50.8106499  48.3268433  25.0199928  50.4810715
  47.5676765  24.5750961  51.1243706  48.7183189  24.4309273  49.6517067
  49.4234467  25.2799911  51.3269272  49.9622116  24.4854259  51.3260002
  48.5967407  27.0258694  48.9408684  48.3559341  26.9840374  47.7360001
  49.6116714  27.7236805  49.5285149  49.7383919  27.5685940  50.5184593
  50.5403786  28.6151352  48.8207970  51.1276588  29.0983715  49.6016235
  51.4745789  27.7798080  47.9256935  50.8812141  27.5358753  47.0444908
  52.2664223  28.4363041  47.5649872  52.0923653  26.4931545  48.4203949
  51.3094635  25.7539711  48.5900612  52.9810677  25.9268017  47.2945366
  53.7569695  26.6530151  47.0522690  53.4652977  25.0079460  47.6251831
  52.4504242  25.6632233  46.3796463  52.9708977  26.6476040  49.7003784
  53.7389832  27.3991241  49.5177307  52.2645493  26.8477726  50.5060501
  53.5408821  25.7414284  49.9054756  49.8565025  29.7734337  48.0185776
  50.2461243  30.1497021  46.9699936  48.9457588  30.4552727  48.6794586
  48.4598885  29.9508018  49.4071579  48.2540817  31.7184181  48.2453156
  48.9762802  32.2893600  47.6617432  47.0007210  31.2744255  47.4714890
  47.2053871  30.4569149  46.7801971  45.8074799  30.6938591  48.2380524
  45.0787811  30.1207638  47.6647606  46.1591530  30.0621567  49.0537605
  45.2578506  31.4990139  48.7256355  46.4918213  32.4560738  46.8438797
  46.1061745  32.1829147  46.0082588  47.8876114  32.6950417  49.3796463
  48.1055222  32.5447388  50.5746040  47.5258942  33.9644814  48.9621429
  47.4053764  33.9919624  47.9597359  47.4316711  35.1842270  49.7649193
  48.1440926  34.9461784  50.5547867  47.8019714  36.5225983  49.0107384
  47.0862198  36.6759987  48.2031059  47.6907349  37.2976341  49.7690544
  49.2836838  36.4614601  48.6066360  49.9624023  36.5095558  49.4581795
  49.4156113  35.5899391  47.9654274  49.7017403  37.6956367  47.7374001
  49.5887527  38.6751251  48.2020912  50.7605247  37.6075058  47.4938660
  48.8661118  37.7589607  46.4026985  48.8109818  36.8082771  45.8723564
  47.8453293  37.9517059  46.7327881  49.4196510  38.7368774  45.4275246
  49.7498283  39.5445938  45.9361343  50.2295494  38.3435097  44.9698868
  48.7235603  39.0166550  44.7513008  46.0491066  35.2876320  50.4850311
  45.9467697  35.9901276  51.5236168  45.0412102  34.6565971  49.8852539
  45.2424049  34.2602806  48.9783058  43.6582718  34.4715958  50.5282974
  43.2014465  35.4261513  50.7895164  42.7896843  33.6765823  49.4507294
  42.8832664  34.1615448  48.4790573  43.2397346  32.7141838  49.2071114
  41.3829155  33.4365997  49.8731918  40.9797134  33.6663895  50.9945107
  40.6051941  32.7808342  49.0124435  40.9063187  32.5681229  48.0721359
  39.7087593  32.4869156  49.3731575  43.8897095  33.7093506  51.8382835
  44.3653297  32.5263596  51.8915825  43.6054764  34.3856926  52.9605827
  43.3544121  35.3613510  52.8887672  43.7668343  33.7892799  54.2750282
  44.5117645  32.9935913  54.2821808  44.2839546  34.9164085  55.2280273
  44.2891121  34.4461555  56.2113571  45.6741676  35.5209198  54.9694023
  46.5308876  34.8471336  54.9813461  45.7046700  36.0659447  54.0259438
  45.8757362  36.3230362  55.6793938  43.2956657  35.9266930  55.2586975
  42.6193810  35.6240959  55.8691673  42.5567360  33.0273247  54.7409859
  42.4925423  32.5867195  55.8791084  41.5100403  32.8178520  53.9643822
  41.4501610  33.3977432  53.1396141  40.3798218  31.9412994  54.3146515
  40.1493225  31.9973297  55.3785248  39.1742096  32.4041901  53.3953285
  39.2847099  32.2461281  52.3225250  38.2920189  31.8281059  53.6745567
  38.8593864  33.9063263  53.6537590  39.6264000  34.5955238  53.3005028
  37.8895760  34.0656967  53.1824074  38.6740036  34.2674980  55.1148415
  38.0892220  33.4279327  55.8322601  39.1598511  35.2508545  55.7081566
  40.6579132  30.4541187  54.1559906  39.6705284  29.6990814  54.3943367
  41.8639145  29.9743519  53.8342361  42.6060028  30.6594868  53.8346748
  42.0778961  28.5537395  53.3423996  41.1323853  28.0208664  53.4432106
  42.7396889  28.6207352  51.9010239  43.7089539  29.1042690  52.0227814
  42.9428902  27.5899239  51.6107903  41.9846458  29.4477005  50.8507195
  41.9034157  30.5001259  51.1225662  42.7844772  29.5298290  49.5528603
  42.9232330  28.5914516  49.0159378  42.3189049  30.2957954  48.9326706
  43.7854576  29.9046421  49.7665253  40.7148895  28.7518120  50.5583382
  40.9620285  27.8645382  49.9754448  40.1522827  28.5519333  51.4702721
  40.1120300  29.4837589  50.0208321  43.0533600  27.6859207  54.1875687
  44.1557503  28.2517376  54.5453796  42.7190361  26.5596199  54.6548195
  10.9131584  36.3403625  48.8891525   9.9127445  36.4786644  48.8767471
  11.1867437  35.8973236  49.7545815  11.5055819  37.1569290  48.8406181
  11.2786732  35.5209045  47.6859550  10.8268318  34.5293617  47.7140503
  10.8728819  36.2352867  46.4676247   9.8464460  36.5609703  46.6363258
  11.5597544  37.0813484  46.4454308  10.8979130  35.5250168  45.1126060
  11.8747244  35.0442467  45.0597038  10.1051006  34.7919884  45.2616577
  10.5667753  36.6890717  43.6921043   8.7712736  36.9191322  43.9484634
   8.3369226  37.6354485  43.2510910   8.2566118  35.9756088  43.7668304
   8.5750971  37.4360008  44.8878593  12.8304548  35.2356606  47.6021652
  13.6056147  36.0900841  47.9344215  13.1801481  34.0012665  47.1249390
  12.3956490  33.3653297  47.1405411  14.5151873  33.5277481  46.8802109
  15.0082159  34.3588028  46.3758621  15.3333988  33.3271103  48.2453690
  16.3701553  33.0804672  48.0164490  15.2797842  34.2336349  48.8482361
  14.6337385  32.2560844  49.0452232  13.6944323  32.7017403  49.3726311
  14.4750090  31.2912235  48.5636177  15.6091175  31.8041916  50.4850693
  16.8396664  30.7841568  49.6673584  17.5243320  31.3391056  49.0259819
  17.3650627  30.2166557  50.4354744  16.4099483  30.1047382  48.9312630
  14.5026045  32.4325104  45.7943840  13.4700279  31.9043579  45.3966141
  15.6503315  31.8370037  45.4338379  16.5271587  32.3166809  45.5793800
  15.8502283  30.6178741  44.6549988  15.0553198  30.6446819  43.9096794
  17.1242237  30.7112923  43.7966881  17.9462166  30.9512367  44.4711189
  17.2869072  29.3682270  43.0300789  18.2325649  29.3516865  42.4882698
  17.1662693  28.5503521  43.7404518  16.5019474  29.2121391  42.2900963
  17.1213131  31.8385925  42.6803093  16.3058739  31.6041203  41.9960670
  16.9000721  32.7997551  43.1443329  18.4466515  31.9910717  41.8985176
  19.2416763  32.1739388  42.6214218  18.7035599  31.0666561  41.3812599
  18.4072971  32.8284073  41.2017899  15.7240620  29.4001064  45.5916138
  16.3480988  29.3859501  46.6415558  14.9685621  28.3588047  45.1689911
  14.3562241  28.6290703  44.4126167  14.7361622  27.0886345  45.9727325
  15.5319223  26.8958969  46.6922607  13.4152403  27.1379509  46.8303490
  12.5009699  27.3285007  46.2682991  13.1324072  26.1879234  47.2837334
  13.5795975  28.2126408  47.8943100  14.5664101  28.0668621  48.3336830
  13.5773153  29.1423187  47.3252792  12.5167408  28.1015816  48.9501457
  11.5614500  28.3900967  48.5116425  12.4948511  27.0567760  49.2599869
  12.7349958  29.0607033  50.0749969  12.2425594  29.9344368  50.1941566
  13.7338190  28.9008732  50.9262466  14.6360426  27.9562435  50.9055252
  15.3135414  27.9162846  51.6535225  14.5580997  27.2884865  50.1517830
  13.8672972  29.6887474  51.9413414  13.1998863  30.4464684  51.9184952
  14.7380505  29.8247929  52.4346771  14.6789608  25.8403664  45.0379677
  14.1533966  25.8337574  43.9046669  15.1682606  24.7350216  45.5433235
  15.5860481  24.7865810  46.4614182  15.0865803  23.3865662  44.8733559
  15.4457359  23.3794746  43.8442497  15.8883457  22.8299465  45.3585892
  13.7337437  22.6903934  45.1315804  13.2773018  22.6371727  46.2804794
  13.1083803  22.2382793  44.0324440  13.5032291  22.5288181  43.1493912
  11.8776197  21.2867928  44.0614853  11.5380840  21.2151508  45.0947723
  10.7348013  21.8283672  43.1887169  10.9571095  21.8371105  42.1216583
   9.4927979  20.8973293  43.4496040   8.5231075  21.2912464  43.1452522
   9.6094656  20.0223255  42.8101807   9.3832989  20.5089035  44.4621429
  10.4064312  23.2888660  43.6478043  10.1050568  23.1448727  44.6853676
  11.2544804  23.9512596  43.4741631   9.1830187  23.9676857  43.0360985
   9.1430035  23.9778538  41.9468803   8.2508812  23.5502071  43.4167976
   9.3013535  25.0270710  43.2636909  12.2107677  19.8243427  43.5897408
  13.0043850  19.6732979  42.6852188  11.7584658  18.8280048  44.3469429
  11.2208538  19.0419159  45.1747818  12.1125479  17.4647121  44.0611534
  12.9255610  17.4545784  43.3352013  12.7354584  16.7276878  45.2730331
  12.0679522  16.9083061  46.1155968  12.8116751  15.6703825  45.0192680
  14.1816053  17.1350594  45.5966110  14.7809200  17.1423588  44.6861877
  14.1090822  18.1568832  45.9690590  14.7316160  16.2577724  46.7177238
  15.7471514  16.6290817  46.8552742  14.0859089  16.2591419  47.5958824
  14.8977385  14.8603182  46.2763901  15.2427521  14.6545744  45.3497124
  14.6933661  13.7844687  46.9765854  14.2659311  13.7628117  48.2219810
  14.0742273  14.5334129  48.8461037  14.3156128  12.8449202  48.6404381
  14.7129517  12.7101297  46.2984848  14.9137516  12.8122616  45.3139305
  14.6039286  11.7902517  46.7010231  10.9173870  16.6342316  43.4251404
   9.8015509  17.1335335  43.3635635  11.1301117  15.3727560  43.0458984
  12.0928278  15.0674744  43.0552521  10.1097651  14.2988396  42.8981743
   9.6624937  14.1406450  43.8795128   9.2798471  14.6460762  42.2827377
  10.6771212  12.9626245  42.3968773  11.8520098  12.9411554  42.0311890
   9.8462105  11.9611359  42.2615547   8.8662109  12.2038717  42.2895584
  10.2143240  10.6726751  41.6457443  10.8610573  10.7999859  40.7776299
  11.0281086   9.8886976  42.6809845  11.3476725   8.9141150  42.3119698
  12.0372095  10.2368965  42.9013786  10.4771738   9.7939310  43.6167145
   9.1036663   9.7632694  41.1256447   7.9569044   9.9511557  41.4979782
   9.3977308   8.8317604  40.2965126  10.3642340   8.6929779  40.0382309
   8.5187502   7.7494330  39.7048531   7.7282047   7.5265980  40.4214287
   7.7949214   8.2156363  38.3949509   7.3432112   9.1914711  38.5732994
   8.6973991   8.5144482  37.1898537   8.0152512   8.8790359  36.4218369
   9.3819895   9.3289080  37.4266891   9.2873793   7.6521101  36.8793716
   6.7342720   7.3504033  38.0702477   6.0542665   7.9665756  37.7882462
   9.3405704   6.4785376  39.4144096  10.5283670   6.5185618  39.5072250
   8.6538801   5.3791065  39.1434135   7.6489434   5.4791241  39.1291542
   9.2547359   4.0401039  38.8036118  10.3007164   4.2916579  38.6282692
   9.2889404   3.0718191  39.9804344   9.5747337   2.0768647  39.6391296
  10.1305532   3.5344777  41.1831284   9.9037266   2.9690359  42.0869675
  11.1876707   3.3622246  40.9808121   9.9776039   4.5966449  41.3741989
   8.0039454   2.9374976  40.5200729   7.5303330   2.2257171  40.0834274
   8.5675335   3.3301105  37.6657715   7.3922496   3.6197507  37.3395729
   9.2329884   2.3443031  37.1670837  10.1288557   2.1132560  37.5722237
   8.7666340   1.3949850  36.1246834   7.6814723   1.4956974  36.1051598
   9.2824297   1.7484225  34.6903954   8.9744844   0.9545044  34.0099792
   8.7427378   3.0551965  34.2093315   7.7465258   3.0978501  34.6496048
   9.2812910   3.8523862  34.7217293   8.7066269   3.0809984  33.1202354
  10.7790756   1.8094621  34.5230026  11.2018557   0.8108058  34.4132805
  11.0315409   2.4526148  33.6799622  11.1772509   2.3252048  35.3968239
   9.1151009  -0.0365920  36.4327545  10.1593466  -0.4154429  36.8588486
   8.2000914  -0.9908959  36.0229836   7.2353287  -0.7217839  35.8929405
   8.4313421  -2.4085741  36.0595741   8.9024296  -2.5732851  37.0286255
   7.0745902  -3.1802442  36.0131340   6.5828013  -3.1613376  35.0405655
   7.2787809  -4.2509151  36.0215454   6.0367551  -2.8514504  37.0563126
   5.6638098  -1.8670566  36.7735023   5.2480512  -3.6033864  37.0309410
   6.5984097  -2.8391440  38.4511566   6.7627387  -1.8294940  39.2172623
   7.1037607  -3.8763082  38.8551369   9.3358650  -2.8895791  34.9244919
   9.9278297  -3.9410465  34.9832878   9.3362913  -2.1604004  33.8402214
   8.5172873  -1.5708501  33.7982521  10.2297821  -2.4445386  32.6095009
  10.9530697  -3.1953835  32.9275970   9.3285723  -3.0869095  31.5388451
   8.8526297  -3.9488511  32.0064316   8.5118141  -2.4434509  31.2117863
  10.1876574  -3.5407319  30.3719864  10.6273842  -2.7087498  29.8219433
  11.0084381  -4.1495252  30.7511806   9.3157463  -4.5064421  29.5006599
  10.1111240  -5.1464696  29.1187687   8.7286863  -5.2464294  30.0446072
   8.5354919  -3.7518790  28.4691029   7.5862565  -3.4832575  28.6856537
   9.0671082  -3.3989699  27.2862282  10.2549610  -3.7060900  26.8968754
  10.7239704  -4.4361672  27.4137135  10.6044016  -3.5081623  25.9701519
   8.3638573  -2.6753995  26.5064220   7.3679338  -2.6158288  26.6635685
   8.8075991  -2.4546161  25.6263943  10.9173985  -1.2162892  32.0107803
  10.3336887  -0.1087251  31.9109516  12.2037411  -1.2538567  31.6952343
  12.6731348  -2.1470656  31.6511097  12.9385614  -0.1463109  31.0008602
  12.6813974   0.7912605  31.4937401  14.4508133  -0.3667889  31.0508785
  14.6577282  -0.3076015  32.1194229  14.7023888  -1.3606699  30.6807270
  15.2590742   0.6100397  30.2275162  15.0252142   1.8703644  30.3123875
  16.3691826   0.3316745  29.7234039  12.5171366  -0.1563033  29.5323200
  12.6901588  -1.1574482  28.7652798  11.9187298   0.9628941  29.0688972
  11.6900482   1.6695247  29.7533550  11.2482452   1.1432513  27.7596741
  11.9326048   0.9517882  26.9331741  10.0558567   0.1910106  27.4873905
  10.3568010  -0.8303314  27.7206192   8.7111130   0.5307571  28.0914383
   8.0129271  -0.3059682  28.0682144   8.8416796   0.5586627  29.1732330
   8.1918812   1.3975453  27.6825676   9.7232218   0.1268090  26.1798096
  10.5182438   0.1434204  25.6419773  10.7764339   2.5710952  27.4949741
  10.2685270   3.2783754  28.3566952  11.0064192   3.0882742  26.3077450
  11.3545122   2.4149311  25.6402531  10.7258959   4.4416142  25.8491554
  11.3939905   5.1273942  26.3701687  11.0971622   4.4718142  24.2722034
  12.1663485   4.2678485  24.2143784  10.4791708   3.7638686  23.7199364
  10.9396658   5.8965025  23.6543655   9.9686880   5.8856611  23.1592045
  11.0287924   6.5450101  24.5259151  11.7912626   6.3787351  22.4834290
  11.7891846   7.6050630  22.1865807  12.3608122   5.6208119  21.6393719
   9.2715540   4.8709226  26.1871471   8.9515591   5.8335118  26.7583714
   8.3043623   4.0595298  25.7647934   8.4900331   3.1619260  25.3405952
   6.9410753   4.5542645  25.8069401   6.9468780   5.5883055  25.4622288
   6.0408039   3.6570919  24.9516354   6.0560918   2.6490817  25.3661022
   5.0039024   3.9840899  25.0291424   6.3734460   3.4931293  23.4451790
   7.3328271   2.9776106  23.4012547   5.6808138   2.7528043  23.0448303
   6.2960353   4.7974606  22.6967907   5.2838955   5.5470424  22.8728695
   7.2377219   5.1565304  21.9265900   6.3437829   4.6444182  27.2442436
   5.2254004   5.2175188  27.4570122   6.9290709   3.9503121  28.2231770
   7.8352633   3.5451632  28.0367107   6.6266665   4.0770202  29.6868706
   5.5868917   4.3389297  29.8827686   6.7255597   2.6639721  30.3203011
   7.7759333   2.3730795  30.3062687   6.4348493   2.6206653  31.3699265
   5.8776627   1.5321112  29.6583767   6.3390870   1.4129391  28.6780777
   6.1300840   0.5719622  30.1083736   4.4022460   1.7619287  29.6096268
   3.8025782   2.0262055  30.6540337   3.7582338   1.4710722  28.5693855
   7.4321690   5.1373682  30.5037785   6.8311515   5.8472419  31.3947582
   8.7223740   5.2635570  30.2450199   9.1366415   4.5740690  29.6342087
   9.5498447   6.2719216  30.9973907   9.3642464   6.1485586  32.0643654
  11.0392399   6.1672006  30.6266422  11.1373825   6.0832992  29.5443153
  11.8639135   7.3096676  31.1735573  11.3838301   8.2537117  30.9158821
  11.8380966   7.2270942  32.2601166  12.8957491   7.2029362  30.8388462
  11.5641718   4.8108053  31.2338905  11.8182144   4.9083514  32.2893753
  10.7868090   4.0510387  31.1528893  12.9266014   4.4259558  30.6422367
  13.0140619   3.3534062  30.8157024  12.8534927   4.4099293  29.5548077
  13.7818594   5.0503721  30.9005718   9.0495529   7.6812816  30.6285610
   8.8397999   8.4667816  31.5259590   8.9419088   7.9514565  29.3260708
   9.0448503   7.2133036  28.6444302   8.6051397   9.2594461  28.7026615
   9.2479019  10.0299664  29.1284065   8.6266117   9.2420244  27.1400452
   8.1912441   8.3065004  26.7888355   8.1139870  10.0953150  26.6959476
  10.0917921   9.2553911  26.6473293  10.6309366   8.3784857  27.0057449
  10.1828871   9.3659925  25.1504021  11.1870270   9.1964798  24.7617302
   9.4813910   8.7379541  24.6012459   9.8276739  10.3509007  24.8472729
  11.0794792  10.3051929  27.1320992  12.0710545  10.3538876  26.6820965
  10.7356253  11.3210506  26.9374237  11.2469206  10.1689501  28.2005100
   7.1679335   9.6682949  29.1480141   6.9489818  10.8719845  29.3449097
   6.2089252   8.7310324  29.0608349   6.3458982   7.7635741  28.8051739
   4.9067411   9.1077690  29.5507107   4.5548201  10.0147076  29.0590649
   3.9605103   7.9173536  29.2600098   3.9983432   7.5732236  28.2264519
   4.2585449   7.1017475  29.9188461   2.4668832   8.1226683  29.4888287
   2.3469574   8.7570419  30.3670578   2.0508525   8.5175295  28.5619507
   1.6490707   6.8581653  29.9149246   2.0213134   5.6999321  30.1137829
   0.3454551   7.0535693  30.1217175  -0.0030020   7.9744925  29.8968201
  -0.2746796   6.2655067  30.0013390   4.8911309   9.4608021  31.0064545
   4.5176864  10.6254139  31.2540550   5.3640471   8.5663357  31.9178810
   5.6285739   7.6316848  31.6411972   5.4323201   8.9627562  33.3528061
   4.3980613   9.0790920  33.6766510   6.1465712   7.8041215  34.1730499
   7.1583347   7.6326189  33.8055992   6.2207570   8.1506052  35.2038498
   5.2319975   6.6215453  34.2189217   4.2833815   6.8841658  34.6871719
   4.9338241   6.3925214  33.1958199   5.9320555   5.3961926  34.9291344
   6.8367863   5.2836022  34.3317337   6.2159290   5.5899954  35.9635201
   5.1228671   4.0437570  34.7911949   5.3206658   3.5581362  33.8356056
   5.3584123   3.3707175  35.6155930   3.6271474   4.2353711  34.8340492
   3.2784066   4.5786242  35.7175980   3.3247955   4.8861008  34.1232491
   3.1412730   3.3902164  34.5699654   6.2376471  10.2292471  33.6198959
   5.7321463  11.0888071  34.3775291   7.2668839  10.5065346  32.8710861
   7.6720228   9.7784586  32.3002396   8.0496683  11.7532358  33.1319275
   8.2572927  11.6788712  34.1993828   9.4609032  11.6025801  32.4401779
   9.2278404  11.5651245  31.3760414  10.4353466  12.7269583  32.8171806
  11.4405451  12.5666895  32.4273224  10.0046577  13.6788883  32.5066376
  10.6095018  12.9916115  33.8601227  10.0316153  10.3827753  32.8706512
   9.7367668   9.6519680  32.3223953   7.2938375  13.0251532  32.8304977
   7.4475312  14.0518637  33.5425682   6.5081897  13.0047054  31.7000408
   6.5116858  12.1771355  31.1210632   5.5993958  14.1249895  31.4064007
   6.1121283  15.0856724  31.4542828   4.9286823  14.0325623  30.0019073
   4.5215611  13.0332947  29.8475666   4.1825838  14.8184595  29.8844185
   6.1385393  14.2930765  29.0986290   6.4826798  15.3191652  29.2282791
   6.9382129  13.6320105  29.4327202   5.8995547  13.9792986  27.6626530
   5.3108134  14.7049599  27.1014938   6.9084139  13.9462643  27.2512970
   5.2932348  12.6385612  27.2837906   6.0313725  11.8367691  27.3033524
   4.5128765  12.3493729  27.9877167   4.7629738  12.6711845  25.9534817
   5.3274570  13.0931740  25.2300282   4.6435184  11.6963253  25.7179317
   3.8673141  13.1365442  25.9900227   4.4239006  14.2815943  32.3141975
   4.0248480  15.4827099  32.4804382   3.8639100  13.2274466  32.8327522
   4.0659566  12.3914852  32.3031807   2.8030045  13.2635918  33.8827591
   2.0604801  14.0129318  33.6084442   2.2037005  11.8651848  33.9853592
   3.0088575  11.1625910  34.2002640   1.5197564  11.9760380  34.8268089
   1.4192131  11.4082289  32.7106018   0.6433005  12.1266174  32.4460716
   2.1709726  11.2532701  31.9366837   0.7738705  10.0890322  33.0165939
   1.4417046   9.1802454  33.4969101  -0.4973838   9.8346405  32.7662506
  -0.9837818  10.6138821  32.3463669  -0.8661197   8.8971653  32.8389359
   3.3912764  13.7255211  35.1954460   2.6829848  14.3905134  35.9409828
   4.6624870  13.3623152  35.5222931   5.0760965  12.7585850  34.8262100
   5.3000836  13.6789560  36.8027039   4.5750623  13.4095125  37.5707169
   6.5244184  12.8143291  37.1481628   6.2197580  11.7782478  37.2958794
   7.1380463  12.8649282  36.2487183   7.2910376  13.3029060  38.4149933
   7.4866834  14.3707952  38.3178596   6.6015391  13.1547117  39.7928963
   6.1840138  12.1511765  39.8747177   7.2988362  13.2646561  40.6234322
   5.7414460  13.8200235  39.8683968   8.5807352  12.5195246  38.3420868
   9.0824509  12.5435209  39.3094597   8.3674307  11.5086079  37.9947395
   9.1798773  12.9969454  37.5667152   5.4862251  15.2168112  36.8025627
   5.2889900  15.9103432  37.8528328   5.9005151  15.7661457  35.6379166
   5.9673848  15.1737404  34.8226357   6.1440148  17.2567711  35.5150185
   6.8388577  17.5298977  36.3091850   6.8291187  17.4195099  34.1006470
   6.1910100  16.9492474  33.3524704   6.6800380  18.4864311  33.9346581
   8.3333702  16.9980984  34.0130005   8.4369507  16.0001888  34.4390831
   8.7806807  17.0551834  32.5658379   9.8610144  16.9300175  32.4929466
   8.5560884  16.1497688  32.0020256   8.4271383  17.9418983  32.0396805
   9.1446762  17.9401436  34.9242249   8.8253326  17.8565063  35.9630356
  10.2254076  17.8050213  34.8810349   8.8345165  18.9546700  34.6739464
   4.8666921  18.0568542  35.6669807   4.8134394  18.8329468  36.6269226
   3.8811307  17.8122864  34.8220215   3.9676044  17.1005154  34.1106796
   2.4619877  18.3875885  35.0181046   2.4813507  19.4292641  34.6977348
   1.5370468  17.5904942  34.0844879   1.8473938  16.5458546  34.1071777
   0.4890103  17.7576504  34.3330536   1.8111243  18.0948830  32.6399384
   1.9018610  19.1777573  32.7250824   2.8431773  17.8576794  32.3816681
   0.8258842  17.4905186  31.6206226   0.3376756  18.2513332  30.7809505
   0.4703524  16.2542553  31.5951653   2.0181098  18.2777767  36.4574165
   1.4760187  19.2217827  37.0377426   2.2362850  17.1247368  37.2066917
   2.8638065  16.4169254  36.8526840   1.7498784  16.9850006  38.6136169
   0.7120094  17.3136520  38.5596123   1.6964178  15.4416018  38.8874779
   1.2250732  14.8926115  38.0722809   2.7110553  15.0848761  39.0645561
   0.8681903  15.0273457  40.1578102   1.0577261  13.9634933  40.3006210
   1.2933081  15.5601377  41.0084038  -0.5904768  15.1823874  39.9564743
  -0.7626596  14.7678242  38.9631996  -1.1129248  14.4697771  40.5946999
  -1.2259194  16.5973396  40.0401688  -0.8129525  17.1899261  39.2238350
  -2.3096738  16.6021423  39.9237518  -0.9484336  17.1498852  41.3699684
  -1.4883685  16.7130070  42.1032600   0.0167923  17.0509357  41.6504135
  -1.1208190  18.1448269  41.3917694   2.5756743  17.7641106  39.6313820
   1.9727243  18.2667179  40.5961418   3.8889024  17.9175396  39.4631424
   4.3418794  17.5285759  38.6485138   4.7623549  18.8658237  40.2302971
   4.5421324  18.6517773  41.2761383   6.2635665  18.6813831  39.9651566
   6.4459748  18.8145046  38.8988037   7.0809717  19.8075848  40.6903648
   8.1313658  19.8445396  40.4015579   6.6365123  20.7647629  40.4176598
   7.0826249  19.6660366  41.7711411   6.8653536  17.3691654  40.4807777
   6.9447546  17.2528572  41.5616455   6.3571587  16.5042534  40.0544395
   8.3443460  17.2440434  39.8891296   8.9006472  18.0119648  40.4266510
   8.7680712  16.3220596  40.2872696   8.3788261  17.2927074  38.8007622
   4.2953444  20.2736053  39.8752899   3.8636899  20.9846573  40.7456970
   4.1419868  20.5632935  38.6436157   4.2160149  19.8213539  37.9623337
   3.9461646  21.9099846  38.0151634   4.6073909  22.6837921  38.4051628
   4.2362108  21.8906116  36.4703979   3.7256541  20.9847183  36.1436119
   3.5724077  23.0305119  35.6395340   2.6534319  23.3205547  36.1489105
   4.2855062  23.8362846  35.4654007   3.3212218  22.6954212  34.6331940
   5.7369442  21.7834282  36.0816040   6.2133398  22.7527828  36.2281990
   6.1183910  21.0678425  36.8099823   6.0278397  21.3274956  34.6490021
   5.7129879  20.2904243  34.5330162   5.4731588  22.0064030  34.0013046
   7.0332928  21.3014450  34.2288971   2.5382960  22.5150928  38.5087700
   2.4965520  23.6374550  38.9030151   1.4577591  21.7981529  38.3700867
   1.5563163  20.8275089  38.1088486   0.1339111  22.1833935  38.7590981
   0.0024203  23.1691189  38.3128281  -0.9537444  21.2144909  38.1829453
  -0.7265652  21.0472908  37.1300774  -0.6449490  20.2678528  38.6263695
  -2.3941689  21.4831543  38.5060844  -3.0133305  20.7505665  37.9883423
  -2.4994977  21.3252449  39.5794296  -2.8285155  22.8848476  38.1370049
  -3.7276547  23.4210167  38.8772926  -2.4375803  23.4264698  37.0903244
   0.0566842  22.3405533  40.2601433  -0.7804041  23.0644646  40.8302536
   0.8631858  21.5880661  40.9833145   1.4391179  20.8961811  40.5253868
   0.8031682  21.5087624  42.4283752  -0.2155055  21.5578098  42.8130875
   1.3336879  20.2014465  42.9448280   0.8798178  19.3604813  42.4205399
   2.3970668  20.2136269  42.7057114   1.2181661  19.9560375  44.4262123
   1.8878672  19.1286507  44.6608009   1.4569228  20.7967548  45.0775833
  -0.2705320  19.4564896  44.7619438  -0.3652670  18.3770103  45.4362755
  -1.2942741  20.0926819  44.3554535   1.6180630  22.6346989  43.0098991
   1.1850888  23.2723370  43.9302940   2.7231510  23.0190907  42.4474525
   3.1527774  22.3268299  41.8505478   3.5701573  24.2468987  42.9302254
   3.3415484  24.4104805  43.9833527   5.0756822  23.9592628  42.7796555
   5.2615919  23.5232811  41.7980995   5.6323700  24.8755398  42.9762154
   5.4408908  22.8489380  43.7539673   5.7077260  23.0885010  44.9214096
   5.5311332  21.5935116  43.3479347   5.8515754  20.9246693  44.0335464
   5.2097898  21.2429085  42.4569130   3.1021893  25.5640278  42.2233200
   3.6787937  26.5874634  42.4626846   2.1170058  25.4150181  41.3470078
   1.7256812  24.4872475  41.2682152   1.6796731  26.4896889  40.3501701
   1.0786194  25.9406948  39.6252975   0.6821263  27.4797993  41.0443497
   1.0327398  28.4084949  41.4945679   0.0555533  27.9629898  40.2946625
  -0.2836082  26.9346695  42.0373230  -1.2091343  25.8963261  41.8381500
  -1.3324304  25.4755173  40.9283066  -1.7563460  25.5076427  42.9739914
  -2.5324333  24.7708607  43.1197395  -1.1230214  26.1830578  43.9468765
  -1.3507638  26.0213413  44.9174843  -0.2475951  27.0967827  43.4128990
   0.4808052  27.7236652  43.9057007   2.8787065  26.9874020  39.5694885
   3.0463877  28.1813011  39.4537926   3.8529329  26.1705570  39.1937370
   3.7278750  25.1966953  39.4304924   5.1426125  26.5501080  38.5238533
   5.6170239  27.3656464  39.0696869   6.1166387  25.3860531  38.5529366
   5.7499504  24.5384140  37.9740181   7.5866752  25.7859383  38.0934601
   7.5970068  25.7869968  37.0035095   7.9331918  26.7182713  38.5393105
   8.2330055  24.9762592  38.4322433   6.1723657  24.8918152  39.8231392
   6.8383322  25.4654675  40.2091560   5.0330129  26.9000435  36.9866257
   4.2831125  26.2748356  36.1992645   5.9400592  27.7985554  36.5602455
   6.5007982  28.3618145  37.1834679   5.9058924  28.1501102  35.1557159
   5.4251614  27.3366451  34.6123238   5.1049690  29.5171852  35.0128746
   4.8482609  29.7702961  33.9842186   4.2397294  29.3103333  35.6427002
   5.7666416  30.8022327  35.4960709   6.1467462  30.6857910  36.5109901
   6.6244874  31.1624947  34.9282570   4.7697997  31.9709377  35.5466309
   4.6218982  32.1290779  34.4783516   3.8580892  31.6989059  36.0784988
   5.2574773  33.2858276  36.1734962   6.1982222  33.5724373  35.7034340
   4.4789429  34.0004807  35.9065590   5.6131845  33.1123047  37.5813065
   5.0136538  32.4475975  38.0491028   6.5185366  32.7164955  37.7905312
   5.5877657  33.9928360  38.0753899   7.3836317  28.2393932  34.6245193
   8.2937393  28.4907894  35.4501266   7.6685424  28.0304356  33.3498421
   6.6784105  27.7940540  32.3024063   5.8217859  28.4658966  32.3564606
   6.3695149  26.7530727  32.3975029   7.5836372  27.9719162  31.0550156
   7.5521049  29.0477581  30.8827705   7.2924285  27.3980103  30.1752834
   8.9238577  27.2888851  31.3827229   9.7581778  27.6095390  30.7588692
   8.7744360  26.2202187  31.2287006   9.0696583  27.6437283  32.8727303
   9.3557673  26.7579327  33.4398346  10.0990667  28.7373199  33.1684074
  11.2443895  28.5179939  33.4499397   9.6502571  29.9940834  33.0769081
   8.6788883  30.1170273  32.8290634  10.6024599  31.0496864  33.0204277
  11.4345512  30.7186127  32.3990402   9.9883127  32.2100792  32.3291550
   9.5379276  31.8391113  31.4084835   9.1293297  32.5766487  32.8911819
  11.0920668  33.2611313  31.8355160  12.0147505  32.6928101  31.7181778
  10.7451296  33.7442398  30.9220943  11.3531513  34.3795166  32.8912735
  10.4167032  34.7439079  33.6008301  12.5362444  34.8228188  32.9692650
  11.2718449  31.4402809  34.3625412  12.3972359  31.8637486  34.3763161
  10.6724539  31.0302391  35.4940796   9.7222767  30.6931820  35.4336281
  11.2130013  31.1667919  36.8736038  11.8014736  32.0822220  36.9351959
  10.0603228  31.0310860  37.9061317   9.5098085  30.1311932  37.6318550
  10.5156956  30.8391666  38.8776779   9.0549145  32.2071495  38.0196228
   7.8507214  32.0533066  38.3771286   9.6005630  33.3528824  37.8243980
  12.2070827  30.0397720  37.1692619  12.8561993  30.0373383  38.1897392
  12.2790079  29.0076981  36.3384247  11.7159348  29.0608540  35.5016327
  13.1153002  27.8494759  36.5973434  13.0363398  27.6271877  37.6615143
  12.6565018  26.5812359  35.8269119  12.9178104  26.6009235  34.7688828
  13.2427616  25.2566509  36.4252968  14.3157415  25.0917740  36.3271294
  13.0122051  25.2675591  37.4905815  12.7091122  24.4373951  35.9434891
  11.1444979  26.3778820  35.9551773  10.5834112  27.3090687  35.8765831
  10.6933880  25.8647919  35.1058617  10.8493147  25.8786087  36.8780518
  14.5871096  28.2135830  36.2400398  14.8938990  28.7248211  35.1890717
  15.5228415  27.7705288  37.0098877  15.0958405  27.3641720  37.8300362
  16.9831829  28.0642738  37.0315552  17.1359520  28.9635639  36.4348640
  17.5035095  28.3133183  38.5073929  17.0186691  27.6106873  39.1851387
  18.9873257  28.2659950  38.7475471  19.3380756  27.2400970  38.6352615
  19.5139217  28.8462391  37.9898453  19.2225723  28.5927277  39.7604675
  17.0561638  29.6992474  38.9435616  17.5729389  30.4250526  38.3156624
  15.9755096  29.7614212  38.8154106  17.2978916  29.9008389  39.9871292
  17.7929001  26.9502869  36.2945671  18.6174717  27.2355556  35.4550171
  17.3659153  25.7246799  36.6108093  16.5084724  25.6986885  37.1439247
  17.7715492  24.4749527  36.0200500  17.7533340  24.5222549  34.9312286
  19.2157917  24.1387157  36.4844131  19.5186272  23.2170010  35.9875908
  19.8990536  24.9150791  36.1401482  19.4548779  24.0031357  38.0539093
  18.9527073  24.8004704  38.6017952  19.0275154  23.0552959  38.3811150
  20.9795361  23.9008350  38.3854294  21.8792229  23.5916328  37.6333160
  21.2707729  24.2210102  39.6310692  22.1273041  23.7969780  39.9576454
  20.6140347  24.7203274  40.2137184  16.8572636  23.3006401  36.4088249
  16.0489216  23.3519363  37.3470268  16.9011974  22.1845703  35.6223259
  17.6210995  22.1946983  34.9139900  16.1549950  20.9347038  35.8418388
  15.9702606  20.9229889  36.9160080  14.7690992  20.9828014  35.1589508
  14.3344603  21.8587570  35.6405067  14.9155035  21.1298313  34.0888824
  13.9454451  19.7451115  35.3896599  14.6228752  18.8932533  35.3302879
  13.5782471  19.7988091  36.4145393  12.6922035  19.2843571  34.3115196
  11.6204844  20.6239052  34.9531631  12.0756321  21.6127071  34.8964119
  10.7489672  20.6208744  34.2985268  11.3092556  20.3875999  35.9707108
  17.0745831  19.7890778  35.5622864  17.9143524  19.8642712  34.6379890
  17.1107235  18.8426113  36.5203590  16.5751228  19.0665264  37.3468513
  18.0815430  17.7639160  36.6353149  18.6688461  17.8311863  35.7195358
  19.0677891  17.9094219  37.8635178  18.5934486  17.7502022  38.8318901
  19.8531036  17.1658344  37.7276649  19.7283878  19.2544155  37.9359550
  19.0214615  20.0609150  38.1306725  20.7195072  19.2547379  39.0038109
  21.2646694  20.1981544  39.0332298  20.2448540  19.0324516  39.9595261
  21.4085007  18.4319973  38.8127975  20.4307938  19.7125340  36.6174660
  21.2800789  20.3676224  36.8115578  20.8607578  18.8683720  36.0783730
  19.7742615  20.3381233  36.0127373  17.3559284  16.4003754  36.8157692
  16.4824028  16.1843758  37.6607361  17.7203827  15.4402828  35.9613457
  18.3677959  15.6933899  35.2286148  17.0206242  14.1541777  35.8424644
  16.1830063  14.1724520  36.5397148  16.4472866  13.9877405  34.4402428
  17.0798664  13.8018665  33.5722580  15.7268896  13.1835642  34.5900116
  15.6283655  15.3404846  34.1238174  15.2193146  15.6525631  35.0847473
  16.2997627  16.4821320  33.3804893  16.4715939  16.1835995  32.3463440
  15.6829128  17.3805637  33.4009209  17.2381592  16.6811314  33.8980865
  14.4202280  14.9105997  33.2904167  13.7261391  15.7369652  33.1372452
  14.8061256  14.4205437  32.3965302  13.8782749  14.1394053  33.8378181
  17.8806496  12.9421501  36.3503151  18.9384136  12.6590881  35.7776909
  17.4263954  12.2558632  37.3840981  16.5169716  12.4906301  37.7554932
  18.0900669  11.0612307  37.9731827  19.1713657  11.0661669  37.8358002
  17.9774837  11.0635386  39.4852295  18.4269409  11.9802904  39.8668785
  16.9009628  10.9786644  39.6335449  18.6894436   9.9798002  40.1193199
  18.2052402   9.1938725  39.8557587  17.5796318   9.8083487  37.3062363
  16.3556747   9.6989670  37.0915642  18.4913578   8.7922611  37.1394501
  19.4726562   8.9121389  37.3463097  18.0960522   7.4746475  36.6112137
  17.0474777   7.2981868  36.8509064  18.3824902   7.4803743  35.0717010
  18.2061996   6.4986501  34.6321106  17.6020412   8.0863695  34.6115112
  19.4155197   7.8085079  34.9564743  18.8447037   6.3251896  37.3263435
  20.0814590   6.2870154  37.5119019  18.1546707   5.2033892  37.6975365
  17.1730366   5.0783525  37.4953957  18.8098564   4.0722260  38.2962227
  19.6053162   4.3689690  38.9798088  17.8150768   3.0811918  39.0574455
  18.2945404   2.1108322  39.1863518  17.2461834   3.5903909  40.3591919
  17.3054619   4.6786003  40.3787003  16.2209873   3.3600931  40.6490822
  17.8379898   3.1842659  41.1795158  16.6676979   2.8822172  38.2937775
  16.9239006   2.0968356  37.8047600  19.6153526   3.2596900  37.2415543
  19.3864098   3.3815231  36.0547981  20.5760059   2.3625548  37.6254082
  21.1194305   2.1766272  38.9826469  20.6156502   1.4120758  39.5740623
  20.9565392   3.0679748  39.5885048  22.5299263   1.9351101  38.8374863
  22.8165569   1.4651830  39.7782898  23.0358334   2.8848710  38.6639557
  22.5772190   1.0922322  37.5860596  22.2744751   0.0752328  37.8353729
  23.5448074   1.0117555  37.0906830  21.5427952   1.7879114  36.7025909
  22.0997105   2.5870912  36.2134438  20.9377136   0.7456664  35.7532005
  21.5949841   0.4071978  34.7937965  19.7047462   0.3661289  35.8310127
  19.2341919   0.6369281  36.6826859  19.0258579  -0.4276810  34.7831841
  19.6788979  -1.2266243  34.4320030  17.7575397  -1.1240693  35.3685112
  16.9422054  -0.9149753  34.6759720  17.9352531  -2.1988606  35.4051361
  17.3472843  -0.7032895  36.7617264  17.1461525   0.5127538  37.0478134
  17.1621838  -1.5533642  37.5818672  18.5645161   0.4113763  33.5536880
  18.4264355  -0.1395171  32.4198914  18.3338470   1.6983352  33.7191544
  18.5156116   2.0682621  34.6412239  17.5744972   2.4897425  32.7440376
  16.8254356   1.8111413  32.3359833  16.8111153   3.6250720  33.5578957
  17.5002956   4.2699041  34.1031685  16.3875065   4.3187747  32.8316498
  15.8127394   3.0419047  34.5852585  16.3103828   2.3000937  35.2098923
  15.2698002   4.2627521  35.4284744  16.0307751   4.6201138  36.1222458
  15.0558815   5.0880680  34.7493629  14.3092060   3.9503119  35.8380356
  14.6012402   2.4375949  34.0215645  13.9666100   1.9968680  34.7903938
  14.0613241   3.2155743  33.4818077  14.8269243   1.5926617  33.3709869
  18.2980022   3.0507467  31.5034580  19.0583820   4.0128679  31.6980076
  18.2322598   2.4091558  30.4047756  17.5691586   1.6515962  30.3241520
  19.0491657   2.6003556  29.2234764  19.6959648   3.4654727  29.3694973
  20.1151085   1.5043658  28.9886417  19.8510857   0.6301699  28.3935165
  20.9664707   1.8802013  28.4211617  20.8127270   1.1552415  30.2277985
  21.6131077   1.9818850  31.0257607  21.8300667   2.9254763  30.7382469
  22.0808907   1.3196491  32.0734100  22.4500027   1.8424352  32.9433861
  21.6382027   0.0470002  31.9847755  21.7007179  -0.6562581  32.7070084
  20.9145164  -0.0754497  30.7602520  20.4681053  -0.9648262  30.3405781
  18.2388077   2.8467252  27.9393826  18.8537445   3.2104101  26.9373932
  16.8702393   2.7316890  28.0490456  16.4520149   2.2059481  28.8032246
  16.0420952   2.9420624  26.8142815  16.5386734   2.4773631  25.9624805
  14.6198292   2.4775507  26.9469795  13.9451056   3.2351885  27.3455105
  14.3292179   2.0941670  25.9688892  14.5807781   1.6341544  27.6363697
  16.0832939   4.4424477  26.3307056  16.0428925   4.6822128  25.0993938
  16.1354198   5.4032545  27.2314968  16.2558823   5.1154628  28.1921024
  15.9522514   6.8747454  26.9463387  16.4920692   7.0640435  26.0185108
  14.5119352   7.2575440  26.6753960  14.0554552   6.5639625  25.9692287
  13.6661577   7.0584669  28.0086708  13.9941568   7.8081408  28.7287426
  12.6119595   7.2682853  27.8277264  13.7342205   6.1097269  28.5409851
  14.3457727   8.6018534  25.9549503  14.7133465   9.5056305  26.4409275
  14.8537569   8.4489012  25.0027637  13.2761278   8.6434689  25.7494469
  16.5664520   7.8100715  27.9463291  16.3681660   7.5397921  29.1432247
  17.3625889   8.8362560  27.4924068  17.5219460   8.8670826  26.4955330
  17.6730728  10.0307531  28.3355923  18.2568951   9.8377666  29.2355957
  18.4650574  11.0731602  27.4918079  17.8779583  11.3795166  26.6260357
  18.6824455  11.9912796  28.0376110  19.8564396  10.6046762  27.0307865
  20.7757835  10.3115826  27.9994373  20.5855083  10.3471060  29.0619507
  22.0638409   9.9711294  27.6072426  22.7321453   9.7814703  28.4341660
  22.4820557   9.9803343  26.2487812  23.5188103   9.7764378  26.0252495
  21.4940262  10.1801281  25.2763634  21.7885609  10.1530266  24.2376518
  20.1608829  10.5037441  25.6393223  19.4009857  10.5996513  24.8779049
  16.3445930  10.6757774  28.8964958  15.7117405  11.3890114  28.1052341
  16.0032825  10.7602682  30.2211094  16.6870899  10.0849819  31.3523083
  17.5355282  10.7116346  31.6271877  16.9248428   9.0479364  31.1154308
  15.5376577   9.9471703  32.3732300  15.9260960   9.9220638  33.3913574
  14.9029722   9.0881081  32.1557579  14.6139097  11.1789293  32.1569405
  15.0629139  12.0068102  32.7056732  13.5909376  10.9178915  32.4280205
  14.6969833  11.4110985  30.6674328  13.9403391  10.7896433  30.1884899
  14.4633398  12.9094162  30.3242455  13.3558197  13.3411522  30.4033260
  15.5967407  13.6193972  30.0696487  16.4300766  13.1061850  29.8201218
  15.5394535  15.0465364  29.6067944  15.0055904  15.6969910  30.2996140
  17.0155296  15.4983816  29.3541851  17.4473248  14.9883451  28.4930725
  17.0069370  16.5687485  29.1484184  17.6119843  15.1772108  30.2081108
  14.7606459  15.1781349  28.2726612  14.1082649  16.2044659  28.0291767
  14.6375856  14.0987091  27.4962025  15.1750050  13.2960777  27.7912674
  13.7771902  14.1078100  26.3098068  14.1846094  14.9007387  25.6826096
  14.0083952  12.7581797  25.5470295  15.0606356  12.5627880  25.3403587
  13.5632582  12.0293503  26.2243481  13.3183556  12.6215754  24.1894112
  12.2458754  12.7549286  24.3311920  13.6520891  13.3722525  23.4730282
  13.5544662  11.1969948  23.5239906  14.6105194  10.9553585  23.6442375
  13.1584959  10.4178305  24.1753044  13.2239046  11.0379944  22.0184402
  12.1413975  11.1054096  21.9101048  13.7277842  11.8262949  21.4591656
  13.5339527   9.7352247  21.4320812  13.0330162   8.9217052  21.7597218
  13.1424980   9.8563108  20.5089302  14.5248194   9.5581017  21.3489532
  12.2603140  14.4856567  26.5485764  11.6833305  15.0552406  25.6280193
  11.7974596  14.0912313  27.6924877  12.3836203  13.6299486  28.3734665
  10.3751202  14.2552652  28.1597652   9.7602940  14.0107918  27.2935543
  10.1420612  13.2162714  29.2823582  10.7178955  12.3084650  29.1023693
  10.3139248  13.5986366  30.2885189   9.0840731  12.9540596  29.2798710
   9.8905993  15.6785660  28.4992104   8.7451782  15.9343967  28.2010937
  10.7489996  16.5278511  29.0241394  11.6973486  16.1913891  29.1109085
  10.6234779  18.0107536  29.2540512   9.9024906  18.1863747  30.0524464
  12.0597258  18.5051422  29.6398926  12.5849113  18.5420456  28.6854725
  11.8342113  19.9316387  30.2504692  10.9826765  19.9226398  30.9308510
  12.6977367  20.2035618  30.8574982  11.7012548  20.6380634  29.4310875
  12.7515917  17.6826153  30.7546635  12.7023201  16.6642857  30.3690701
  13.8021498  17.9645481  30.8249626  12.2484255  17.7869892  31.7159271
  10.1934786  18.8322868  27.9989243   9.4222240  19.7562199  28.0664463
  10.7126541  18.5134735  26.8317356  11.3529072  17.7324276  26.8197460
  10.6440506  19.1495419  25.4973965  10.9654112  20.1910858  25.5008144
  11.5906353  18.4001255  24.5683613  11.5136003  17.3489132  24.8460674
  11.3664045  18.6470795  23.5306549  13.0191202  18.7453613  24.8743877
  13.2659521  19.7770157  24.6236591  13.2862148  18.5945511  25.9203415
  13.9194851  17.8021202  24.1029129  13.7300453  16.7287865  24.1158314
  13.7931147  18.0370617  23.0460625  15.2840195  18.1543541  24.5070667
  15.4378109  18.8906212  25.1811295  16.3453331  17.5128822  24.1562214
  16.2943802  16.4744530  23.3745728  15.4248934  16.3487377  22.8762856
  17.0779362  15.8982143  23.1023712  17.4848614  17.8628998  24.6104679
  18.2299747  17.3836117  24.1255016  17.6790905  18.7260284  25.0976868
   9.2186089  19.1324081  24.9177094   8.9088106  19.9011021  24.0342541
   8.3698273  18.2404213  25.4213238   8.5880814  17.6838722  26.2353992
   7.0397930  18.0604191  24.8914490   7.0367184  18.2817421  23.8241596
   6.5264258  16.6089420  25.0705395   6.1571236  16.4296494  26.0802765
   5.6858954  16.5415688  24.3798332   7.4745378  15.4824333  24.5808296
   8.4301119  15.6541586  25.0763073   6.9676771  14.5515575  24.8351212
   7.6665688  15.5658035  23.1183949   6.8054643  14.8681717  22.4699497
   8.5285683  16.3223553  22.6003742   5.9734879  18.9030895  25.5432796
   4.8058028  19.1455536  25.1042061   6.3597951  19.5275993  26.6227741
   7.2633801  19.2763233  26.9975986   5.5923700  20.5104065  27.4214535
   4.5349779  20.2996616  27.2614269   5.7270851  20.4024315  28.9728012
   6.6784887  20.8388615  29.2768726   4.9945025  21.0847645  29.4039001
   5.6852016  18.9959526  29.5455894   6.5993805  18.6015606  29.1019325
   5.8459687  19.1037807  31.0356178   5.1635437  19.8011513  31.5214882
   5.7308774  18.1393528  31.5303326   6.8310580  19.4577522  31.3395844
   4.4882002  18.1132088  29.1048126   4.8476806  17.5230370  28.2618580
   4.2552485  17.3709488  29.8682804   3.7245216  18.8097477  28.7587948
   5.7377725  21.9359474  26.9097519   6.8350763  22.4372082  26.8151474
   4.6894517  22.7530804  26.7818031   3.8858476  22.1734200  26.9775448
   4.5902510  24.0950317  26.2238255   4.9302025  24.0456486  25.1893654
   3.1262929  24.6803951  26.3235073   2.4926615  23.8799725  25.9414825
   2.9020808  24.9177170  27.3634624   3.0727746  25.8913765  25.5905838
   2.8286409  25.6777649  24.6870518   5.5109444  25.0847588  26.9390202
   5.2451305  25.3156147  28.1155891   6.5931792  25.6143723  26.3604584
   6.8107967  25.2339058  25.4505196   7.5106444  26.6228848  26.8802700
   7.8365312  27.3109341  26.1002140   7.0072966  27.2666950  27.6015549
   8.6362791  25.9281807  27.6603222   9.6674080  26.6060600  27.9705334
   8.5355692  24.5610123  27.9695911   7.7268376  24.0102348  27.7191963
   9.5744133  23.9065037  28.8664894   9.9662428  24.6159191  29.5953922
   8.8942385  22.6729622  29.5094662   8.3353987  22.0827427  28.7832146
   9.5888252  22.0222340  30.0406971   7.9848466  23.0492001  30.6115417
   6.7157345  23.6119423  30.4437237   6.1650276  23.7113571  29.5200138
   6.2514162  23.9866657  31.7083168   5.2798648  24.2520924  31.7840576
   7.2020454  23.9040680  32.6914406   7.2339010  24.2485619  34.0517731
   6.4208646  24.6351833  34.6483421   8.3110924  23.9070530  34.8727303
   8.3777075  23.9646587  35.9491348   9.4532385  23.5207939  34.1354103
  10.4062433  23.3409595  34.6106377   9.4031525  23.1074238  32.8190193
  10.2946529  22.6700153  32.3943977   8.2855062  23.2336082  32.0526695
  10.8362055  23.3764935  28.0811329  11.8659077  23.2150650  28.7476254
  10.8634586  23.1273365  26.7990150   9.9546261  23.1267185  26.3584213
  12.0955524  22.9302845  25.9989414  12.5465574  22.0271130  26.4100094
  11.8279448  22.7267590  24.5035839  12.6118870  22.1565418  24.0051994
  10.9969215  22.0216484  24.4857616  11.3863001  23.9671993  23.7071342
  10.4681931  24.4404430  24.0553036  12.1563406  24.7349205  23.7829056
  11.3391514  23.7367058  22.1987267  11.4953156  22.6252022  21.7216206
  11.1226721  24.7398129  21.4505959  10.8676147  25.6736736  21.7386169
  11.1444864  24.5181122  20.4654694  13.1753521  24.0008602  26.2028522
  14.3443232  23.6735420  26.0563641  12.8923063  25.2037106  26.6693459
  11.9704275  25.4599457  26.9927464  13.8580227  26.2855968  27.0139217
  14.6904230  26.2017384  26.3152218  13.1886654  27.6631622  26.7672596
  12.3428869  27.7457523  27.4498558  13.9476042  28.4259319  26.9413166
  12.6756821  27.9517460  25.3898849  13.5846109  28.2396927  24.3295879
  14.6182871  28.3402233  24.6259174  13.2136889  28.2078190  22.9507332
  13.9998302  28.3598995  22.2259884  11.8316488  28.0416584  22.7117615
  11.4355526  27.8916454  21.4315701  11.8779812  28.5071487  20.8424950
  10.9239960  27.7358017  23.7396889   9.8784676  27.5913143  23.5107918
  11.3533812  27.6523666  25.0737667  10.6131983  27.4086895  25.8215332
  14.5552616  26.2385616  28.4438820  15.6271095  26.7741032  28.6587048
  14.1054420  25.3144150  29.3605003  13.3520880  24.6668987  29.1780758
  14.7567463  25.1612720  30.7430649  14.9069529  26.1738987  31.1173973
  13.9143925  24.5230064  31.8419800  13.8004980  23.5051746  31.4689522
  14.4899969  24.1935902  33.2671585  15.0588207  23.2637863  33.2646179
  15.1482258  25.0211849  33.5315933  13.7130613  24.0966873  34.0255013
  12.5446053  25.2188873  31.9637604  11.7581291  24.6536407  32.4638062
  12.6298761  26.1742744  32.4815102  12.1340036  25.3761654  30.9663773
  16.1819630  24.4063721  30.6563148  16.2379131  23.4719257  29.8452072
  17.2403831  24.8351040  31.3467846  17.4172993  26.1904240  31.8497486
  16.9502659  26.2388153  32.8334351  16.9048672  26.8805676  31.1795120
  18.8890629  26.4548950  31.7231140  19.2345867  27.0726376  32.5520325
  18.9480400  26.9475517  30.7525921  19.5719261  25.1178474  31.8392715
  19.7028656  24.9231262  32.9037132  20.4941177  25.2141247  31.2662125
  18.5047626  24.1596298  31.2168846  18.7905731  24.0379696  30.1720810
  18.4805584  22.8023186  31.8297615  18.1896095  22.7012215  33.0288162
  18.7725010  21.7405777  31.0516376  19.0117302  21.9015865  30.0836773
  18.4693890  20.3408890  31.4338493  18.4364452  20.3570862  32.5232315
  17.1311321  19.6959419  30.9633732  17.0228958  18.7108307  31.4171829
  15.9100161  20.5644627  31.5011158  15.6440763  21.3918896  30.8432808
  15.0709982  19.8933105  31.6846962  16.2825241  20.8865280  32.4735413
  17.1135826  19.7164917  29.4501419  16.3700829  18.9580479  29.2050495
  16.7707882  20.6795349  29.0718060  18.0827847  19.4320049  29.0404911
  19.5542469  19.4091682  31.1626186  20.3265266  19.5695171  30.2254581
  19.7167435  18.3687744  31.9821682  19.1090355  18.4341698  32.7862282
  20.8099823  17.3195477  32.0017128  20.9620056  16.9251118  30.9970188
  22.1922531  17.8812504  32.3248711  22.4337616  18.6795025  31.6230412
  22.2098637  18.4995956  33.7237053  22.1050549  17.7416763  34.5000267
  23.1819401  18.9557571  33.9110146  21.4129829  19.2369499  33.8206062
  23.1044807  16.8008518  32.3417282  23.1719685  16.4486427  33.2322311
  20.4062405  16.1733875  32.8836555  19.8898544  16.3427486  34.0290451
  20.6522770  14.9788103  32.4502144  21.1459465  14.9470673  31.5696545
  20.5606461  13.7433357  33.1969910  19.6240139  13.7433186  33.7545052
  20.4337769  12.5766487  32.2002373  21.2668858  12.4662580  31.5060844
  20.2235012  11.6377230  32.7123909  18.9091778  12.9103403  31.2482185
  19.1996708  14.0856800  30.6833420  21.6747169  13.5350132  34.1765862
  22.7207794  14.1546192  34.0845222  21.5323467  12.5179090  35.0469589
  20.6081047  12.1297112  35.1701469  22.5518513  11.9705667  35.9398308
  23.5252514  11.7599621  35.4968452  22.8984509  12.9449205  37.0773582
  23.7572517  12.5190172  37.5961609  23.3549614  13.8703527  36.7262535
  21.6872368  13.2974482  37.9849091  20.7886753  12.8108397  37.6055641
  22.0183277  12.8468122  38.9205399  21.3054562  14.9779434  38.3123741
  22.7991753  15.4263105  39.2328606  22.8125286  16.4978218  39.4323273
  22.7992039  14.8125696  40.1336517  23.6968212  15.1260576  38.6923141
  22.1410580  10.6146517  36.5274315  20.9881287  10.1532173  36.5212479
  23.1159153   9.9132767  37.1614685  23.9835911  10.4163475  37.0424728
  23.0036621   8.5515041  37.6825485  22.0911484   8.1192656  37.2719460
  24.1165180   7.6838245  37.2173843  24.3748646   7.9760594  36.1995659
  24.9707718   7.8141284  37.8817482  23.7041073   6.2046490  37.1614685
  23.6543560   5.8698173  38.1975746  22.7437096   5.9856277  36.6948166
  24.7462444   5.3466640  36.4650230  24.6379375   5.0544081  35.2345085
  25.7023983   4.8647971  37.2098999  26.4238453   4.3111005  36.7705421
  25.6662731   5.1105580  38.1888809  22.9405746   8.4547119  39.2023354
  23.5740376   9.2049332  39.9616318  22.1016121   7.4755354  39.6260109
  21.5506325   6.9964075  38.9281883  21.8238487   6.9011402  40.9359512
  21.5473976   7.7030053  41.6205597  20.5846195   6.0294762  40.8308716
  19.8455276   6.4932346  40.1775932  20.8303051   5.0978737  40.3211098
  19.8835526   5.6621318  42.1215706  19.3243904   4.7427182  41.9480171
  20.5662766   5.3534684  42.9132233  19.0078220   6.7341166  42.7516022
  19.4568272   7.5951171  43.5992928  17.8289642   6.8226671  42.2292824
  23.0178967   6.2341328  41.6110725  23.6427708   5.3952332  40.9464645
  23.2856083   6.4719653  42.8775482  22.6820087   7.0732737  43.4199486
  24.1302357   5.5686607  43.7355537  25.1341476   5.5196052  43.3138275
  24.2786903   6.2766771  45.1016006  24.5661697   7.3173456  44.9517097
  23.2740040   6.1809683  45.5133553  25.1818142   5.6295772  46.2074509
  24.8796158   4.5823231  46.2016029  26.2164097   5.7123871  45.8745003
  25.0975533   6.2764907  47.9062691  26.1100388   5.0600772  48.8948555
  25.9676876   4.0431666  48.5291634  27.1872597   5.1599307  48.7617264
  25.9203529   5.2559085  49.9502068  23.4136276   4.2162743  43.8578339
  22.2149715   4.1930556  44.0843697  24.1508102   3.0646212  43.6523018
  25.1449833   3.2338562  43.5968246  23.5047607   1.6911150  43.7121124
  22.4535789   1.7267796  43.4260178  24.2122288   0.7689821  42.6444283
  24.1903019   1.2339133  41.6587982  25.2713890   0.8699849  42.8812294
  23.7433300  -0.6629926  42.6415024  22.5658207  -0.8823025  43.0900497
  24.5790844  -1.5762494  42.3728828  23.5463505   1.2034369  45.1669922
  24.3799419   0.3436677  45.4559631  22.7573910   1.8997477  46.0068665
  22.2579193   2.6490810  45.5495605  22.4408684   1.5185142  47.4117393
  23.3815289   1.1502962  47.8212204  21.7937870   2.6620829  48.3166847
  20.9120941   2.9696116  47.7544136  21.1868782   2.2646635  49.6927719
  20.2507362   1.7134084  49.6041603  21.9132404   1.8282249  50.3783493
  20.8989296   3.2102804  50.1521111  22.7594986   3.8381929  48.3114014
  22.8627949   4.2747202  47.3179855  22.2894707   4.6096287  48.9213676
  23.6686440   3.5559278  48.8423233  21.5029106   0.3421774  47.4618530
  20.4869652   0.3094679  46.7702675  21.8091202  -0.6073580  48.3729630
  22.5786819  -0.5470376  49.0242958  21.1865883  -1.8902603  48.2641945
  21.2029495  -2.1896458  47.2162399  21.9868164  -2.9105077  49.0653038
  21.4327412  -3.8478956  49.1143684  23.3351898  -3.2423003  48.5560760
  23.2428589  -4.0466900  47.8263321  23.8525200  -2.3381057  48.2352905
  23.8673286  -3.6610117  49.4102440  21.9899635  -2.3563335  50.4064026
  22.5099144  -2.9458592  50.9575005  19.7285576  -1.9399086  48.7113991
  18.9441147  -2.7387764  48.1943970  19.3647270  -1.0932369  49.6984863
  20.1372147  -0.5638937  50.0768509  18.0204067  -0.8313692  50.2302704
  17.5655079  -1.8183358  50.3143120  18.0349464  -0.3920303  51.2277031
  17.2267513   0.0346267  49.2890244  15.9751167   0.0006211  49.3719864
  17.8765106   0.7087879  48.2868690  18.8335152   0.4794767  48.0595856
  17.1237755   1.5793097  47.3384132  16.4228668   2.1662638  47.9319687
  17.8570309   2.2299285  46.8618279  16.3816185   0.8177274  46.2639122
  16.6532001  -0.3750786  46.0124359  15.5080795   1.4924545  45.5172539
  15.5544806   2.4514334  45.8307915  14.5714378   1.0965983  44.4881210
  13.9425430   0.2797618  44.8421974  13.6631365   2.2227557  44.0738678
  14.2458925   3.1319962  43.9262886  13.0991468   2.0780227  43.1524200
  12.6086874   2.4415202  45.1933937  12.9913950   2.4255028  46.2138748
  12.0634632   3.8296056  44.9366646  11.8016262   3.9674118  43.8875961
  11.2151394   4.0676908  45.5783539  12.7557268   4.6165304  45.2360191
  11.5764608   1.4048698  45.1920242  11.9388638   0.3994504  45.4062424
  10.6993551   1.6857126  45.7750473  11.2459936   1.2996640  44.1586723
  15.2975760   0.5891905  43.2336617  16.2833843   1.2596631  42.9239044
  15.0069628  -0.5215093  42.5409431  14.1287088  -0.9783574  42.7410927
  15.3328028  -0.6779184  41.0945396  16.3665237  -0.4497719  40.8347855
  15.2306309  -2.1759481  40.7579880  14.2009144  -2.5262125  40.8293915
  15.5272436  -2.0747521  39.7140160  16.1885014  -3.0985637  41.3514328
  17.1471958  -2.9785984  40.8468361  16.2493019  -2.9288652  42.4264221
  15.7747383  -4.5605354  41.1269302  14.8283815  -4.6730042  41.6559486
  15.5685024  -4.8550467  40.0979347  16.7892590  -5.5820093  41.6369476
  17.0607300  -5.4062405  42.6778679  16.4835148  -6.6227179  41.5294991
  18.0506248  -5.3633766  40.8806725  17.8406944  -5.0861716  39.9324150
  18.6394501  -4.6417398  41.2713432  18.7013206  -6.1274123  40.7668915
  14.4553871   0.2450147  40.2123032  13.2943096   0.4579101  40.5873947
  14.8099079   0.5680213  38.9623146  15.7651091   0.3813481  38.6924171
  13.9868383   1.2492936  37.9766769  14.5923233   1.6943511  37.1871147
  13.0917854   0.2282500  37.2787743  12.5488243  -0.3815969  38.0008430
  12.3707457   0.7676696  36.6645851  13.8214388  -0.7802811  36.3002167
  14.1030245  -0.2030433  35.4195328  14.7546444  -1.1592410  36.7168922
  12.9859095  -1.9715248  35.8072166  11.9153814  -1.8220993  35.6667099
  13.3629074  -2.3272154  34.8483353  13.0554762  -3.0939744  36.8485947
  14.1178455  -3.3369298  36.8697548  12.5018530  -2.8048642  37.7419128
  12.3995323  -4.3264527  36.2222061  12.4230833  -5.0927429  36.8797340
  11.4294815  -4.1299777  36.0209389  12.8556814  -4.8023081  35.4569664
  13.1183882   2.4858246  38.5693512  11.9477720   2.6310031  38.3225632
  13.8728857   3.4694231  39.1705551  14.8665886   3.2888069  39.1648903
  13.3930464   4.7176213  39.7569237  12.3119678   4.7744198  39.6298599
  13.7388573   4.7877655  41.1724777  13.5312834   3.8795130  41.7382431
  14.8029089   4.9230275  41.3663979  12.9476519   6.2060819  41.9397469
  13.2403860   7.2143550  41.1135483  14.0259933   5.8166828  38.9647560
  15.2145243   5.9432402  38.7317085  13.2009907   6.7565398  38.5291214
  12.2096062   6.6167312  38.6621971  13.5741844   8.0710897  37.9917564
  14.6484585   8.0371771  37.8104057  12.8901377   8.5011845  36.6481857
  11.8266850   8.3332825  36.8184280  12.9827127  10.0681858  36.3360672
  13.9539490  10.3087292  35.9037056  12.1685104  10.2415447  35.6324196
  12.8165073  10.7130232  37.1990051  13.3548431   7.5690799  35.4880028
  13.2614202   8.1642294  34.5796127  14.3915129   7.3315740  35.7267609
  12.4720621   6.2655864  35.4500999  12.5912523   5.5935116  36.2999306
  11.4359922   6.5884380  35.3479881  12.7102795   5.6890020  34.5562820
  13.3085451   9.1385908  39.0781860  12.2004738   9.1009026  39.5699615
  14.1569681  10.1424856  39.3136101  15.0639944  10.0433702  38.8805084
  13.9256172  11.1850023  40.3256760  12.8786011  11.1904945  40.6287041
  14.7360573  11.0577641  41.6364822  15.6395798  11.6623259  41.7155533
  14.1118231  11.4356890  42.4461784  14.9431190   9.6029005  41.9247856
  14.0456476   9.0030117  41.7738609  15.7602177   9.2724047  41.2835159
  15.4136038   9.5693026  43.3817787  16.1974831  10.3247252  43.4362793
  14.7475052  10.0048313  44.1265793  15.9590359   8.2935228  43.7303619
  16.6252995   7.9308877  43.0635109  15.7260780   7.4314904  44.6829758
  15.0720673   7.6187048  45.7317619  15.0209713   6.8139610  46.3399391
  14.8326759   8.5658045  45.9882660  16.1046028   6.2213664  44.4766312
  15.7650442   5.5060310  45.1036072  16.7275543   5.9911990  43.7156754
  14.2180214  12.5180559  39.5873833  15.0729322  12.5172758  38.7066193
  13.6999865  13.6500282  40.0637054  13.2085714  13.5838795  40.9436111
  14.0464363  15.0012751  39.4939842  14.9403744  14.8876905  38.8807373
  12.9498501  15.5070066  38.5458069  13.1123972  16.4145393  37.9643745
  12.6423359  14.4237928  37.4935265  13.4712734  14.0972433  36.8655663
  12.3380070  13.4335403  37.8324776  11.9246864  14.8755436  36.8086929
  11.5851526  15.7820015  39.1867752  11.7525797  16.4244099  40.0512848
  11.0481405  16.4554577  38.5188103  11.0344620  14.8577805  39.3618584
  14.3619823  16.1391907  40.5381050  13.9864044  16.0087242  41.6755562
  15.0427361  17.1724434  40.1548843  15.3052006  17.1944313  39.1798325
  15.3514032  18.4020290  40.9528389  14.5605488  18.3910942  41.7028580
  16.7883892  18.3019085  41.5506592  16.6166115  17.6542587  42.4103928
  17.4761620  17.8135033  40.8603516  17.4156685  19.6009064  41.9527817
  18.2843304  19.3647690  42.5674095  17.7471676  20.0539684  41.0184669
  16.3297195  20.7376995  42.8736610  16.3991985  19.9886322  44.5303726
  17.3311710  20.1725483  45.0648918  15.6406393  20.4803410  45.1393967
  16.3404350  18.9003525  44.5475578  14.9884214  19.5851326  40.0634155
  15.5086164  19.6312294  38.9431534  14.2021418  20.5436382  40.5353279
  13.7616634  20.4337997  41.4375572  13.8003368  21.7028542  39.8053818
  14.4050474  21.7231426  38.8987312  12.3934994  21.5528259  39.3839378
  12.2762995  20.6806698  38.7407341  11.7575588  21.3960762  40.2552071
  11.9171143  22.8495312  38.6844292  11.9527178  23.6694603  39.4017487
  12.5980301  23.1910725  37.9048119  10.2998981  22.6866512  37.9504623
   9.2162151  22.6469650  39.3848267   9.2433023  21.6550350  39.8358765
   9.5322323  23.3680153  40.1386948   8.1620750  22.8395348  39.1853256
  14.1338606  22.9459820  40.4961472  13.5036974  23.2932453  41.4859695
  15.2410383  23.6299610  40.2104759  15.8438005  23.2333393  39.5037384
  15.6139717  24.8574600  40.8711090  15.2505741  24.7982426  41.8970413
  17.1331482  25.1423798  40.7744598  17.2964230  25.4114647  39.7308922
  17.4902058  26.2676601  41.8053627  18.5716496  26.3927841  41.7512856
  16.9647636  27.1924038  41.5669022  17.4578228  26.0477467  42.8724556
  17.8985157  24.0337906  41.0800552  17.6968956  23.8177624  41.9934464
  14.8618097  26.0701733  40.3235664  14.7660942  26.2153263  39.1111298
  14.2308655  26.9621677  41.1423836  14.2388153  27.0120487  42.1511192
  13.2120743  27.9568844  40.7598991  13.4282389  28.2815037  39.7420616
  11.8209295  27.2213345  40.6869278  11.8744583  26.5437202  39.8348274
  11.5290594  26.4362431  41.9451675  11.5285273  27.1567097  42.7631111
  10.5732079  25.9132328  41.9150658  12.3057976  25.7036343  42.1643715
  10.5633688  28.0743732  40.4591827  10.7457514  28.7374783  39.6135330
   9.7792683  27.3446922  40.2570686  10.3467512  28.6986485  41.3260498
  13.1034575  29.1740704  41.7235909  13.3457441  28.9701176  42.9657631
  12.9644222  30.3550205  41.1451569  12.7585793  30.3398800  40.1564713
  12.6541815  31.5715847  41.9124222  13.3267307  31.5168934  42.7684517
  13.2212105  32.8504486  41.2530670  14.3003683  32.6991158  41.2779388
  12.8818293  32.8484650  40.2172432  12.8158751  34.2268982  41.7664413
  12.6722803  34.7864380  40.8421059  11.8225183  34.1623650  42.2104912
  13.8046713  34.8961220  42.7072449  14.5342884  34.2447472  43.4277573
  13.8552332  36.1857491  42.6866837  14.5880127  36.6679039  43.1873474
  13.2692308  36.7063637  42.0497665  11.2355499  31.5463505  42.3949127
  10.3200207  31.5080662  41.5822182  11.0598249  31.6213226  43.7263985
  11.8246317  31.9206715  44.3142433   9.6768599  31.6726055  44.3625526
   8.9434519  32.0799942  43.6666756   9.2467499  30.1887894  44.5929375
   9.2966585  29.7018261  43.6190376  10.1657047  29.3900414  45.6514511
  10.0681829  28.3352604  45.3944855  11.2044640  29.7093182  45.5669479
   9.8879156  29.6375389  46.6759872   7.9299879  30.1313839  45.0761452
   7.3685966  30.6400852  44.4865189   9.6406717  32.3600845  45.6982841
  10.6126184  32.5607986  46.4102402   8.4965658  32.7884254  46.0876350
   7.7731690  32.8281479  45.3839149   8.0925865  33.4117088  47.3619995
   8.9721575  33.7465668  47.9118423   7.1727653  34.6600838  47.0486221
   7.7218242  35.2851639  46.3444099   6.2956505  34.4011345  46.4555664
   6.9225097  35.4820900  48.2576332   5.6969748  35.6161461  48.5279503
   7.9255219  35.9090385  48.8698845   7.3007712  32.4002190  48.2310562
   7.1606388  32.6090660  49.3766365   6.8686275  31.2208786  47.7271156
   7.0020413  31.0010204  46.7504044   6.4393525  30.1216240  48.5612106
   5.4528584  30.4100361  48.9241829   6.1202288  28.9376888  47.6941681
   6.9528179  28.7451305  47.0175476   5.9048166  27.6658840  48.6130104
   5.6638589  26.7457142  48.0807190   6.7953892  27.4022312  49.1835060
   5.0945334  27.8557529  49.3169250   4.8199315  29.0040932  46.8995895
   3.9706876  28.8766556  47.5708885   4.8089523  29.8915710  46.2668457
   4.8690872  28.1360550  46.2421761   7.5151739  29.7972107  49.6674080
   8.6460934  29.5201569  49.3175697   7.1864104  29.8545818  50.9389877
   5.8739061  30.3324299  51.5080070   5.0976720  29.5953331  51.3024673
   5.5171099  31.2639256  51.0685616   6.1754160  30.4011974  53.0480843
   5.2861862  30.1611843  53.6309738   6.5848322  31.3858376  53.2738342
   7.2224727  29.3390045  53.2749672   6.5125232  28.5119419  53.2813644
   7.8189368  29.4953423  54.1737938   8.0791540  29.4010372  52.0223656
   8.8990803  30.1050758  52.1643219   8.6442051  27.9128513  51.7531929
   7.9303708  26.9780350  51.3575897   9.9268589  27.6638794  52.1868973
  10.2380791  28.2949791  52.9114380  10.7152281  26.3846207  52.1426277
  11.0240774  26.1973286  51.1142120  12.0482845  26.3754196  52.9425240
  12.4554090  27.3736610  53.1033401  11.7819195  26.0157223  53.9363937
  13.1387587  25.4118862  52.4061317  12.6667957  24.4293633  52.4057770
  13.4199095  25.7592869  51.4119644  14.3645363  25.3501911  53.3108635
  14.2621098  25.0965366  54.5129509  15.5048561  25.6210804  52.7725830
  16.3712597  25.5450954  53.2860718  15.7067890  25.9217415  51.8297539
   9.8508825  25.1631584  52.4477348   9.7079353  24.1954041  51.6980400
   9.1274376  25.2634068  53.5394897   9.1148176  26.0669651  54.1512375
   8.3032608  24.1218262  54.0961647   8.8479548  23.1777706  54.0832672
   7.8564234  24.4794693  55.5160522   7.6333799  23.5390072  56.0199165
   8.7255983  24.7309170  56.1238441   6.9298100  25.7473354  55.5832710
   5.9113445  25.6224804  56.3293648   7.1582866  26.7806950  55.0479469
   6.9964929  23.7710190  53.2456245   6.5990267  22.5979614  53.3143311
   6.4363518  24.7308693  52.4716682   6.8726840  25.6309509  52.3317757
   5.1102290  24.5324860  51.8818130   4.6367550  23.7017422  52.4050598
   4.3901157  25.8536777  51.8730507   4.9557686  26.5828876  51.2930603
   3.4249349  25.6496220  51.4094887   4.1600156  26.3129005  53.3290329
   3.7443960  25.4845943  53.9028549   5.1054029  26.5491829  53.8174095
   3.3248651  27.5075245  53.4815331   3.1205292  28.3117638  52.5115471
   2.7334661  27.7903442  54.6482353   2.8880577  27.2098942  55.4601974
   2.1652815  28.6250534  54.6712036   5.1885409  24.1533566  50.3103981
   4.2726336  23.7633305  49.6429329   6.4829364  24.2372208  49.7797203
   7.2402620  24.4872875  50.3994179   6.9874177  23.5577412  48.6320114
   6.6169558  24.1042233  47.7647095   8.4643145  23.6587181  48.6372986
   8.7488661  23.2951241  49.6246872   9.0849018  22.7917881  47.5734138
   8.7828293  23.2199879  46.6176414  10.1720285  22.8704815  47.5813828
   8.7726650  21.7475185  47.5838394   9.0432396  25.1207905  48.4104424
   8.6560631  25.8069000  49.1637344  10.1053162  25.0226994  48.6351166
   8.8009634  25.7285233  47.0548592   7.7381339  25.7238903  46.8130417
   9.2149897  26.7357845  47.1007690   9.2473316  25.3167076  46.1497269
   6.4725246  22.0865841  48.5721169   6.5422964  21.4017200  49.5854073
   5.8147335  21.6721230  47.4601631   5.8649821  22.3149147  46.6827354
   5.4420981  20.2463093  47.1467552   5.4508905  19.7467861  48.1155167
   3.9719739  20.2110825  46.7657623   3.7880530  20.7142429  45.8164978
   3.6959312  19.1577873  46.7160873   3.0525854  20.9874058  47.7790184
   3.3922260  22.0213642  47.8396492   2.0660830  20.9452362  47.3173561
   2.9247141  20.4691734  49.1750526   3.8390157  20.5385017  49.7644157
   2.2252185  21.1506672  49.6591721   2.4495790  19.0758591  49.1819916
   1.8776541  18.7934284  48.3988991   2.9467690  18.0684586  49.9436951
   3.6640065  18.2035599  51.0401268   3.7145274  17.4356823  51.6942787
   4.0760069  19.1061058  51.2292557   2.5852430  16.8336315  49.7829056
   3.0331492  16.0792370  50.2832756   2.0107663  16.6549702  48.9716339
   6.3440552  19.5810032  46.2137833   6.1343727  19.5231857  44.9991570
   7.3540044  18.9831944  46.7985992   7.4104843  19.0519524  47.8046722
   7.9936361  17.7765484  46.2831497   8.4781952  18.0158424  45.3365555
   9.1177597  17.3038139  47.2688065   8.6474600  16.6938496  48.0400810
   9.8471184  16.7241650  46.7029953   9.9551287  18.4669132  47.7799606
  10.7338476  19.3349915  46.9946938  11.3799515  20.1160278  47.8729935
  12.0268011  20.8910809  47.4892197  10.9295301  19.9563122  49.1362686
  11.0391121  20.6191959  49.8903732   9.9811993  18.9168854  49.0807495
   9.4671707  18.5685730  49.9644089   6.9335995  16.6277733  46.0816612
   6.1991563  16.3294411  47.0918999   6.7210178  16.1683254  44.8740425
   7.3586159  16.5429859  44.1861496   5.7008586  15.1318359  44.4318275
   4.9861364  14.8041830  45.1867561   4.9412122  15.7012300  43.2173805
   5.6712470  16.1309147  42.5314369   4.1232958  14.7042007  42.4671707
   4.7508388  13.9294243  42.0267143   3.3864567  14.3071012  43.1653709
   3.5735946  15.1926270  41.6625786   3.9024100  16.7968655  43.6398315
   3.1231568  16.3924847  44.2858582   4.3743434  17.6963387  44.0352135
   3.4315226  17.2579060  42.7716103   6.3813434  13.8449163  43.9511185
   7.2262206  13.8035574  43.0550842   5.9070001  12.7295465  44.4500389
   5.0372896  12.7365217  44.9635124   6.3802009  11.3767538  44.3196411
   7.1083498  11.3200607  43.5105133   7.0325313  10.9361868  45.6428452
   6.3685441  10.7522593  46.4874687   7.4988317  10.0038252  45.3244553
   8.0665340  11.8370485  46.2148476   7.7526050  13.0560646  46.8101921
   6.7060027  13.3009138  46.9154243   8.7644424  13.8069229  47.3937683
   8.4468212  14.7335052  47.8486977  10.1091042  13.3884764  47.4632339
  11.1575727  14.1694927  47.9825478  11.6540785  13.7040739  48.6596489
  10.4186487  12.1377726  46.8183060  11.4377308  11.7821779  46.7805519
   9.3843145  11.3132896  46.2712975   9.5987682  10.3453693  45.8428802
   5.2525516  10.4523773  43.8588829   4.0862713  10.5648499  44.2185287
   5.5318198   9.5856600  42.8915520   6.4767785   9.6043167  42.5354538
   4.4922514   8.8021040  42.1774216   3.5886552   8.8030252  42.7870293
   4.0984402   9.4515676  40.7807274   4.9694810   9.4894199  40.1265411
   3.3982835   8.8225985  40.2309265   3.4920199  10.8523989  40.8316154
   4.1411433  11.4955797  41.4258003   3.3162832  11.5066280  39.4761047
   2.6420536  10.9424582  38.8317223   2.9581397  12.5274963  39.6090393
   4.3076019  11.4368792  39.0283051   2.1038074  10.8128309  41.5332909
   1.3828465  10.2973452  40.8987923   2.2587769  10.2660933  42.4634323
   1.7705575  11.8210564  41.7793083   4.9463439   7.3821301  41.9071693
   6.0831285   6.8950653  42.1730652   4.0773296   6.4221859  41.5285835
   3.0944088   6.6384578  41.4437752   4.4614725   4.9743934  41.4100151
   3.5512991   4.3783197  41.3438301   5.2222447   4.6685066  40.0863419
   6.2348676   5.0317273  40.2617455   5.3628588   3.5899923  40.0146828
   4.5738740   5.2173347  38.8069687   4.5373263   6.3066554  38.7949257
   5.2590384   5.0611606  37.9737434   3.2500064   4.6631594  38.3560486
   2.7488511   5.1721449  37.3225174   2.7465336   3.5977728  38.8211479
   5.0685968   4.3403220  42.6654625   4.7675424   4.8309264  43.7402802
   5.8817916   3.2444210  42.6105995   6.2633424   2.8973558  41.7422295
   6.5415459   2.7922335  43.9099693   5.7108874   2.5557687  44.5749512
   7.3938894   1.5343504  43.5796890   8.1327190   1.7152355  42.7989731
   7.9160347   1.2309805  44.4871178   6.4563937   0.3821263  43.2714577
   5.8449979   0.0707135  44.1184044   5.7561731   0.7760269  42.5348129
   7.2450228  -0.7946755  42.7010422   7.6976728  -0.5692526  41.7354355
   8.0836096  -1.0203509  43.3597908   6.2835073  -2.0245419  42.5836563
   6.0979228  -2.4355273  43.5760002   5.3392859  -1.6123596  42.2277756
   6.9424000  -2.9904931  41.6877441   7.8836508  -3.2753179  41.9180107
   6.3479161  -3.8021660  41.7765198   6.9117541  -2.6668079  40.7315102
   7.4465756   3.8278594  44.5859947   7.6900597   3.6633670  45.7516174
   7.8194895   4.9122467  43.8922119   7.4936204   4.9604635  42.9374390
   8.5165081   6.0850234  44.4926300   9.2421999   5.6304717  45.1670609
   9.2968731   6.9153228  43.4627419   8.6290283   7.5888591  42.9256821
  10.2348013   7.3164983  43.8467331   9.6157398   6.1511583  42.7538834
   7.6754799   6.9955740  45.4032860   8.2897787   7.6938982  46.1673279
   6.3410487   6.9061837  45.4875031   5.8781443   6.4346309  44.7236557
   5.5045176   7.5933313  46.4942589   5.5595365   8.6784029  46.4065475
   4.0107818   7.2361546  46.2452660   3.8033314   7.2880387  45.1764450
   3.7087929   5.8683271  46.7537003   4.4815130   5.1078544  46.6410294
   3.5147698   5.8331671  47.8257179   2.8448074   5.5267029  46.1836815
   3.1419044   8.1997404  47.0017090   2.1023235   7.9695468  46.7684860
   3.2494109   7.9774880  48.0633812   3.4544897   9.2243052  46.8000717
   5.8853798   7.3086200  48.0386353   5.6833935   8.2467918  48.8279037
   6.6269460   6.2141714  48.2917290   6.7381873   5.5613570  47.5291290
   6.8414607   5.7741141  49.6876526   5.8786821   5.9412746  50.1705780
   7.2419333   4.2755632  49.7662964   7.2583513   4.0304418  50.8282509
   6.1132045   3.5248122  49.0917130   6.2451944   3.3996875  48.0169907
   6.0695181   2.5096569  49.4862518   5.1844492   4.0586920  49.2929192
   8.5867949   3.9279411  49.1225433   8.8060246   2.8796751  49.3254738
   8.5602875   4.0128179  48.0361748   9.3298140   4.5868807  49.5717964
   7.9961305   6.6347198  50.2633171   8.1279354   6.5671082  51.4776306
   8.8147802   7.3053384  49.4470177   8.5520668   7.2094984  48.4765015
   9.9162312   8.2329798  49.6917496  10.5537624   7.8023033  50.4638748
  10.7908726   8.4111748  48.4498634  10.3005457   8.9272680  47.6244392
  11.5063496   9.1902094  48.7131119  11.3513746   7.1909957  47.7220039
  10.5749588   6.4806776  47.4378624  11.9737053   7.7870960  46.4504471
  12.5035534   7.0200577  45.8856354  11.2490110   8.2316084  45.7682953
  12.7257681   8.4747458  46.8372803  12.3561773   6.3895717  48.5574265
  13.2299900   7.0107541  48.7541199  11.8731318   6.1283131  49.4989738
  12.6092176   5.4979773  47.9837265   9.4940825   9.6223936  50.1400223
  10.3086252  10.2302809  50.8146629   8.3336773  10.0991373  49.8291473
   7.7210417   9.5425119  49.2503929   7.8788848  11.5423069  50.0640717
   8.4000931  12.0585546  49.2578926   6.3023186  11.6629667  49.9271202
   6.0645027  12.7160387  50.0774002   6.0870881  11.3636627  48.9013557
   5.5152392  10.8144817  50.9402695   5.9718666   9.8276262  51.0158195
   5.5808811  11.3296747  51.8985863   4.1187110  10.6382055  50.3046303
   3.7775135  11.6638069  50.1638145   4.2369699  10.1707678  49.3270721
   3.2643182   9.9918566  51.2926483   2.8434787  10.6300068  51.9527702
   2.8827569   8.7566385  51.3389282   3.4973929   7.7819777  50.6582756
   4.3726869   7.9617877  50.1874924   3.2377756   6.8158784  50.7973824
   1.9244016   8.5013247  52.1885719   1.8750219   7.5580621  52.5462303
   1.4982615   9.2499266  52.7159233   8.2963285  12.1229753  51.4659500
   8.0480967  11.4189892  52.4635887   8.7779894  13.3852806  51.6018105
   9.0797405  14.2387228  50.4906158   8.1975594  14.7235708  50.0725403
   9.6531172  13.5762548  49.8421745  10.0066633  15.3367548  51.0295868
   9.5575657  16.2358856  50.6077156  11.0449018  15.3536682  50.6981125
   9.8863945  15.2910271  52.5032730   9.2497540  16.0869942  52.8895683
  10.8567305  15.3295946  52.9983063   9.2356682  13.9270697  52.8144608
  10.0793505  13.3591166  53.2065468   8.2004614  14.0974398  53.9669456
   8.5433578  14.0026226  55.1411209   6.9097748  14.2022429  53.6304283
   6.7574978  14.5053654  52.6790962   5.8312359  14.2570734  54.6609306
   5.9639273  15.1814928  55.2230186   4.4819350  14.3526058  53.9606934
   4.3170652  13.5281277  53.2670403   3.6735575  14.2650604  54.6866226
   4.2964587  15.5170879  52.9774170   3.7431188  15.2277241  51.8548164
   4.7645397  16.6023426  53.2853699   5.8293881  13.0116119  55.5433197
   5.8697162  13.1055784  56.7768211   6.0762935  11.7787514  54.9440231
   6.3105283  11.7210779  53.9632530   6.1321950  10.5626287  55.7134171
   5.3408279  10.5009022  56.4604301   6.0181460   9.5167274  54.6286774
   5.2044277   9.7883835  53.9562416   6.9819674   9.4975176  54.1199722
   5.8328557   8.0716658  55.1492081   6.7395554   7.6093488  55.5394096
   4.7256179   7.8936825  56.1484070   3.8654425   8.5524616  56.0292206
   4.3974710   6.8580413  56.2371063   5.0952573   8.1713829  57.1355019
   5.3890748   7.2361913  53.9676704   4.5113621   7.6536279  53.4742393
   6.0744171   7.2557216  53.1203041   5.1879148   6.1991987  54.2365227
   7.3596811  10.4794083  56.5572624   7.3366780   9.7283678  57.5453758
   8.3822269  11.2947893  56.3845406   8.3856945  11.8782253  55.5601044
   9.6582279  11.3583717  57.1282463   9.9210691  10.3830767  57.5378952
  10.8163481  11.8017035  56.1937790  10.9920721  11.0343332  55.4398804
  10.5083866  12.6512823  55.5842896  11.9939966  12.0614548  56.8383102
  12.4383335  12.7446041  56.3308945   9.6439743  12.3149805  58.2665405
  10.1521807  11.9975567  59.3358994   8.9137487  13.4536304  58.1406136
   8.6662769  13.6457911  57.1804390   8.4506912  14.3632402  59.1595993
   9.3193684  14.7983665  59.6537285   7.6063118  15.5701094  58.5698013
   6.6615133  15.1231422  58.2604828   7.3520832  16.1811237  59.4359055
   8.2166033  16.5221310  57.5409584   8.5029392  15.9067373  56.6880760
   7.1867390  17.5020905  56.9437294   7.0042210  18.1356850  57.8116837
   7.6770229  18.0831890  56.1626778   6.2927985  17.0193615  56.5488243
   9.4341431  17.3191013  58.1158104  10.1713362  16.5457726  58.3316956
   9.7465267  18.0985889  57.4208870   9.1023750  17.8337097  59.0175934
   7.5697184  13.6053171  60.1600647   7.8038058  13.6880093  61.3732643
   6.7063594  12.7798662  59.5989151   6.7449956  12.6390839  58.5995216
   5.8751373  11.8848572  60.4131889   5.3721156  12.3880444  61.2389450
   4.7216554  11.2945147  59.4783211   5.2529564  10.7986774  58.6659393
   3.8606639  10.2961073  60.0672646   3.4610724  10.7747164  60.9613380
   3.0631146  10.0875130  59.3541718   4.2863235   9.3904762  60.4994164
   3.9194982  12.3966808  59.1108894   4.4033213  12.8643694  58.4262123
   6.6010098  10.7526131  61.2037163   6.3583598  10.6087751  62.3832932
   7.5451293  10.0736856  60.5301323   7.4704776  10.0026846  59.5254021
   8.5163498   9.2158499  61.2093773   8.0239191   8.3962011  61.7326241
   9.5132704   8.6954250  60.0957108   8.8544960   8.5370512  59.2418747
  10.3137236   9.4140873  59.9199066  10.0779610   7.3931193  60.4522285
  10.6755285   7.4152021  61.3635597   9.3052149   6.6707320  60.7151413
  10.8575773   6.8264170  59.2855110  10.1039457   6.8081150  58.4982338
  11.7697754   7.4097052  59.1599236  11.2637568   5.3430161  59.4854851
  12.1908722   5.2184429  60.0449867  10.4491730   4.8174152  59.9837799
  11.5678949   4.7060909  58.2304382  11.9551105   3.7838085  58.3702965
  10.6921406   4.5337582  57.7577209  12.1415577   5.1821651  57.5489960
   9.2580070   9.9822206  62.2496910   9.5829287   9.4067621  63.2579536
   9.4030914  11.3149033  62.1441650   9.2105436  11.7326708  61.2449989
   9.9988804  12.1113005  63.2609062  10.6672611  11.4868212  63.8536873
  10.7826920  13.3052559  62.7481499  11.3991899  13.0609331  61.8830833
  10.1270885  14.1139612  62.4252243  11.8061790  13.8195524  63.7823448
  12.5357790  13.0395699  64.2981644  11.6580925  15.0885592  64.1895447
  10.9787102  15.7118483  63.7771645  12.2349968  15.4380064  64.9413147
   9.0509739  12.5419579  64.4350967   9.5658264  13.2436619  65.3531723
   7.6907449  12.2860727  64.4640350   7.2979622  11.7218866  63.7240944
   6.7537441  12.6737089  65.5399323   7.3552961  13.0164366  66.3818207
   5.7491474  13.7429304  65.0034561   5.1121402  14.0168896  65.8444519
   6.5361905  14.9995203  64.6679840   7.2078452  14.8983707  63.8154907
   5.9375372  15.8143930  64.2609253   6.9404240  15.4249945  65.5864944
   5.0766134  13.4573030  63.8199348   4.3174653  12.9374971  64.0939713
   6.0321383  11.4835110  66.1225433   6.0115900  11.4106283  67.3208542
   5.5056086  10.5911369  65.2951126   5.5481339  10.7713146  64.3022232
   4.6541953   9.4402704  65.6587524   4.1253042   9.5362253  66.6069946
   3.6341250   9.1259985  64.5090256   4.2193546   8.6801653  63.7047653
   2.8520188   8.4703493  64.8918228   2.9849389  10.3688679  64.0400620
   3.6585450  10.8839817  63.3552208   2.1615653  10.0393410  63.4063683
   2.5784168  11.3757124  65.1247406   1.8630203  11.0214348  66.1260223
   2.8667169  12.5784302  65.0018082   5.4202604   8.1745043  65.9257355
   4.7851830   7.1279240  66.0913010   6.7851048   8.0809298  65.9051971
   7.3405566   8.8536329  65.5668106   7.5149660   6.8135009  66.1027603
   6.8006463   6.0356941  66.3727188   8.1276388   6.4529514  64.7947769
   7.3421769   6.3217354  64.0505066   8.7023325   7.3377414  64.5209656
   8.9576883   5.0655355  64.6673203   9.8305321   5.1683011  65.3120499
   8.0799313   3.9018757  65.1908646   7.1161013   3.8686996  64.6828918
   8.5874300   2.9545677  65.0087814   7.9609895   4.0504618  66.2641144
   9.3201971   4.9105802  63.2150154   9.7789955   5.8381400  62.8726158
   9.9296284   4.0101585  63.1379852   8.3927479   4.8752542  62.6434402
   8.5174313   6.8839064  67.3081894   9.7169180   7.2056174  67.1128082
   7.9944582   6.6662254  68.4097443  23.2192688  14.0765095  25.5138721
  23.0802078  13.1344023  24.9879227  24.0115414  14.1479998  26.2559814
  22.2046928  14.9413252  25.5167198  22.2895088  16.1825504  26.4025402
  21.5573711  17.1441116  26.2424297  23.1544132  16.2542725  27.2472095
  21.2324810  14.8580332  24.5489826  20.2577400  13.8694000  24.8785934
  20.6344585  13.1797895  25.6439095  19.8798046  13.2196703  23.5396843
  20.7100048  12.8059769  22.9712162  18.6462269  12.9507341  23.1990337
  17.5753803  13.3547773  24.0410843  16.5712891  13.1223888  23.6915150
  17.7235069  14.1420889  25.1590748  16.8640785  14.4089050  25.7704010
  19.0732746  14.6072979  25.5709381  19.1568584  15.6821194  25.3685455
  19.2774734  14.4356699  27.0140896  18.7407875  13.6957808  27.3476486
  18.3941803  12.1794863  21.9417286  19.3292637  12.0031338  21.2040768
  17.2379894  11.9121561  21.5395088  39.3870773  16.4937191  43.7261124
  40.1209679  15.9807625  43.1082115  39.6828690  17.4341869  44.1860619
  38.0938530  16.0418606  43.8498955  37.0815392  16.7810268  44.6004028
  37.1886597  17.9754066  44.8852310  36.1462364  16.1535168  45.1127014
  37.7204933  14.8780537  43.2099304  37.2598839  14.8341637  41.8118553
  37.0103111  13.7782421  41.6508179  38.4181137  15.2311583  40.9353485
  39.2072334  14.4834309  40.8938141  38.6036491  16.4045162  40.3541222
  37.6200333  17.4098740  40.5806923  37.7506409  18.4126911  40.1785774
  36.4061050  17.1241970  41.1648903  35.7049026  17.9355335  41.3481102
  35.9892578  15.7407227  41.7076759  35.5206604  15.8470926  42.6937256
  35.0018578  15.2716446  40.7457962  34.5585403  14.5314474  41.1955795
  39.8707161  16.7851334  39.5920906  40.8637733  16.0989456  39.5620308
  39.9013939  17.7941246  38.8797302  13.6505566   8.8940725  50.3927612
  12.9370174   9.6298437  50.7574921  13.7420301   7.9566188  50.9371338
  14.4848318   9.0452347  49.3008347  14.3543806  10.2248526  48.4197121
  13.7108669  11.2193575  48.7463722  14.7353144  10.1004047  47.2478333
  15.4490070   8.0981188  48.9462662  16.4948864   7.6853199  49.8300171
  17.3121891   7.2587247  49.2356911  15.8292637   6.7269273  50.8286438
  15.1189671   6.0391808  50.3747597  16.3353939   6.6425519  52.0471916
  17.4016399   7.6357589  52.5752068  17.7381096   7.4953446  53.6006203
  17.8683643   8.6238251  51.8116760  18.5223579   9.3957863  52.2115440
  17.1507187   8.8639927  50.5479088  16.3815670   9.6016207  50.8077164
  17.9867363   9.6083498  49.6485176  18.3539600   8.8899784  49.1046257
  15.7109547   5.6574664  53.0456314  15.9098234   5.6479430  54.2901344
  14.8680954   4.8772349  52.6585464   3.3193042  40.1130753  19.1007481
  26.1623497  59.5056076  41.0401192  25.4019661  60.1773567  16.5190735
  44.6667519  21.5241508  88.5154266  19.3014870  36.5277252  66.3465271
  83.8837967  32.5747643  36.6380463  70.9867630  52.4345207  50.7828789
  44.1865540  31.7160435  57.3439331  86.0761490  71.2008743  66.6747284
  47.3270302  44.6854820  79.0059967  47.0597992  45.3545456  78.3757782
  47.7062836  43.9891815  78.4697418  42.5493507   2.2507617  77.7254410
  42.0821571   2.8713772  78.2847290  42.2099495   2.4181736  76.8462372
  85.4760513  35.4628029  62.7820129  84.7395706  35.9724617  62.4442520
  85.0984573  34.9322891  63.4835930  51.3943748   7.8779049  23.3116417
  51.8195801   7.8561363  24.1689377  50.9002914   7.0592146  23.2684860
  21.3365574  36.7591591  54.6672096  21.1694946  35.8600197  54.3845940
  22.2758732  36.8825760  54.5305176  25.4939384  23.1075153   1.3107698
  25.3377514  22.8149147   0.4128709  26.1925526  23.7572079   1.2328612
  36.3571815  26.4104671  62.4917145  36.4691544  26.1614151  61.5742912
  35.7426453  25.7654247  62.8417168  80.6771698  62.8123856  46.1703262
  80.4847107  61.8869591  46.3212471  81.3716736  62.8082619  45.5116310
  72.6233215  62.4984550  20.7824097  72.6680374  63.4276619  21.0078201
  72.2271118  62.0847626  21.5492916  73.9974670  27.9937706  27.6838837
  74.4082565  28.8034935  27.9869175  74.6271439  27.3079815  27.9062004
  77.3103104  39.3688011  62.0914192  76.9415512  39.3496056  62.9745255
  76.6223068  39.7599640  61.5530205  54.4476624  19.8183994  18.7223625
  54.9879341  19.6810093  19.5004768  55.0756416  20.0068989  18.0249805
  55.4282417  47.0641136  11.6946907  56.2311935  46.5728378  11.5210667
  55.1353149  47.3569870  10.8317575  56.4567032  71.0695572  36.5537949
  56.3785477  71.6438217  37.3156013  55.8522720  71.4407272  35.9110489
  36.0096359  32.5461769  80.8329544  35.3623886  32.7245331  81.5152206
  36.2232933  33.4075966  80.4744263   5.3558903  10.8548222  70.0072861
   5.7752337  10.8607388  69.1468582   5.8986640  10.2683401  70.5342331
  43.1856956  50.5292435  48.6074791  43.0887146  50.4613724  49.5573311
  42.7652283  51.3591957  48.3824883  45.0062904  68.2127838  19.0143127
  44.2786217  67.6102524  19.1682053  44.9184608  68.4645462  18.0950012
  21.2329636  15.5751076   2.5904503  20.3615074  15.3300486   2.9014831
  21.1549091  16.5021076   2.3650379  45.5855446  64.1637573  15.2145319
  44.9558754  64.0216675  14.5077362  45.9943237  65.0037537  15.0058556
  35.1687355  57.0178604  49.3125725  34.2459335  57.2676201  49.3603783
  35.5633583  57.4087410  50.0921364   0.2362669  10.7489643   6.6007233
   0.9631925  10.8814716   7.2092075  -0.1134982   9.8877821   6.8293343
  85.4330826  46.7479172  11.6116838  84.7976074  46.5576744  12.3017664
  85.9053040  45.9246483  11.4873543  50.0453987  31.9152527  10.3674984
  49.8128471  32.5721970   9.7113171  50.8341904  31.4987144  10.0203142
  82.6849442  32.5531044  71.2912750  82.9489899  32.2013550  72.1414413
  81.8298645  32.9520454  71.4522400  60.0159607  29.6660995   7.7258830
  59.9794464  30.3687668   7.0769162  60.9151306  29.3415298   7.6771369
  28.4284630  56.0690155   7.8342581  28.1890717  55.2100906   8.1823549
  28.8269844  55.8805237   6.9846210  84.3080215  54.0039444  18.2842388
  84.1960754  54.4681015  17.4546261  84.2404022  53.0779076  18.0516033
  52.5828743  42.2814445  45.3168335  53.1610603  41.7509384  44.7686577
  52.0243645  42.7476578  44.6947861  44.3310738  48.2223434  69.1421509
  43.6757164  48.5023994  69.7811356  45.1685905  48.4705200  69.5335617
  57.7079849  52.9730644  34.9488449  58.3902016  52.4507904  34.5268898
  56.9517212  52.8938980  34.3674393  64.1076202  70.6146393  40.2005234
  64.0074615  71.5518494  40.3673630  64.9400635  70.5420914  39.7336159
  61.2643471  47.3132095  76.7587357  60.9900055  48.1326942  76.3471375
  61.0397110  47.4223557  77.6827774  33.0161896  10.7817373   7.3951855
  32.8202515  11.6915359   7.1713409  33.9501495  10.7824669   7.6048250
  85.2455673  32.4987373  10.1964626  84.5100098  32.6582947   9.6050777
  84.8365707  32.2761803  11.0327797  52.5768776  58.9128952  10.0922804
  51.6861954  58.9881401  10.4347115  52.7010040  59.7062454   9.5713034
  43.2498016  65.3565369  16.7485409  42.8191566  66.2079926  16.8247280
  44.1122055  65.5560608  16.3842831  72.3460770  65.6931229   6.0108991
  72.0666733  65.0717392   5.3385534  72.8703918  65.1701202   6.6173592
   1.1005797  29.6970139  88.2642975   1.4419650  29.8733292  89.1409912
   1.8591746  29.7919121  87.6883087  30.0099068  37.0769577  82.3029099
  29.1404057  36.8106308  82.6016922  29.9001122  37.9870148  82.0272827
  59.8278084  17.6883640  35.5952377  59.1814117  18.3714466  35.4169006
  59.8773918  17.6490154  36.5503426  69.3066330  20.0381393  23.7026901
  68.5021973  20.5461063  23.8079720  69.0206985  19.1255531  23.7434044
  14.3481083  53.9903069  27.1186218  13.5560360  54.3254280  26.6984482
  14.0263443  53.4568596  27.8453503   0.5125729  50.2035065  60.6723442
   1.0245824  50.6600838  60.0047989  -0.0715926  50.8740692  61.0263672
   9.8730946  14.9935207   4.6136603  10.4931078  15.4671116   5.1682119
  10.0547934  14.0696745   4.7860680  85.6465149  43.8400345  46.3956795
  85.2054901  44.5780525  46.8164635  86.2522736  43.5123596  47.0604401
  39.3730164  52.6523933  23.5729084  39.5732765  52.7227974  22.6395435
  39.2230759  51.7178841  23.7158775  52.6152306   0.8011325  13.3884573
  51.8463173   0.5148566  13.8814573  53.3574333   0.5710976  13.9474325
   5.1395583  41.8889503   1.9630566   4.4583869  41.5170517   2.5233500
   5.2920933  42.7638855   2.3200641  53.2683067  50.7002831  26.3492489
  53.6409416  51.0773048  27.1462631  54.0156708  50.5998688  25.7596760
  32.1336403  60.2716599  22.6720982  32.1225929  60.3296738  23.6274738
  32.3569450  59.3588333  22.4901390  63.8584709  16.0409431  23.0918179
  63.4134979  16.6660442  22.5195599  63.4967346  16.2126198  23.9612484
   6.8506131  13.2433243  13.0719595   7.4163418  13.9732399  12.8201523
   6.3649735  13.5673208  13.8305187  26.8786125  56.1244545  70.5126343
  27.0217457  56.4457779  71.4028625  27.7586727  56.0245323  70.1496735
  21.7055645   5.1917529   1.9686021  20.7497272   5.1815367   2.0186377
  21.8978615   5.6588192   1.1555203  75.5765762  14.6826324  35.2661629
  74.8309021  14.1499777  35.5427094  75.4598770  15.5145922  35.7249184
  56.3306198  39.8444672  59.0587082  56.2647209  38.9229431  58.8083382
  55.4368286  40.0931473  59.2943497  17.6136246  51.1381302  67.4680862
  17.3096790  50.6034851  66.7346039  16.8766575  51.1480103  68.0788345
  59.2835083  66.6444473  33.8480453  59.4517784  66.7910004  34.7788734
  59.3499641  65.6957932  33.7390938  17.2964287   6.6251082  75.5136337
  18.1590824   6.5148530  75.9135132  17.3891792   7.3950181  74.9524994
  39.8542747  45.4897575  37.8064880  39.1156464  45.7943382  38.3336372
  40.5700912  45.3874397  38.4336815  21.6159058  44.0689850  63.6395874
  21.7740593  44.0703583  62.6955452  21.1854935  44.9064865  63.8115501
   2.1467535  52.6492043  25.8248940   1.9749694  52.0921745  25.0656567
   1.4152050  53.2663383  25.8396034  23.7315769  16.0902004  77.4873886
  22.9135056  16.4141769  77.8642578  23.4779243  15.3034286  77.0048065
  85.0492020   3.0168235  63.8363571  85.6370468   3.7634151  63.9515381
  85.4060287   2.5448763  63.0839119  46.3310852   3.6383648  33.5407562
  46.0322876   3.4699543  34.4343987  46.1045532   2.8431044  33.0585976
  35.8167992  52.5918961  56.2851944  35.2363205  52.8366776  57.0058594
  36.5392914  52.1267929  56.7069969  38.7451973  17.3753262  15.9427490
  38.3424072  16.8999672  15.2160940  38.2072906  17.1521511  16.7024078
  50.3733215  69.1332321  46.6522827  50.0155106  68.5963440  47.3593559
  51.2524338  68.7834167  46.5072975  59.8885765  66.0688400  60.6070976
  59.3350945  65.8703766  59.8517799  60.4245110  65.2844086  60.7240143
  70.9771957  59.9699020  61.8033791  71.8733521  60.0888596  61.4887657
  70.4420624  59.9751091  61.0097542   8.2605619  32.3119583  11.5041523
   8.9818916  32.8183937  11.1307364   8.5184307  31.3988419  11.3778419
  58.7292557  54.9224815  11.8549299  58.1502419  54.1716652  11.7236061
  58.3987999  55.3439064  12.6482973  13.2137556  33.8518448  59.2972870
  13.5602274  33.4633408  58.4940071  13.9551172  33.8511925  59.9027710
  58.7506371  49.7078629   9.8518190  59.6225357  50.0684700   9.6906033
  58.3071518  49.7660446   9.0055523  17.9303055  41.2124863  45.7237511
  17.1753807  40.8929901  46.2179604  17.5688000  41.8769379  45.1371994
  19.1168461   9.7566442  79.0979233  19.6550961   9.5978003  79.8733521
  19.6680107  10.2950506  78.5299759  16.0126381  54.2137985  38.4608765
  15.2405634  54.7226868  38.2135582  16.2112865  53.6880875  37.6860237
  80.3624802  54.9084282  66.4692001  81.0793228  55.5322037  66.3539810
  79.6235428  55.4435616  66.7587433  84.0542603  54.6321335  15.6005793
  84.9810715  54.6346664  15.3613148  83.5975342  54.8644142  14.7920723
  58.3310280  12.4013720  67.0879669  58.4745140  11.5495882  66.6755295
  59.1148834  12.5459347  67.6179733  67.8890686  29.8973160  69.4483185
  67.6560211  30.7596207  69.1042938  67.1869125  29.3211632  69.1462402
  79.4524460  30.4960213  30.9354935  78.9465027  30.4907722  31.7480354
  78.9445572  31.0477962  30.3406601  82.3506165  56.5781937  73.3483047
  81.4556808  56.8797379  73.1921387  82.3906326  56.4256363  74.2924194
   2.2739632  35.2076759   5.9444036   1.9855827  36.0386963   5.5669484
   1.4648689  34.7177773   6.0913658  31.4664459   0.5595220  29.1466579
  31.3703041   0.1313064  29.9973164  31.9877949   1.3411729  29.3295498
  19.1165676  63.8790207  15.7658978  19.9582653  64.0451813  16.1903572
  19.0172329  62.9274406  15.7952642  21.5670166  20.1241360  11.0854788
  22.3842716  19.6333084  11.1715689  20.9770336  19.7205296  11.7220736
  60.5551491  14.0970812   1.3002435  60.5281105  14.2260456   0.3521566
  60.9778023  13.2458420   1.4142123  83.4418411  41.3550110  32.4270020
  83.1282425  42.2278214  32.1901627  83.3725510  41.3263855  33.3812637
  37.8629570  52.8552895  54.3294868  37.7027550  51.9116058  54.3344269
  37.4371948  53.1746750  55.1250725   6.2874880  34.2617569  24.6648006
   5.5508819  34.2861404  24.0540237   6.5174069  35.1811104  24.7995739
  77.9349976  30.7283707  44.4316368  77.3157120  31.4284935  44.6378975
  78.7868652  31.0770531  44.6942673  58.1817017   6.0463247  72.5067825
  57.9042740   6.7143927  71.8799286  57.5316658   5.3493977  72.4174576
   2.5893025   5.0707030  50.4896927   1.7258015   4.7938557  50.1831741
   3.0694451   4.2534618  50.6231499  11.0663967  60.9899483  40.6278381
  11.4022131  61.5352631  39.9164391  10.1499920  60.8350906  40.3988152
  67.6372223  70.5100861   5.0843978  67.7919083  69.5897675   5.2972937
  66.8073959  70.5093536   4.6073079  54.7414780   2.8126800  21.5628147
  54.0123138   2.5425358  22.1210022  54.3724251   2.8330567  20.6798553
  45.4097595   0.1211593  29.9454174  46.0967216  -0.5330428  30.0732231
  45.7582893   0.7061655  29.2727165  67.1816635  26.5915470  31.6032181
  66.2424088  26.7157364  31.7396355  67.2522583  25.7292843  31.1936436
  49.6566887   9.6079836  53.2741737  49.6379471  10.5505667  53.4397583
  50.4478760   9.3025284  53.7179680  74.8443832  68.4882660  63.4409065
  75.3398514  67.6756897  63.5432243  75.4365158  69.0717010  62.9663429
  43.6983910  37.5095863  70.5447693  43.2744255  36.9763527  71.2171860
  43.2717628  38.3637962  70.6122208  76.9910812  51.1459503  50.4003639
  77.3972702  50.4586868  50.9284821  77.7286072  51.6307144  50.0298424
   7.3639193  71.0472946  24.5390186   6.5333085  71.3611145  24.8965626
   8.0207176  71.3303070  25.1752205  31.5983486  48.1818314  55.8732986
  31.9968319  47.3766632  55.5429230  31.8296604  48.8470345  55.2250481
  71.0025101  51.9460754   7.2134833  71.0287170  51.6904716   8.1355515
  71.3108673  52.8522263   7.2072754  64.9617844  21.8440914  71.7771606
  64.7915878  21.1397133  72.4025497  65.5208588  22.4576759  72.2537994
   4.7371516  30.0809460  23.0558414   5.0042934  30.9821720  22.8751259
   4.0808840  30.1599159  23.7481632  44.5712509   8.6815605  63.5757637
  44.2933846   9.5867004  63.7162819  44.9038963   8.6697130  62.6783028
  15.2141171  26.0214920  73.7666168  15.8709326  25.4695911  74.1911545
  14.3808727  25.7298374  74.1365814  69.3959427  45.0466957  14.2876711
  70.0686111  44.9535294  13.6130857  69.8645935  44.9190598  15.1124763
  84.3818741  65.7418060  36.5260010  85.0321045  66.2706375  36.9883461
  84.8836899  65.0165558  36.1539345  34.8505402  64.6345291  44.6862602
  34.7162285  64.5332870  43.7439537  34.4113274  63.8773270  45.0735130
  85.6297379  18.3374310  53.7824783  85.6168365  18.2993164  52.8261223
  86.3553085  17.7665348  54.0351677  76.2528076  53.0443344  14.4239254
  75.9953003  52.1577530  14.6766939  75.4288864  53.5295143  14.3793268
  67.1008987  44.6604233  20.2520466  67.5113907  43.9283409  19.7918434
  66.1614685  44.4905586  20.1824799   1.3340950  39.0976028  38.4984398
   2.2138321  39.3334312  38.7928543   0.7564652  39.7077560  38.9570122
  42.5688934   0.5796039  57.2544479  41.8128738   1.1656816  57.2200394
  42.2703552  -0.1661101  57.7750435  26.6593990  39.1941376   7.6571202
  26.9590378  39.9941673   8.0888577  25.7803783  39.0481224   8.0067425
  10.4932404   0.8330177  48.6629868  10.8807650  -0.0421860  48.6716385
  11.0312748   1.3392187  49.2716827   3.0828006  55.2931824  56.6303902
   2.6751657  54.5798607  56.1392250   2.6036196  56.0758286  56.3582077
  19.1762257  22.4580574   4.0079508  19.7808228  22.1541767   4.6849670
  19.0245285  21.6884708   3.4593563  44.0799522  68.0300598  10.7583723
  43.8548927  68.7388535  11.3610210  44.8286934  68.3642731  10.2644892
  48.5297546  26.3067493  12.3478813  47.6965485  26.6109104  11.9880352
  48.3676567  26.2203617  13.2872925  37.5837364  19.4299564  63.5223274
  37.3587837  18.5704098  63.8784294  37.4003601  19.3566418  62.5857201
  38.8930321  39.6116028  63.0354309  38.9050636  40.5540237  62.8682899
  39.6850433  39.2828026  62.6101799  81.3234253  31.9977837  55.0976257
  82.2194214  31.7187996  55.2862968  81.3951797  32.5018120  54.2870483
  69.7036362  28.6576977  49.8332939  69.5641174  29.4776993  49.3596230
  70.1938782  28.9129562  50.6147881  71.5992355  35.0319824  38.4484444
  72.4451828  34.9894638  38.0025864  70.9959946  35.3688087  37.7859650
  73.3797226   5.8355055  79.7570648  72.5378799   5.4128280  79.9269943
  73.1841354   6.7724280  79.7694244  83.0849152  48.8346252  40.0823517
  82.4903412  48.3949966  40.6901665  83.9596329  48.5846710  40.3800392
  85.7517776   2.1912670  12.2751007  85.3513107   2.4927492  13.0905571
  85.0932465   2.3710394  11.6040936  61.1347504  16.8631535  50.4980659
  61.9566917  17.2456646  50.8051910  60.9127159  16.2089462  51.1605949
  77.3136444  57.0336647  40.2647362  76.6961899  57.7647209  40.2413902
  77.1882172  56.5873833  39.4272804  49.5173340  52.7055054  31.9204693
  48.8211403  52.3800240  31.3498497  49.5909348  52.0449066  32.6092567
  44.8165817  30.7876797  55.0909691  45.3560371  30.8921585  54.3071938
  44.4701157  29.8977222  55.0263824  66.8266830  52.0580521   1.5026060
  67.5795135  52.5926094   1.2501581  67.1018982  51.6225739   2.3093586
  38.4472656  57.1133347  80.4860840  37.9386749  56.4477234  80.0229111
  37.8003578  57.5903778  81.0058594  50.9838448  36.3205414  21.8572483
  51.1592674  35.7184563  21.1340942  50.3189659  36.9182625  21.5153370
  11.9892216  40.3084641  14.2791529  11.7032423  41.1819992  14.5463276
  11.7563190  39.7442513  15.0164795   1.3815969   7.1988893  86.2561264
   0.5799186   7.3514605  86.7563934   1.7388434   6.3877988  86.6177063
  17.0233498  32.5333824  15.1351452  16.8882008  32.1541138  14.2667427
  16.3929672  33.2520790  15.1833696  80.2794800  30.8336697  34.5954628
  79.4671097  30.3835640  34.3637276  80.9664917  30.3245335  34.1653175
  82.9671402  16.3074551  23.4621124  83.2805786  15.4378977  23.2133942
  82.4593048  16.1598492  24.2599545  65.1771088  31.2835732  41.6383514
  65.6876526  30.5048027  41.8599205  65.3487930  31.8944168  42.3550301
  12.3007088  58.6896133  66.3988800  12.0825863  57.8006744  66.6789474
  12.9790773  58.9740334  67.0113754  40.5233650  71.8605576  52.5503616
  40.5219688  71.4974060  53.4359970  41.2326279  71.3987427  52.1032524
  27.0820942   8.7564707  84.8998642  26.6587296   8.3248940  85.6419754
  27.5728359   8.0589600  84.4652557  26.8406773  60.3523293   7.2214694
  27.4456997  60.4309578   6.4839087  26.2068729  59.6917191   6.9419708
  79.4143219  52.0898857  85.8466492  79.8346024  51.2765923  86.1261978
  80.0880203  52.5468369  85.3430939   0.6955017   7.7562408  10.2606993
   0.4215235   7.2019196  10.9913807   1.5912355   8.0140972  10.4784222
   4.2893853   4.0579534   4.2010198   4.6645508   4.9382586   4.2243710
   3.9749031   3.9078965   5.0925441  76.6757736  31.1335716  57.8064117
  77.5652008  31.3007812  58.1181564  76.5587234  30.1893749  57.9113922
  66.2443237  54.5813217  13.2755442  66.6368256  55.3156013  12.8033047
  66.9911880  54.0679550  13.5835552  16.5033169   2.8089979  51.2916451
  16.9572697   2.1996436  51.8737526  15.9829340   3.3579340  51.8782463
  31.2518635  69.0368881  73.3508072  31.3206539  68.9897003  74.3043594
  32.1140785  69.3368835  73.0630188  11.5989208  53.0197792  36.2773933
  12.3083992  53.6054306  36.5417480  11.8745384  52.6784401  35.4266548
  16.7279568  63.9991837  46.4126549  17.2681293  63.3514214  45.9600525
  15.8528690  63.8816452  46.0430069  63.8864784  37.2500610  78.7452469
  64.2165070  36.4491768  78.3379364  63.1876106  37.5451889  78.1615372
  39.9802818  39.8649712  32.5645943  39.1148911  39.4913940  32.7312355
  40.2252960  40.2799950  33.3916130  12.0554762  14.3893394  80.8071747
  12.8574905  13.8673840  80.7833328  11.9481010  14.7045765  79.9097748
  28.8735027  29.8890247   8.7535381  28.6089134  29.5373192   9.6035547
  29.7848568  30.1542759   8.8772573  34.0965843   6.2459950  11.4178629
  34.1473389   5.3428998  11.7310324  33.9178047   6.1649323  10.4810076
  48.7604942  11.0789137  12.2440434  49.3608627  11.0209579  11.5007868
  48.0071259  11.5631952  11.9061995  28.2116356  38.7041893  21.3591461
  27.2981224  38.8401718  21.6106071  28.2576847  39.0055084  20.4517765
  35.8545914  47.0575218  82.3480453  35.8989677  46.4613457  81.6004944
  36.6474571  46.8707466  82.8507538  54.1063499   5.7812958  70.2849960
  53.4053879   6.0652862  69.6982880  54.9084282   6.1023302  69.8728790
  63.4869804  37.0789948  53.8401451  63.3227196  36.6805267  52.9854698
  64.0174179  36.4335594  54.3073578  79.3494415  47.9716988  76.8145065
  78.5006714  48.1938057  76.4317551  79.5304031  48.6852875  77.4262924
  75.1991119  48.0316200   6.9083138  75.8828430  47.7513008   6.2999010
  75.6746597  48.3128738   7.6899662  69.8442688  33.3165207  48.8767624
  69.7346802  33.9921379  49.5459137  70.5747986  33.6260567  48.3412704
  70.9621201  38.4227409  43.5583115  71.8835907  38.1641808  43.5418282
  70.9141006  39.1758499  42.9694557  77.9306259  40.6295204  14.2556381
  78.6951752  40.7075806  13.6850214  78.1006775  39.8456802  14.7780418
  58.1151810  35.3556938  64.2141495  57.3120117  35.7246513  63.8466873
  58.4700012  36.0542946  64.7639542  74.7217941  11.4567184  11.3531637
  74.1444702  12.2045574  11.1993370  75.5329514  11.8440371  11.6821566
  86.0578003  36.4685974  71.5851593  85.6456299  35.6074028  71.5165863
  86.8190918  36.4164696  71.0072708  49.5298462  48.3395615  10.2574940
  50.1154137  47.6190948  10.4904404  50.0949249  48.9749107   9.8178930
  73.4798813  14.0435715  53.9175873  72.8179626  13.3692055  53.7648582
  73.3017883  14.7088900  53.2528572   6.7103343  59.1652756  84.2166672
   6.9591618  58.2417679  84.1786423   5.7857370  59.1745949  83.9691467
  21.5982933  45.8316765   3.7693892  22.1710491  45.0861931   3.9494967
  22.1025505  46.5947990   4.0515313  43.2416649  15.5341406  13.7954559
  44.0683899  15.6538601  13.3281021  43.3967171  14.7827339  14.3678017
  59.2528076   6.2518229  47.9651527  59.4801140   5.8286219  48.7930794
  58.4258919   6.6995015  48.1441078  72.5239029  18.8951492   7.8192291
  71.6082916  18.8033504   8.0827599  73.0125580  18.3947964   8.4727583
  55.4795227  18.3707256  71.8369293  56.0477715  17.6971207  71.4633255
  54.5951233  18.1043224  71.5857315  41.2242813  32.6367493   0.1113104
  41.6414337  31.7982121   0.3089730  40.3600273  32.5761414   0.5182769
  66.7502594  34.1184845  69.0796432  66.9728012  33.2033005  68.9089127
  66.1980896  34.3726616  68.3402328  28.5552654  46.9083862  59.0955849
  28.6979446  47.2552872  59.9762306  28.0634747  46.0988998  59.2337990
  38.2744370  54.3989563  48.4008980  38.7409744  54.7819824  49.1437721
  38.8106117  54.6227150  47.6401863  56.0835762  52.0256767  74.6075745
  55.2548981  51.5610619  74.4907150  56.4260521  51.6990166  75.4395828
  14.9575768  31.6264000  83.9174347  14.6482897  32.5227280  84.0484772
  14.2361660  31.0769024  84.2237854  21.2920837  69.0829086  58.6256180
  21.7959995  68.4016571  59.0708160  21.9535580  69.6461563  58.2238388
  77.2785492   9.9505930  82.4407501  77.4172211  10.0619507  81.5002136
  76.6926346  10.6676931  82.6830215  79.7370453  15.2427254  31.6100311
  80.6506424  15.0450048  31.8161354  79.6553574  16.1841068  31.7628708
  86.7071075  66.2686234  46.5692368  86.7630920  65.4742355  47.1003113
  86.8828049  66.9807587  47.1842384  54.0544128  11.5413532  26.1733608
  53.6718750  11.9400063  25.3917160  54.4296799  12.2765732  26.6579857
  64.5910568  20.0830784  16.5775261  63.6350479  20.0716228  16.6239204
  64.8388596  19.1606655  16.5144291  55.2686996  46.9543343  58.8819923
  54.9805336  46.5043373  59.6761551  54.4570961  47.1959190  58.4357109
  24.1314793   1.1977867  25.9563866  24.4710522   1.8957205  26.5165730
  23.5848560   0.6688528  26.5374737  76.9810181  50.3921738  46.2669296
  76.9317703  50.4218292  45.3114586  76.9114761  51.3072968  46.5388603
  83.4141846  32.7146835  85.5181046  83.4605713  33.5268059  85.0135956
  82.9982834  32.9680595  86.3421555  65.7264175  39.5147057  40.8823891
  66.6281128  39.6275368  41.1831322  65.3062515  39.0013275  41.5724182
  44.5100670  59.2443810  13.3210936  45.3435593  59.4855347  13.7252865
  44.2664528  58.4223480  13.7467003  50.5122719  43.0518646  58.3523483
  49.7239952  43.3485146  57.8975372  51.1173439  43.7909203  58.2897682
   9.2975969  12.7135000  25.5444336   9.2398872  13.6562119  25.3888874
   8.3872700  12.4186783  25.5692749  31.2286415  56.9431648  83.7802811
  30.9948730  57.6826019  83.2192001  30.5651436  56.9468689  84.4701996
  69.2117996  34.3418579  58.3178711  70.0616150  34.4054489  58.7537537
  68.6057129  34.7894669  58.9082489  70.7586136  48.4757614  11.4101810
  70.9812851  49.1205139  12.0817041  71.2910309  47.7104301  11.6270514
   8.1952524  66.7137451  51.6170349   8.1876726  66.1865463  50.8181343
   7.4270835  66.4186859  52.1059990  59.0955391   5.4755564  87.2836227
  59.9197388   5.9304628  87.1104431  58.4866486   5.8276043  86.6343536
  20.0990524  13.3022671   5.0590935  21.0514736  13.2266455   5.0007267
  19.7844162  13.0386467   4.1943741  77.3570099  48.3501244  55.7931557
  77.2397842  47.4938011  55.3818130  77.2632980  48.1804085  56.7305145
  74.9414215  44.5463982  40.4632683  74.3057251  44.9184418  41.0745773
  74.5257339  44.6299591  39.6050987  50.1408501  28.0872765  83.0851135
  50.5043068  28.9496174  82.8838730  49.7566643  27.7908001  82.2600479
  57.8678970  11.4583092  84.9071732  57.5676956  11.1178656  85.7499084
  57.1628532  12.0375423  84.6179733   2.7264600   4.7844195  26.4606018
   3.5707164   4.8461299  26.9074287   2.7489185   5.4846530  25.8083744
  14.6775818  39.6874733   5.7153921  15.1058655  40.3448830   6.2636738
  14.3119879  40.1862450   4.9847770  38.9799004   5.6876178  64.8556061
  39.7892570   5.6199083  64.3490601  38.4375420   4.9656096  64.5381393
  53.6479263  33.4145813  83.1670227  53.9638824  33.7809334  82.3410721
  54.3861237  32.9048500  83.5008926   2.2253091  66.6144562  75.4456482
   2.6080687  67.0547867  76.2044907   2.6613836  65.7628174  75.4177551
  34.4548073  54.0346031  39.6997871  35.0934029  53.3662529  39.9482498
  34.8467331  54.4708672  38.9432831  24.8309364  36.4537239  80.6174164
  25.2060947  37.1713524  80.1070175  25.5563583  36.1383972  81.1564560
  57.5534363  49.2854767  18.2217522  58.1667786  48.7998657  18.7733154
  56.9346085  49.6765022  18.8385048  31.6599159  24.8449154   4.1278648
  31.5548210  24.9704800   3.1847739  30.8833847  25.2522068   4.5117211
  62.0523109  29.4137516  10.7050266  62.2396507  28.8172264   9.9802570
  62.4932899  30.2286091  10.4646616  37.7922897  69.0660248  55.2557220
  37.4447708  69.9518204  55.1516190  37.0157318  68.5104446  55.3229446
  77.2252274  13.7341146   2.3107839  76.7077866  12.9485245   2.4877987
  77.9857025  13.4154949   1.8245820   4.8511419  41.2746429  20.2976704
   5.6276584  41.2423096  20.8564262   5.1376858  41.7478752  19.5165329
   6.9562869  68.8927612  46.1194344   6.2078881  68.6116180  46.6458244
   7.1637645  68.1342087  45.5737419   5.0988760  37.3334122  50.6974831
   5.2239122  38.1928673  50.2950706   5.1787176  36.7150040  49.9712410
  11.8779449  37.5543938  77.8931351  12.1339254  38.4627113  78.0533295
  11.0844431  37.4336357  78.4146729  37.1806831   3.6083891  35.6826630
  37.5612297   3.1035719  36.4013939  36.2525902   3.6803200  35.9056053
  30.8171177  54.1627197  29.6634064  29.8932858  54.3601151  29.8176842
  31.2504959  54.3856506  30.4872494  77.6692810  41.1895409  42.8587799
  76.7197037  41.3089561  42.8422775  77.8492737  40.8204498  43.7234192
   4.5806875  28.1741333  21.0155392   4.7112336  28.9607697  21.5450592
   3.6307542  28.0601521  20.9860992  80.8281250  20.5398235  29.5416260
  81.3402634  20.4626846  28.7366428  81.3080597  20.0147419  30.1820812
  65.5220108  11.4745941   7.0074801  65.8354340  10.7941542   7.6033001
  66.3138275  11.8038778   6.5822310  12.7904606   3.0985389  21.9956818
  11.9421234   2.7016819  21.7980480  12.6544647   4.0358653  21.8572769
  46.5459824  23.0937805  -0.1278344  46.9049568  23.9363861  -0.4060178
  46.8563957  22.9862728   0.7712303  54.8104439  13.0178862  76.9306946
  55.5204811  13.4699039  77.3864975  54.1374321  13.6880283  76.8115387
  84.1572723  22.7197971  29.4804516  83.8321152  23.6028614  29.3052235
  84.2584991  22.3255424  28.6141109  85.7022552  61.4676781  57.6160049
  85.0867004  61.6607666  58.3231392  86.1165543  60.6452065  57.8770180
  73.3235168   6.7320147  19.6466064  72.7872009   6.4444695  18.9077492
  73.4024277   5.9561214  20.2015800   3.8281186  19.6560478  86.7579880
   4.3209572  19.2861557  87.4904709   4.4940505  20.0569534  86.1993866
  37.5178108  32.8207817  27.1831226  36.6153679  33.1245995  27.0855331
  38.0441322  33.4880943  26.7427692   7.9963474  40.0294952  75.4196243
   7.3481832  40.2374115  76.0925903   7.7930450  39.1306458  75.1608429
   9.1998539  17.0561504  65.8260117   8.9110889  16.9495544  64.9196548
   9.8417149  16.3581486  65.9565506  40.3681564  70.9710007   3.9522676
  40.0323143  71.6483002   4.5393872  39.6314507  70.7664185   3.3763866
  69.1270142  14.0759020  65.7378006  69.3857346  13.7800455  66.6105881
  68.2896881  13.6412344  65.5759888  62.2274971  69.0626755  30.6883278
  62.5524406  69.9630203  30.6933079  61.8723564  68.9313507  31.5674534
  43.4072075  60.9889145  42.7834663  42.7142830  61.6040497  42.5432549
  43.1933708  60.7247734  43.6783028  61.5818825   8.3475370  85.5061646
  61.8759003   7.5280418  85.9039307  61.2390137   8.8597383  86.2385101
  30.7942314  37.0870247  85.0051422  30.7407818  36.8348808  84.0832977
  30.1579494  37.7962379  85.0967484  63.9210243  66.7104034  72.3139572
  64.6324997  66.5445862  71.6954575  63.1231079  66.5590668  71.8073425
  59.1089706  36.8794937  58.5213470  59.0277023  37.6174583  57.9171638
  59.1602249  36.1101227  57.9541817  35.6884003  19.7327824  74.4596024
  36.5193291  19.2964954  74.2713394  35.4444962  20.1502228  73.6334763
  68.4482117  56.1397896  55.9843559  68.8525238  56.6248627  56.7037086
  68.0317307  56.8127556  55.4459381  59.7891846  12.3228064   5.9302049
  60.1212692  11.5364017   6.3632407  58.8996620  12.0914888   5.6628547
  49.6785622  33.1248665  57.0809898  50.4542236  32.5640259  57.0871887
  49.2593193  32.9445152  56.2395973   6.4124651  67.3811264  60.3436279
   6.9062099  66.6670837  59.9404106   5.8681216  66.9527512  61.0042458
  82.7241898  22.8299351  31.9532242  83.1125946  23.6931190  32.0956612
  83.1694412  22.4922256  31.1760921  80.0665741  28.7748451  61.9789886
  80.4587784  28.2275829  61.2986183  80.5933075  28.6013279  62.7591667
  10.7538271  19.4666386   6.3577065  10.8731041  19.3523045   7.3005385
  11.4012394  18.8831863   5.9618878  83.0532379  66.0482254  78.1688309
  83.7675171  66.5115738  77.7313995  82.5886536  66.7290649  78.6555023
  17.2180138   3.3425112  84.0776367  17.1192684   2.8793857  83.2457733
  17.2037315   2.6513665  84.7397156  12.9646406  49.4987869  34.9243050
  12.5668287  48.6282997  34.9395332  13.9051485  49.3312912  34.8641167
  85.0890350  27.8876762   1.5968418  84.2747040  27.5559616   1.9750859
  84.9310150  28.8233280   1.4710729  66.4774551  61.1213531  61.3217850
  65.7609253  61.1219749  61.9564667  67.2595444  61.3018036  61.8433266
  56.9720573  52.5821915  14.1933270  56.7370605  53.1756401  13.4800034
  56.4814072  51.7810478  14.0098572  58.9466972  63.0717621  48.1579666
  58.1179695  63.0873260  48.6367188  59.3433609  63.9240952  48.3380165
  72.9218216  59.7676277  33.3076096  72.6501923  59.1675148  32.6131172
  72.1037216  60.0357246  33.7260246   1.3684113  70.4329910   2.3719151
   1.8224884  69.6560059   2.6980073   0.6967984  70.6117859   3.0300939
  63.9672050  48.7358513  61.8467216  63.6844215  47.9291992  61.4159317
  63.1567154  49.1359291  62.1617966  78.2718048  19.0808296  10.0624752
  77.3235168  18.9673595  10.1265364  78.5239105  19.4677105  10.9009237
  64.4654465   6.0710206   5.4455376  64.0546341   6.7722683   5.9512219
  64.0131760   5.2758837   5.7273936  34.4712257  25.6513958   3.2654762
  34.4862785  26.4355736   2.7167773  33.5449944  25.5174294   3.4664292
  20.9806061   2.1794181  73.8228607  20.1289120   2.0940509  73.3944244
  21.6157742   2.0996139  73.1112289  52.6262856  44.1949158  52.5547447
  52.5239334  43.5637856  53.2670860  51.8003006  44.1486626  52.0732422
  43.8515625  31.1879330  14.1269922  42.9316711  31.3993626  13.9678326
  43.9673691  31.3161793  15.0684662   2.5083447  66.2702942  83.6442490
   2.7447405  66.1219940  82.7286301   1.5664805  66.1031189  83.6785431
   6.2023501  63.4233818  75.4202881   6.6364484  63.2083893  74.5947113
   6.9176736  63.5200882  76.0489273  67.9070129  58.7601585  54.3371010
  67.7920609  59.5279541  53.7771797  67.0158157  58.4851532  54.5524178
   3.7934155  35.6445198  85.6198730   3.6565859  36.2121773  86.3783417
   4.4964056  35.0525513  85.8874664  75.8808060  16.1879139  62.0934181
  76.3801422  15.9507761  62.8748665  75.1744537  15.5430346  62.0556984
  17.1063385  29.0218353  21.8254662  16.6932583  29.7071075  22.3508205
  17.0749016  29.3556614  20.9289150  20.9656239  38.8109436  73.1137848
  21.5170784  38.8129501  73.8961639  20.1148376  39.1253700  73.4196167
  74.3187256  29.7048988  15.6353073  74.6530991  28.9911652  16.1784573
  74.1965103  29.3113785  14.7713404   9.7468052  46.0532608  88.1093979
   9.1935816  46.3379402  87.3819809   9.4031200  45.1926651  88.3491592
  26.9315815  70.2872543  68.7554626  27.0593910  70.9919510  69.3905258
  27.1923046  69.4935684  69.2227020  82.8923340  25.6691475  86.9354401
  82.7869263  25.1880608  87.7562180  83.7355881  25.3743095  86.5915985
  52.7737045   5.6910043  20.2163963  51.9655418   6.1689200  20.0301056
  52.5041924   4.7737107  20.2629814  11.3448582  67.7705078  80.4094849
  10.6632824  67.3654099  80.9457550  12.1368513  67.7112045  80.9437714
   9.5740347  14.3018999  78.6552811  10.2540112  13.7067204  78.3396454
   9.2026749  13.8583870  79.4179153  40.2951317  24.3897514  14.7678528
  39.5531693  24.5481014  14.1842022  41.0368042  24.8090477  14.3315687
  42.0395699  15.2639141  64.0476837  41.1074982  15.4806709  64.0255432
  42.2187881  14.8888035  63.1854782  44.2865677  39.7190514  74.3267288
  45.0876350  40.1802902  74.5752869  43.6104164  40.0912209  74.8928909
  36.1240807  28.1572838  72.9861374  36.0675774  28.9818001  73.4690628
  35.2423363  28.0221119  72.6390228  57.5364304  51.1916428   0.2789207
  58.0626221  50.8065262  -0.4218207  56.6825371  50.7666435   0.1984676
  41.6659775  41.8058205  68.1902542  41.3726006  42.1932030  69.0149307
  42.3366432  42.4079704  67.8679886  67.6642609  68.0487823  43.1650238
  68.4010544  68.5198593  42.7758636  67.2663116  68.6798935  43.7646637
  67.6621933  12.8644934  35.6400185  67.6875992  13.8210821  35.6629410
  66.9670868  12.6285667  36.2543449  67.4443970  34.7511597  11.0816584
  67.2833557  35.5123100  11.6392870  68.3978729  34.6710091  11.0552874
  86.9474106  16.7025280  56.6250801  86.5611343  16.2552910  57.3780746
  86.6819305  16.1755238  55.8714104  55.2703018   5.5227327  23.7726479
  55.1756477   6.2770882  23.1910820  54.3895226   5.1523361  23.8297710
  23.1931458  47.8740463  37.0314178  22.6251297  48.5291748  37.4368744
  23.4772778  48.2779350  36.2114334  56.9563637  32.8492966  56.0818405
  56.1371231  32.5217590  56.4530487  57.5698814  32.1205177  56.1752014
  41.2387428  51.0510902  11.2880077  40.7537193  51.5119514  11.9725447
  41.7650757  51.7313919  10.8680134  51.1310120  27.8147469  29.7059746
  50.9270134  28.1619968  30.5743237  52.0812721  27.9015713  29.6304798
  51.1466255  49.5576706  40.6580811  51.8451080  49.9581795  41.1757202
  50.7994423  50.2753716  40.1283646  31.0690174  52.8817787  64.9303055
  31.5020294  53.6705971  65.2566376  30.4251900  53.2052498  64.3001633
  82.7927094  45.6151085  88.2330093  83.0079575  44.6840134  88.1785660
  83.5198441  46.0551720  87.7927170  50.0325356   6.7723637  19.5248604
  49.3905678   7.0410872  20.1820488  50.4698334   7.5850682  19.2708645
  40.5463295  70.8236237   9.2900286  40.9857216  71.0333710  10.1141481
  39.7208023  70.4181290   9.5551853   0.7904837  59.0033455  24.0865765
   0.3986342  59.7720146  24.5011005   1.0789485  59.3147926  23.2286606
  21.3241272  47.3605843  81.7039566  20.7778854  47.6200409  80.9619827
  21.7581329  46.5585823  81.4129868  67.5950470  67.8263550  53.1543655
  67.0264740  68.5328293  52.8480148  67.6578217  67.2291336  52.4089699
   5.4140086  21.4868221  14.8046885   5.1808624  22.4074574  14.6850910
   5.3002520  21.3307800  15.7422075  54.4636269  27.0576439  57.2171745
  54.6223259  27.7663803  56.5936852  54.3163223  26.2860126  56.6702576
  66.7999725   0.9898852  34.3416176  67.4424210   1.1305050  35.0371208
  66.3422852   1.8271147  34.2654877  63.2012558  10.2422829  12.1738882
  63.6189537   9.9396734  12.9802294  62.6788330  10.9976187  12.4436569
  14.0749750   3.1681886  88.3455658  13.3014450   3.6741128  88.5944061
  13.8221951   2.7276027  87.5342560  82.4710464  10.4865875   6.6053100
  81.6712875  10.0577450   6.9097886  82.6345062  10.1042185   5.7431574
  16.5629406  38.7198143  34.5538177  16.0516834  39.1206436  33.8508377
  15.9279022  38.1977119  35.0440903  77.2501678   4.9611139  53.5535622
  78.1048889   4.5676818  53.3777809  77.4075775   5.5594873  54.2839088
  55.6185379  16.8322105  21.3198242  55.6458015  17.1026936  22.2376080
  55.3031425  15.9288321  21.3456326  19.7058582  41.1553459  68.4340973
  19.9695244  40.5787277  69.1511917  20.4430790  41.7563248  68.3265686
  41.4897385  56.4260788  65.9305496  42.3984337  56.4122047  65.6300354
  41.5534515  56.5022087  66.8825912  79.9578552   9.7735281  54.3269730
  79.8098450  10.1757870  55.1828423  80.0768051  10.5136957  53.7317963
  69.5100098  39.9382133  33.4615211  70.2476501  39.5643959  32.9794655
  69.0328598  40.4511261  32.8092308  10.9236431  39.7916107  20.0976810
  11.3188457  40.0411644  20.9330082  11.6671915  39.5645714  19.5392723
  25.7938480  52.9201851  65.6706924  25.9566498  53.0047607  66.6101456
  25.3483257  53.7326813  65.4307175  70.0316391  17.8297768  30.4000092
  70.8394623  18.3157711  30.5657310  70.2336044  16.9322186  30.6642590
  16.4084949   4.9745250   0.8231373  15.7610178   4.9796023   0.1181705
  15.9234543   4.6739793   1.5916677  55.9875755  42.2261505  30.5377064
  56.3105164  42.4165154  31.4184456  56.7764130  42.1847496  29.9971066
  45.7762413  29.3340168  36.9219475  45.0149689  29.3249702  37.5021324
  45.4964867  28.8388901  36.1520042  51.8013306  44.1218109  42.9736671
  52.3592186  44.8667984  43.1972427  51.3480988  44.3930473  42.1753922
  58.1139374  57.5998535  78.2636719  58.2786674  58.0566521  79.0885544
  58.3494415  58.2347298  77.5871353  48.6143188  46.5118065  36.2981606
  49.4957428  46.2885704  35.9990044  48.6737099  47.4327469  36.5522690
  43.3167419  70.6633682  35.3716469  43.1159096  71.1238022  34.5568466
  43.6985703  69.8322830  35.0892677  28.2112103  53.5478096  24.2554169
  29.0830956  53.9263763  24.3682594  28.2520256  52.7104874  24.7174320
  51.0490227   1.9583302  80.2182083  50.4358330   2.2937140  80.8722305
  50.9275131   1.0091355  80.2404938  43.2310143  27.9472713  64.8517532
  43.3516617  28.2388973  63.9480743  44.1190758  27.7951202  65.1749039
  56.9699402   6.4307718  29.7866535  56.3839111   6.3035498  29.0405865
  57.7845688   6.0001287  29.5274963   1.6412191   4.5648546  10.3563976
   1.1461275   5.0767064  10.9960260   2.1028686   3.9096222  10.8796406
  16.8826599  58.3957329  87.4011307  16.9958649  58.0324669  86.5228043
  15.9402027  58.3464584  87.5610657  34.4352074  62.7003174  39.4494019
  34.4782867  63.2798920  38.6888313  34.3115997  61.8267479  39.0781479
  73.6161194   6.5500126  60.2812958  72.9911270   6.5300164  61.0060158
  73.4097137   7.3567100  59.8092079  55.0316200  25.4173622  64.6265259
  54.8265610  25.6445007  63.7195549  55.9881592  25.4121456  64.6617279
  55.5535278  22.5939522  66.8890686  56.4123917  22.9985485  66.7670441
  55.6488228  22.0636349  67.6802216   7.3965216  63.4377174  49.3657303
   6.4507408  63.5506554  49.4604683   7.6070771  63.8667374  48.5363693
  70.5059891  18.7281895  38.8717690  70.1515656  18.9321766  39.7372169
  70.9440536  19.5335026  38.5964508   8.0008183  58.1262321  46.7870140
   7.3177142  58.6988525  47.1358757   7.9622831  57.3443260  47.3378029
  76.6704025  55.3527946  59.2210846  77.4022598  55.7603951  59.6842041
  75.9140472  55.8956413  59.4435196  79.2884674  66.7547989   1.2948602
  80.0218964  66.3477936   1.7560180  78.5225754  66.5422668   1.8282150
  35.6096802  68.4207916  79.2101746  35.8097610  69.1322784  79.8184433
  36.1256104  67.6804733  79.5295181   3.1419439  13.7999392  21.2073612
   2.9248080  14.0307732  20.3041439   2.3221197  13.9153605  21.6877747
   3.0796137  47.6476593   2.6212590   2.2261336  47.2333565   2.7483635
   3.3479686  47.9176407   3.4995112  56.6704559   2.9353471  54.4200172
  57.5433807   3.3176084  54.5100861  56.5830841   2.3566442  55.1774483
   7.6021214  17.2267857  14.5770264   7.0248365  16.5173130  14.8591995
   8.3397770  16.7831841  14.1583214  84.2604065  59.8347092  41.4523659
  83.7096710  60.4040375  40.9149742  84.9771271  60.3990326  41.7423325
  18.2204762  51.5354385  85.6824570  18.0909729  52.0234833  86.4956436
  17.9792385  52.1526108  84.9917068  67.6282501  17.6561222  66.0140991
  67.8997879  17.0654278  66.7166443  67.8887482  18.5255756  66.3181076
  28.5612507  45.6690750  67.7172699  27.8515835  45.8500252  67.1009445
  28.7995071  44.7577095  67.5473480  46.0398445  55.1479149  56.3366356
  45.4705353  54.4991302  56.7503891  46.4383240  55.6185112  57.0687485
  48.7105064  45.5325165  49.0147171  48.9066277  45.7077293  49.9350815
  48.2538757  46.3179588  48.7133942  16.4743061  49.2946205  65.7737885
  16.2889099  48.5105591  66.2906113  15.6329088  49.5270958  65.3810577
  69.6112061  42.7868385  78.0415421  68.8829956  43.1041565  77.5074539
  70.3741302  42.8475647  77.4666672  63.4763603  61.0183220  26.3929901
  62.7746887  61.5735741  26.7329636  63.1361542  60.6835213  25.5632915
  39.5971565  67.5429230  49.7068062  40.5188942  67.6949768  49.9154053
  39.1271286  67.7932816  50.5021820  62.2027130  60.5318184  37.1634865
  63.1527824  60.5587807  37.0500412  61.9858513  59.5996590  37.1466942
  15.6453829  19.7947998   4.3646970  16.1970940  20.0134544   3.6136732
  16.2604752  19.6849556   5.0898356  60.2969513  58.1029739  39.4069328
  59.5693016  57.8313026  38.8475075  61.0321770  57.5589333  39.1246300
  58.3149757  21.4264812  89.1952057  58.6125298  21.8333607  88.3814850
  58.3310089  20.4869194  89.0130081  81.5703049   4.3232627  83.0302353
  81.8400192   3.4266458  82.8313370  82.0278778   4.8601351  82.3832245
  38.2012558  50.6309166  34.7308693  37.5322456  49.9512749  34.8129807
  38.9483795  50.2924156  35.2242851  35.8038368  20.9249611  22.6880684
  36.2808990  21.3802299  23.3818798  36.3914223  20.9562359  21.9330864
  17.1657372   9.5804625  68.6478271  16.5959492  10.2532482  68.2750931
  16.6474991   8.7768507  68.6046066   8.6076860  43.9230156  72.0494690
   9.0316343  44.6926003  71.6696854   8.0201769  44.2779808  72.7165985
  64.9038849  33.6302338  85.5517654  64.1538162  34.2236328  85.5128632
  65.0426102  33.4805450  86.4869537   6.0259266  47.5521622   0.5035342
   6.6973209  48.1689453   0.7951464   6.3015184  46.7096748   0.8647757
  29.0004196  44.9919167   9.7403584  29.3870316  44.5078888   9.0106478
  28.5587902  45.7343636   9.3280821   0.7962556  61.9220886  81.3244247
   0.4754644  62.5851059  80.7130890   1.4834460  61.4632607  80.8412323
  36.1045990   9.1630068  84.7936935  36.9600677   9.4971972  84.5240173
  35.8865089   8.5036812  84.1349411   1.8129498  58.9439735  62.0977097
   1.0503767  58.3673096  62.0511284   2.4430392  58.4648438  62.6359024
  24.2187576  13.4131165  70.1183472  25.1413498  13.5703688  69.9175339
  23.8565521  14.2845745  70.2783432  14.8318825  70.0520172  80.0140305
  15.3830128  70.8031464  80.2337952  14.1124048  70.4239578  79.5038910
   8.5867434  11.1730995  77.6283035   9.1645756  10.9381418  76.9022598
   9.1227283  11.0473557  78.4113312   8.6669455   7.9478469  76.2100220
   9.4705334   8.4638958  76.1454315   8.0678616   8.3584299  75.5865250
  32.6417885   1.2867206  31.8950825  32.6180916   1.5326046  32.8198586
  32.9088173   0.3675276  31.8984146  36.4002457  35.9211884  86.9759827
  35.5908623  35.4464149  86.7869797  36.7630501  36.1284065  86.1147842
  16.8839073  60.8063126  58.0410919  17.1336784  60.2951393  57.2713203
  16.4949532  60.1666069  58.6375160  17.8031025  27.4748878  72.2086182
  17.2419281  27.8263340  71.5173874  17.4345856  27.8273582  73.0186768
  30.6751289  64.5767059  83.9578094  30.5522728  65.3419266  84.5195694
  31.3419037  64.8474808  83.3266754  71.8333511  62.8211708  35.9966469
  72.3140869  62.6050262  35.1976433  71.7537613  61.9879837  36.4610786
   1.2085336  43.4798393   8.0194016   1.3971584  43.0860138   8.8711958
   0.2787498  43.7037010   8.0596485   3.1787291  41.1563759  46.7090721
   3.6288612  41.7784462  47.2805977   2.6479454  41.7036591  46.1302948
  71.3263779  39.5130005  17.1963921  71.8254776  38.9199715  17.7580414
  71.8934784  40.2768631  17.0908089   5.3143530  29.7702675  80.0883026
   5.5368137  28.9853420  79.5876694   5.3125510  29.4800606  81.0004501
  64.8636246   9.4322472  85.2707977  64.4157257   9.4129553  84.4250717
  65.4571075   8.6816959  85.2446899  30.6982002   7.4732618  79.5926971
  30.3099537   7.9397054  78.8524780  31.2737446   8.1167831  80.0060501
  37.8919868  35.5546722  73.8711014  38.2528687  35.0145798  74.5741730
  38.5192642  36.2710533  73.7733612  72.4534378  40.2068100  34.6490517
  73.3757019  39.9980164  34.5004959  72.0114975  39.9218025  33.8492432
   6.1241808  70.8793640  71.1352081   6.7935562  71.5065765  70.8617554
   5.6078568  71.3501205  71.7894516  69.4303894  54.3968544  68.5919342
  68.9805450  55.1455879  68.9834290  69.7112503  53.8686867  69.3391876
  26.5467205   4.4972806  33.2090683  25.7887115   4.5487714  33.7913094
  26.6448154   5.3849163  32.8645210  38.9808350  70.4882431  63.1580505
  38.1691017  70.6504898  63.6386719  39.0984306  69.5392151  63.2000198
  67.3648071   5.0451970  33.0197639  67.6534424   4.2466097  32.5779686
  66.4519043   4.8742428  33.2512932  68.3723450  15.5152225  80.2593918
  69.2651215  15.7589340  80.5039139  68.2864990  15.8013926  79.3500137
  13.3004513  20.3414764  71.1560211  14.0224495  19.7253647  71.2799377
  13.7237434  21.1536732  70.8778229  72.8961716  68.0866928  14.5305672
  72.6636887  67.4272003  13.8769255  72.5752182  68.9106674  14.1641073
  60.0974121  16.7355976   2.5393243  60.6955528  17.1339817   1.9070667
  60.1908340  15.7936878   2.3968153  11.6772881  70.4869843  65.9626846
  11.9008884  71.4110260  66.0740051  12.4717093  70.0162735  66.2147827
  36.8011246  39.1350212  46.9274445  36.9285126  38.1900177  47.0109482
  37.6849747  39.4876251  46.8239517  44.4775200   5.8536611  10.4999495
  43.9074249   6.5704823  10.2217569  44.9030914   6.1799955  11.2928085
  47.3917732  59.5528755  38.9174614  47.5145721  60.2722816  38.2981033
  46.4774170  59.6258354  39.1910820  25.6195469  29.0158443  12.9056034
  25.2673626  29.8985863  13.0194616  25.7098694  28.6772747  13.7963581
  83.4908218  52.5066681  70.8049469  83.2030792  51.5993004  70.9055328
  82.9494247  52.9993935  71.4216690  13.3228874  58.8896675  38.3456459
  13.5509672  59.3230209  37.5232010  13.8773661  59.3128662  39.0011559
  50.4448318  55.4531021  39.3042908  50.2182236  55.5304604  40.2310562
  49.8010902  55.9998665  38.8538704  72.4859085  35.6281281  77.0422058
  71.9127197  34.9841118  76.6263580  71.9137802  36.3722878  77.2296448
  63.8915558  13.7134666  56.5499954  64.5904617  13.6048441  57.1949501
  63.9676552  14.6242208  56.2654495   0.6819229  35.9394722   1.4082297
  -0.0239366  36.5707321   1.5479017   0.5050122  35.5698776   0.5431668
  15.1907330  46.7959404   4.0398240  14.3974352  46.2644310   4.1062326
  15.2957764  46.9532623   3.1015019  65.2963867  25.2807751  88.0090485
  64.3427277  25.3233356  88.0794754  65.6103745  25.4645519  88.8944092
  42.3263474  44.7723770  61.5319862  42.3378410  45.4437408  62.2141647
  42.7562141  44.0166588  61.9324036  78.7531738  15.2174025  34.4879723
  78.8404083  14.7284727  33.6697006  79.6541672  15.3933878  34.7590446
  52.7720451  47.2362938  70.7617569  52.0827637  47.7105370  71.2267456
  52.6746864  46.3287354  71.0500183  24.3713207  43.9348793  39.4910011
  24.8340702  43.1462669  39.7741776  24.7781124  44.1642647  38.6554565
   7.4131007  50.2341499   6.5827641   6.5118065  50.0657234   6.8575969
   7.3267093  50.7579803   5.7862902  60.9148636  22.6801052  45.4983711
  61.0201721  23.4571018  46.0473900  61.7133789  22.1730995  45.6451607
  73.0264435  42.7253723  35.5472069  73.8119049  42.9266167  35.0385017
  72.8740463  41.7929344  35.3936958  70.0600204  61.5154266   3.7955263
  70.4254913  61.4902878   2.9112005  69.4525986  62.2550926   3.7827170
  80.6645203  46.2560921  67.1516800  80.5615845  45.8601875  66.2862930
  80.4185181  47.1726379  67.0265503  12.7373819  36.5583115  58.2754593
  13.3886023  36.0074081  58.7097969  13.1051407  37.4411163  58.3159523
  27.5113583  42.0104752  36.3376503  28.1211281  42.4997749  36.8899155
  27.2179260  41.2851944  36.8891029  83.3828201  37.0413551  16.1675835
  82.4908752  37.3650436  16.2936268  83.5690079  36.5375938  16.9599171
  42.8859825  45.0600128  86.5434875  43.3284302  45.8797874  86.3234024
  42.3135262  44.8885612  85.7957382  31.7183838   1.1964710  84.6862030
  31.2636776   0.6212237  84.0709305  32.3235054   0.6189654  85.1515503
  83.4192505  37.0931702  47.3339844  83.3926773  36.8557854  46.4070663
  83.8379440  36.3456459  47.7607574  75.0280838   8.9862423  57.5023232
  75.3195114   9.5292330  56.7698860  75.5309296   8.1764488  57.4150696
  67.9570389  42.6168671  80.3080750  68.5397339  42.7851944  79.5675583
  68.0536804  41.6803589  80.4808350  24.4198360  56.7259750  22.4288521
  24.0459805  56.8158913  23.3054256  25.1119289  56.0724411  22.5295258
  12.3579044  41.2668495  54.7102394  13.1920338  41.5971298  55.0439644
  11.9276104  40.8859406  55.4757385  32.5768700  18.8952217   5.1774731
  32.9530945  18.1846008   4.6581407  32.0583344  19.4007549   4.5515428
  46.8545341   8.7542572  86.2118301  46.2094574   9.4608278  86.1823959
  47.0249519   8.5471020  85.2929840  75.6694260  45.2781181  56.4366760
  74.9653549  44.7709770  56.0325356  76.3021317  45.4138565  55.7313461
  14.5850916  54.6909828  63.3211823  13.6729527  54.7454643  63.6062508
  14.8465986  53.7931061  63.5252953  60.1194115  42.1768951  86.7932053
  59.2266769  41.8619118  86.9347763  60.0107536  43.0832329  86.5051498
  54.3327980  49.5570183  31.0029621  54.6565971  48.7319489  31.3644199
  53.5250320  49.3186035  30.5480957  55.8180542   1.3605757  44.4546738
  55.7013779   2.2952433  44.2843361  56.3399200   1.0459130  43.7165146
  62.0843658  38.5444260  36.9223137  62.1034203  37.6195450  36.6764069
  62.5913429  38.5871811  37.7331009  48.8817863  67.8814163   2.5688868
  48.9310532  67.1230240   3.1508286  49.7940445  68.0836258   2.3612204
  45.8109932  66.2845383  33.1996689  45.9714699  66.2559891  32.2564507
  46.6844330  66.2876740  33.5912437  82.2556458  62.3037300  86.2412109
  83.1526718  62.6226006  86.1417007  82.1140671  62.2783623  87.1875381
  68.2627487  -0.1975086   9.8933601  68.6788330  -0.5359605   9.1005440
  68.3606949   0.7524486   9.8284016  81.6590347  35.7974777  53.6387215
  80.7370071  36.0417480  53.5585403  81.7725220  35.5918884  54.5666695
  56.6871986  43.0115242  60.8113480  56.7864189  42.0972786  61.0769539
  55.9941673  42.9953156  60.1512871  19.1421165   9.3008604  74.5655289
  18.8600292   8.8163986  73.7896729  19.9414864   8.8564358  74.8478928
  37.7059059  35.8782692  62.3156357  37.1738129  36.6517982  62.5020790
  37.8031464  35.4444580  63.1633301  80.0914612  37.2772598  36.4307861
  80.1106110  37.1941109  35.4773979  79.2021255  37.5714073  36.6277390
  18.9205074  62.2992210  59.3243713  19.6494198  61.8091469  58.9439163
  18.1380291  61.8397255  59.0197029  86.0535278   9.5838785  69.4045792
  86.0322189   8.8550863  68.7843857  86.6993942  10.1893387  69.0405655
  55.9235611  58.4672432  59.6165390  56.3075523  57.6978836  60.0370941
  55.1636620  58.1275864  59.1438675  77.9479370  13.5783358  27.9994011
  77.9754333  13.6745415  28.9513569  77.3886948  14.2960730  27.7021904
  67.9269638  31.2768383  86.4221649  67.6897202  32.1948051  86.5536423
  68.8288193  31.2150879  86.7369232  68.8222809  36.2282333  83.4018631
  68.8875732  35.3132553  83.1283951  68.0334244  36.2607574  83.9430389
  11.7838831  70.2257538  60.5474472  10.8868790  69.9076538  60.6495628
  12.2432270  69.8996048  61.3213081  62.2536888  65.0424194  82.4235916
  62.5440788  65.9532166  82.3750076  62.4919357  64.6694717  81.5748367
  80.5105515  -0.2957320  21.6313572  81.3657150   0.0845720  21.8321152
  79.9030304   0.4424371  21.6788635  18.0362930  59.8385277  10.6829357
  18.2159634  59.9258118  11.6190615  18.7051678  60.3766060  10.2594852
  67.0048676  32.8304176  29.2706070  66.3065338  32.1878433  29.1454983
  67.7583923  32.4573555  28.8131542  10.0262899  57.3448105  69.5508118
   9.7069206  57.6083221  68.6877975   9.2331161  57.2203255  70.0719757
  63.5476227  56.9719849   5.7764616  62.7404213  56.4586143   5.8097796
  63.9027100  56.9178238   6.6637101  49.5951653  33.0004692  74.2727890
  49.3516655  32.0747681  74.2764587  48.8130455  33.4526100  73.9564133
  27.9450569  52.3381233  70.5643539  28.8801193  52.3830948  70.7640152
  27.5282650  52.1616135  71.4077759  29.1412125  68.4165726  30.0924721
  28.2946663  68.7261047  29.7703247  28.9531517  68.0688629  30.9642315
  53.5814209  42.2338486  50.2212410  53.3110085  42.5460968  49.3577538
  52.7639160  41.9861946  50.6532021   0.2481507  65.1135559  30.6517792
   0.7486257  65.9163132  30.5056725   0.7075817  64.4482727  30.1393833
  75.6885300  64.5987778  66.4161301  75.8538132  65.3025360  65.7887192
  74.8959656  64.1706161  66.0924835  85.7094727  43.0628052  87.7930984
  85.6790543  44.0041656  87.9638214  84.8315430  42.7510452  88.0127945
  20.7789822  62.6018295  74.2156677  20.2131882  61.8298187  74.2261353
  21.0863361  62.6857758  75.1182861  64.1341705  65.3597260  46.9590416
  65.0015259  65.2118149  46.5821457  63.6258011  64.5915375  46.6989021
  63.5771942  68.3345490  87.1239014  64.2659988  67.7495804  87.4394913
  63.3582726  67.9995651  86.2543640  14.3035746  21.5162697  28.5468311
  14.8699074  21.9242496  29.2018509  13.4743166  21.9887981  28.6194897
  22.0517349  40.9707527  14.6881065  21.2160721  40.8061752  14.2512836
  22.0865707  40.3217430  15.3908186  83.1052933  39.9077721  11.2734470
  82.7961426  40.5494156  11.9129362  82.3801422  39.2892494  11.1849842
  64.3608856  29.5027714  44.7031746  64.4461365  28.9998341  45.5131226
  64.4293442  28.8492737  44.0071259   3.8675432  59.1419220  75.3879013
   3.5396769  59.8187485  74.7957535   3.0939701  58.8508606  75.8707047
  52.7419968  32.6604614  40.2749901  52.5098801  32.9938393  41.1417160
  51.9302826  32.2799950  39.9394341  79.5425186  11.7911444  65.2785110
  79.6400681  12.5353975  64.6845398  79.4343262  12.1873207  66.1431351
  63.7915764  17.8180580   9.7037086  63.9947701  18.2903175   8.8962955
  63.3297005  17.0321503   9.4117346  73.3637772  11.2599869  68.2934036
  73.4329529  11.8513489  69.0428925  72.5658951  11.5367241  67.8428116
  65.0148010  42.2258949  20.0545425  64.7766190  43.1218262  19.8162079
  64.2376175  41.7077484  19.8453960  55.0204964  67.2083206  22.5338135
  54.6947670  66.3091354  22.4938412  55.8448219  67.1862793  22.0477753
  31.8472519  34.7090721  14.4572020  31.6738453  33.9210129  13.9423008
  31.0032616  35.1587524  14.4984550  44.1679573   4.4591694  49.3192177
  44.3068619   5.3607755  49.0293121  44.9169197   4.2714009  49.8849297
  83.8240662  64.2299805  29.1550541  84.2105484  64.0340729  28.3015423
  84.2649460  63.6335945  29.7601871  73.5025024  25.5284672  37.2647400
  73.9481277  24.7180157  37.5113525  72.8912125  25.2658272  36.5765724
  72.8444748  35.6422386   0.1203414  71.9143906  35.6541748   0.3462361
  73.2835922  35.3743896   0.9275984  63.3456383  33.0260048  36.9857674
  62.6369476  32.5266876  37.3915672  63.9290085  32.3606033  36.6208611
  54.7923012  52.2264748   4.1747246  55.5812225  51.7624702   3.8944829
  54.0763359  51.6227684   3.9768426  52.8029442  28.4600430  58.6385307
  53.3949928  27.8836555  58.1553268  52.9789543  28.2666588  59.5593224
  45.4368210  38.6120796  87.3979187  44.9174957  38.7808914  86.6117630
  44.7968483  38.3313065  88.0520096  16.2261620  67.4408188  10.1876507
  15.8213606  66.8364563   9.5654650  16.6092205  68.1266479   9.6407213
  45.3971710  56.5401726   0.9472504  46.3070984  56.2464066   0.9029369
  45.3838959  57.1708870   1.6671493  30.5177498  17.5911503  80.5531693
  30.1205864  16.7632446  80.2828674  30.7246456  18.0369854  79.7317963
   0.1841182  11.0616751  61.0260429  -0.3077410  11.2915087  61.8143845
   1.0616640  11.4112234  61.1808357  82.6423187  39.9151840  73.4934845
  81.7124863  39.7915192  73.3028259  82.9384384  39.0603561  73.8062286
  40.4524879   5.2819700   5.2085519  40.9196167   5.3174019   6.0432782
  39.7791672   4.6142564   5.3390441  54.1528664  43.7628136  21.2244186
  54.7216377  44.2292824  20.6119347  54.7516747  43.2355499  21.7532406
  34.0702095  45.9848824  44.6489868  34.1006279  45.4063072  43.8870430
  33.1816254  46.3407211  44.6441994   8.6997032  41.6368332  56.9741859
   8.7164955  40.9405518  56.3175697   7.9689202  41.4071960  57.5481644
   5.6770277  57.8223648  78.6845627   5.3420792  57.1341858  79.2594147
   6.6145096  57.6417389  78.6157532  62.0513840  55.7937584  56.0045319
  61.9272346  54.9164848  55.6423035  62.2054214  55.6478920  56.9379272
  40.4784737  61.9199677  32.6369705  41.3463478  61.5924721  32.4008102
  40.2716026  62.5617218  31.9575672  57.1384163  61.9965973  32.0428925
  56.6406746  62.5096741  32.6794739  57.6480751  61.3849258  32.5742455
   4.5301533  53.2228394  76.7354965   5.0484834  53.9334564  76.3578873
   3.6223881  53.4650497  76.5523911  22.9120884  21.8530884  71.4445496
  23.1393223  21.4853630  72.2985840  22.9142895  21.1014442  70.8518829
  70.5482407  35.8079643  43.1780548  70.7851944  36.7214355  43.3382225
  71.1366806  35.5272255  42.4772339  26.9020824  54.0103111  68.5863037
  26.8418770  54.8725014  68.9976807  27.2635670  53.4442444  69.2683105
  71.9417114  42.8634491  74.0955276  71.2906723  42.3014946  73.6753006
  72.7634277  42.6500816  73.6533890  50.9313965  39.8452110  19.3983650
  51.3934593  39.0699997  19.0793438  51.4855423  40.5797844  19.1346321
  13.3084192  67.8871078  55.4942741  12.4396200  67.6327972  55.8053169
  13.8976049  67.2308807  55.8663750  29.5563412  15.3025103   1.0370536
  29.0506096  15.4048595   1.8432744  28.9700794  14.8317165   0.4447012
  35.8745880  66.4259644  75.0449524  35.3523407  66.0268173  74.3491364
  35.9704323  65.7340469  75.6994019  61.5540771   3.6412821  70.3514786
  62.1417656   3.0482874  70.8196793  60.6763840   3.3156102  70.5510254
  24.7180786  32.9321136  66.4071121  25.5423679  33.1785545  66.8266830
  24.1105766  33.6334610  66.6422348  53.8829651  42.5420761  83.1232605
  53.0136986  42.7300262  83.4772110  53.7253227  42.3224220  82.2050400
  81.3853073  13.1734667  44.1844177  81.1240005  12.2526512  44.1911774
  81.0849533  13.5138664  45.0271187  45.8823586  45.8472633  66.9053497
  46.2934303  45.6126251  67.7373352  45.1387138  46.3970413  67.1522675
  64.3490982  58.5494919  80.8785400  63.6007500  58.1054955  80.4797058
  64.6443405  59.1682549  80.2105637  56.0974808  19.3125801  75.5534668
  55.4499741  19.6250267  74.9215393  55.7772369  19.6259308  76.3993301
  19.6961212  55.3048096   8.4981060  18.9767685  55.0274467   7.9308004
  19.7022285  56.2593994   8.4277706  61.0985069   9.3758516  74.5193405
  60.4053764   9.3798904  75.1794815  61.5530396   8.5443506  74.6543884
  39.3545532  63.7310524  70.3794556  39.7737083  62.9121857  70.6440277
  39.9482346  64.1044388  69.7280273  57.9705162  29.9197922  88.9030304
  58.5601730  30.2837849  89.5633698  57.4625511  30.6705799  88.5955887
  61.9372406  61.1185684  16.6708088  61.6345673  60.5481987  17.3774185
  62.1941833  60.5177040  15.9714022  55.7317085   4.2666826  44.0625114
  54.9738007   4.8258696  43.8918839  56.4695015   4.8738976  44.1189270
  19.4172039  69.2665482  22.1434975  19.3650150  69.6338806  23.0258656
  19.0841293  69.9608383  21.5749397  25.1138039  43.0862541  73.3463211
  25.3495808  42.3866234  73.9555435  25.7934837  43.0566635  72.6729813
  25.2599716  55.8316002  78.3045197  24.4933701  56.0032616  78.8514023
  25.8704014  56.5368233  78.5196152  11.1262970  56.1514893  53.5237732
  10.2364721  56.4229851  53.2985344  11.6259966  56.9674454  53.5510635
  67.8986359  15.4727831   7.4550986  67.0068130  15.6783237   7.7355218
  68.0435638  16.0297413   6.6902289  16.4198971   9.4413376  76.7268524
  16.1612663   9.3346910  75.8114471  17.2624378   9.8938112  76.6865387
   8.2349663  42.7441330  19.1131496   8.3264999  41.9141121  19.5810413
   8.9940805  42.7758598  18.5309372  30.8584805  39.5164528  47.8008270
  30.8278561  39.7495537  46.8729477  29.9930706  39.1510849  47.9846802
  62.4883575  64.2912979  35.5898132  62.4243927  63.3875580  35.2809525
  61.6058922  64.5035248  35.8938599  33.5936852  57.3168716  12.5653152
  32.8946342  57.9368095  12.7732449  33.8738098  57.5589905  11.6826258
  68.9987564  47.0784340  40.0432281  68.0729675  47.1507759  40.2754364
  69.4423065  46.9143372  40.8754349  12.6778545  49.9031410  46.9202614
  11.7357941  49.7433167  46.8635941  12.8644753  50.4957581  46.1921043
  48.0764503  48.1967926  63.4184723  48.8116570  48.0953979  64.0229797
  48.0531921  47.3742142  62.9295349  66.3500290  32.9715309  43.7438087
  65.8752060  32.9513550  44.5746918  67.1527786  33.4552345  43.9383774
  38.4499702  52.8359604  38.2665825  39.1067619  52.1435471  38.3402100
  38.9571762  53.6304665  38.1000404   9.5593472  29.0077076  70.6286850
   9.0895939  28.9984970  69.7947311   9.0409546  29.5850296  71.1892242
  81.3293915  61.6975861  83.7030869  81.6468811  60.8041801  83.8344727
  81.5241547  62.1445503  84.5268097  55.7230110  46.6299400  55.5406723
  55.2143784  46.6070633  54.7301178  56.0529976  47.5270462  55.5911293
  66.2948532   2.0422716  76.7849426  65.9541397   1.2292318  76.4119644
  66.0693283   2.7139885  76.1413803  60.4811020  28.0890675  39.4086418
  59.9784088  28.8804932  39.2158279  61.3048363  28.4116611  39.7741966
  31.9730759  70.1798477  22.9901772  32.0935249  70.7699203  22.2461815
  32.8480682  69.8334961  23.1652832  71.5727234  65.6015549  16.0247192
  72.2275543  66.1943970  16.3934517  70.7361755  66.0369644  16.1885376
  39.4084473  23.3531189  66.9173889  39.0087509  22.5011253  67.0922623
  39.4972458  23.7576733  67.7803345   7.0760684  33.5528107  60.0716553
   7.4013324  33.6921387  59.1822624   6.1657443  33.8472595  60.0426369
  71.3586807  21.4632263   9.2353916  71.6999359  21.0199757  10.0121164
  71.6457748  22.3712063   9.3322449  16.2607403  56.7966080  67.7200470
  15.3931255  56.7248497  68.1179581  16.1135998  56.6190758  66.7910385
  59.7941933  58.6176491  32.2939301  60.1725349  57.8620644  31.8442841
  58.9816017  58.2865639  32.6764297  69.1439438  41.4705582  14.2383814
  70.0570679  41.4713898  14.5255032  69.1426926  42.0021210  13.4423456
  74.8074875  52.7175636  20.4797440  75.1232681  52.0016327  19.9284229
  75.3913574  52.7112427  21.2382183  65.7720261  70.1270370  37.6683540
  66.3854141  69.4594116  37.9753723  65.2954636  69.7040863  36.9540405
  51.3872948  36.3322830  89.4345245  52.0492935  35.8930931  88.9005737
  50.8650589  36.8309937  88.8062057  34.0568886  62.9574623  64.4294586
  33.1587868  63.2800827  64.3548889  34.4757767  63.2237511  63.6110153
  57.5452538  67.3982239  17.8463326  57.0717010  66.6931305  17.4049530
  56.8639450  68.0184326  18.1059475  65.9270172  30.9148655  38.8669968
  66.2067947  31.8187943  38.7225380  65.9661102  30.8008938  39.8165817
  47.5275955  64.4638138  87.4522858  46.6714706  64.8663101  87.3063965
  48.0435638  65.1469193  87.8805084  35.7808189  39.3118248  68.6011276
  35.7714424  38.4089394  68.2834244  34.9658775  39.4002914  69.0953751
  64.6220856  10.8099880  68.4777145  64.9977570  10.5511799  69.3192139
  64.7222595  11.7616167  68.4532318  84.7425232  43.1736298  23.0677967
  84.5058594  42.8430824  22.2012177  85.6925964  43.2841377  23.0307369
  37.1376572  55.3773956  58.4861794  37.8015442  54.6917496  58.4128304
  37.6148605  56.1911659  58.3240585   9.0598707  40.3880310  86.3634567
   8.3151646  39.8632355  86.6571121   8.6639996  41.1527939  85.9455338
  50.3697891  26.6810722  23.3761463  51.3267136  26.6600895  23.3854122
  50.1505356  27.6127644  23.3865814  11.8986855  46.9254265   0.2818536
  11.8376837  46.2157364   0.9212657  11.0474310  46.9272690  -0.1558625
  86.2692032  13.6833086  80.3414154  86.2238007  13.3343754  79.4512405
  87.1267624  14.1057997  80.3896103  76.6607437  40.1980705   6.2257409
  76.4342575  40.9392586   5.6639795  76.9847641  40.5990410   7.0322561
  47.8699226  29.2622395  51.5336494  47.2211838  28.6683235  51.9113159
  48.5097580  29.3942242  52.2332344  35.5802460  54.7289391  88.8531342
  35.3391380  54.8597221  87.9360809  34.8861923  55.1646919  89.3477478
  73.1170197  40.4405212  48.0708046  72.8295288  39.5284500  48.1121254
  72.8125534  40.7491951  47.2174301  42.9478378  46.6562042  59.0110893
  43.8927956  46.5797920  58.8790207  42.7278633  45.9292603  59.5936661
  52.2982140  37.4989395  27.7053776  51.9590340  37.3275185  28.5839024
  51.8794785  36.8381310  27.1538124  14.0716877  60.4437904  17.6841412
  13.6581917  61.2957954  17.8232002  13.7337751  60.1487198  16.8385754
  84.1806564   7.6639805  46.4524689  84.9042740   7.6648617  47.0790596
  83.9948273   6.7370467  46.3024979  57.9589272   7.4719214  79.6455078
  57.2343483   7.7143145  79.0689163  58.7433128   7.7594976  79.1783142
  56.8511314   2.9050891  30.8983021  55.8996239   2.9897540  30.9591255
  57.1900978   3.6140184  31.4448853  35.4243546  71.4854965   1.1242883
  35.8681946  71.6742859   0.2974905  34.4947510  71.6048508   0.9298011
  42.2411041  51.9155693   1.3590708  42.3051567  52.5924339   0.6852869
  41.5329247  51.3455658   1.0593951  42.5603638  30.3574142  87.5613098
  41.8393364  30.3357544  86.9321213  43.2430573  29.8183098  87.1619034
  64.5502090  16.2973061  29.6745281  65.4277115  16.6663017  29.5742188
  63.9631386  16.9893818  29.3702106  59.9967995  35.3610687  43.9969711
  59.6602516  35.8455353  44.7508011  60.9480438  35.3882790  44.1000443
  75.0075378   1.8334982  79.1466217  74.5512314   2.1997039  78.3890533
  75.1847229   2.5886154  79.7075424  -0.0536082  32.9359970  43.7733803
   0.1150045  32.0226555  44.0049133   0.7491628  33.2252579  43.3396530
  25.9425316  47.7129097   4.7306709  25.7316952  48.3869438   5.3767796
  26.8986740  47.7149658   4.6856995  10.3827772  69.4409027  21.7128735
   9.6051455  69.0422211  21.3222675  10.5158205  70.2462540  21.2129383
  75.8423920   2.5275919  56.9593010  76.4278107   1.8263562  56.6733170
  75.4273300   2.8364577  56.1539726  38.0878220  33.9910736  76.5965729
  38.5196266  33.3332710  77.1416168  38.1300583  34.7956047  77.1134644
  58.4932022  32.2450981  85.7060089  59.4008675  32.4236679  85.9519501
  58.5126724  31.3585129  85.3457031  49.1190720  41.4570160  83.9369278
  48.4518585  41.7735100  84.5459366  49.1941910  40.5222130  84.1285782
   5.8889751  16.2499237   9.5747910   5.4758520  16.9506092  10.0793705
   6.6945858  16.6410866   9.2368336  39.9900818  53.3085365  71.0795441
  39.4066963  52.9234047  70.4256592  40.5458031  53.9078789  70.5813522
  59.0723991  57.1371117  28.9080219  59.4634514  56.7875404  28.1073284
  59.7216148  56.9600029  29.5887451  50.2835999   7.4085093  30.6998577
  49.9362984   8.2776470  30.4993229  50.7451096   7.5208883  31.5308876
  12.7539740  50.1054535  37.8540993  12.9780760  49.8882599  36.9492035
  12.1679611  49.4012184  38.1313591  48.2176704  25.4774265  88.8223267
  48.4873352  26.3641853  88.5832214  48.7489624  25.2641697  89.5894547
   0.5139746  65.4294586  62.6633339   0.9286861  66.2395859  62.9598808
   0.5672799  65.4687271  61.7084274  68.1457672  29.8635521  72.3329849
  68.9114075  29.3389301  72.0988922  67.8677216  30.2626324  71.5085678
   5.1786823  17.3640976  68.4985199   5.3649077  17.9177818  69.2567978
   4.9706917  17.9809971  67.7968063  57.1408730  63.7050171  39.7641983
  56.3057747  64.1301041  39.9595108  56.8977242  62.8886032  39.3276443
  32.1392860  10.0687046  18.8389263  33.0537834  10.3480120  18.8826828
  31.9031601   9.8787527  19.7468891  52.3753738  49.3221779  78.0058365
  51.7736664  49.4086227  78.7452393  53.0031281  48.6554947  78.2845688
  51.3341789  66.3084488  56.5361938  51.0403099  66.5670395  55.6626930
  51.3673744  67.1277466  57.0300331  15.7444792  50.2775879  40.1674042
  16.0678329  50.1243439  39.2796021  16.5338039  50.3066940  40.7081032
  29.5590496  53.8720055  85.8748550  29.7965927  53.0305595  85.4852753
  28.7245102  54.0988274  85.4645767  51.0845261  49.1102066  71.7615204
  50.3670998  48.5683594  71.4329910  50.8455200  49.2996597  72.6688309
   1.4478742   3.2938187   5.4425302   0.7209189   3.3372250   6.0637255
   2.2232401   3.1683385   5.9896078  11.2067213  58.4116249   6.3315578
  11.7269983  58.7277336   7.0702176  10.7630644  57.6326218   6.6670480
  32.7336617  24.6146145  71.5516891  32.2227859  24.8533802  70.7782364
  32.4621620  23.7185860  71.7508240   9.3132658  52.9559059  81.7829895
   9.2839460  52.0643768  81.4357910  10.1726723  53.0227318  82.1991425
  46.4618492  55.3284836  79.7545013  46.6832047  55.0075874  78.8802795
  46.6927032  56.2572060  79.7342987  62.0507469  16.3162003  65.8262024
  61.5932465  17.0859528  66.1644363  61.8530197  16.3123684  64.8896561
  47.6474228  21.7138119  53.6615562  46.9916687  21.8933144  52.9877625
  47.7516289  22.5463867  54.1221962  52.5480537  21.6030254  29.3834724
  51.8963547  21.1913147  29.9509373  53.3898125  21.3230953  29.7430744
   4.7728076  26.7274170   8.5926380   4.6498837  26.0637436   7.9139190
   4.9021173  26.2257652   9.3975334  41.5787621  33.1336861  84.8114929
  42.5224304  33.1167450  84.6519928  41.1873474  33.0429192  83.9427032
  30.2556076  49.7175484  58.1721115  29.3339062  49.9755859  58.1828995
  30.2883816  48.9711647  57.5737228   5.8775601  64.3550949  22.1350155
   6.1912236  64.9491959  22.8168468   6.5442104  63.6697388  22.0892639
  20.5075226  18.9054737  24.3388138  20.7341862  18.6197777  23.4538097
  20.9772415  18.3008900  24.9133358  27.3046169  42.8660202  53.4531326
  27.0120087  41.9546700  53.4605789  26.5067444  43.3725166  53.3011627
  50.5256653  38.7587891  77.9875031  51.3334541  39.1733093  78.2906189
  50.6602020  37.8250465  78.1495438  11.3489656  39.3350220  11.8004742
  11.6277990  39.7215271  12.6305933  10.6030321  38.7818336  12.0324163
  62.9288902  24.6466198  74.0168610  63.4964790  24.9943714  74.7047119
  63.1139984  25.1942787  73.2539444  75.6364136  62.9107094  83.3232803
  75.9243698  62.3233223  84.0220642  75.9978638  63.7638893  83.5634232
   3.5279608  28.3970470  26.9439926   3.3086576  27.6901302  26.3370285
   3.5635524  27.9738007  27.8017960  12.7342978  32.8462601  12.5671968
  13.1259050  32.5997086  13.4051037  12.1622143  32.1117516  12.3448296
  19.7213745  24.8705463  13.0455599  18.9323616  24.4604645  13.3998547
  19.7204742  24.6307316  12.1188889  37.3255157  12.3093987   2.8211901
  36.5728073  11.8296795   3.1669207  37.3385201  12.0946951   1.8884710
  57.9701805  40.3706131  32.4074669  58.0533867  40.0064850  33.2887840
  58.1299629  39.6277733  31.8253307  71.9585266  48.7509880  41.8768158
  71.3703232  48.5589981  42.6071510  72.4626389  49.5105705  42.1685944
  61.4208641  26.9372597  34.7431030  61.8004684  26.9071331  35.6212959
  60.7220726  27.5883446  34.8064346  18.9442558  48.9703903  85.6579590
  18.6556358  49.8825264  85.6885452  19.6379356  48.9606552  84.9984512
  85.3727188  49.8048477  79.7500305  84.6533127  49.1867714  79.6209259
  85.1306229  50.5673447  79.2244644  34.7030334  43.9649239  63.2836494
  35.1762123  44.0901947  62.4610672  33.8821220  43.5453148  63.0262337
  42.0074425  64.1979828  69.5254364  42.4069176  63.7845535  70.2907639
  42.1414261  63.5691948  68.8162766  63.8224907  40.0187988  34.4049683
  64.7767639  40.0627441  34.4654541  63.6360893  39.0973549  34.2249069
  53.4226952  39.7486572  59.5839043  53.4594688  39.4850197  60.5033455
  53.1452942  38.9591103  59.1192589  67.8783112  47.2057533  69.2574387
  67.5494156  46.3255844  69.0747757  68.7280045  47.0622368  69.6741638
  44.1938972  57.2905807   3.8463604  44.0195885  57.4491653   4.7740993
  44.8024864  56.5517883   3.8398736  21.5560036  66.4798508  12.0181761
  20.9831238  66.9246750  12.6428185  20.9653873  66.1642761  11.3342047
  21.5418854  54.1197853   1.5403005  21.6307011  53.8848152   2.4639525
  21.6098976  53.2868118   1.0736486  54.7961578  27.3592129  12.1112976
  55.0587654  27.6625233  12.9803619  53.8976555  27.6731415  12.0094337
  35.5776901  49.9804153   3.0278716  35.2321167  50.6869011   3.5734777
  36.1779213  49.5055542   3.6027300  73.2545166  32.8969765  54.2941246
  73.5043716  32.0192070  54.5828018  74.0808716  33.3121452  54.0471268
   2.1434093  56.7814598  85.2508392   2.9770622  57.0373459  85.6455231
   1.8831922  55.9945869  85.7297516  65.3134079  34.0472603  88.2713547
  65.5025330  34.9277229  88.5957718  65.3945160  33.4854622  89.0420914
  46.6195450  65.7758102  53.5767212  45.7786102  65.5149765  53.2011948
  46.6094933  65.4123611  54.4621811  51.6706123  32.3955917  31.6813927
  51.2169456  32.2759399  30.8470631  52.5328331  32.0033989  31.5435886
  43.3444481  58.0407753  16.3710194  42.5516815  58.0353203  15.8346272
  43.1051292  57.5498734  17.1571331  49.0755692   5.8018665  58.8991089
  48.1183929   5.8009114  58.9054985  49.3163147   6.6734438  59.2131577
  74.4976044  51.0250587  64.1412354  73.8814545  50.2935944  64.1018448
  73.9880981  51.7479477  64.5073853  22.2908421   1.8402781  71.4661102
  22.8926220   1.1205711  71.2760696  22.5858536   2.5546141  70.9013748
   8.3199673  51.2407913  58.9875107   7.8355255  51.2502518  59.8130150
   8.4016924  50.3125992  58.7683868  46.5390587  16.5668736  38.9761467
  45.7502937  16.4563389  38.4452362  46.3794060  16.0351124  39.7558746
  58.8650856  57.9546623  11.1502476  59.0250511  57.0119286  11.1938105
  58.8713837  58.1556740  10.2144127  25.0679684  62.9802475  48.5682335
  24.9379768  63.7629395  48.0327644  24.2752132  62.9203796  49.1013260
  36.7454529   7.7102571  63.8232498  37.1913414   6.9060516  64.0890808
  35.8193703   7.5381465  63.9935036  20.6927624  63.4777794  81.1725082
  20.6681118  62.9166031  80.3974609  19.8898830  63.2646942  81.6481247
  59.7019348  62.8538780  12.7554865  59.1147194  63.6014786  12.6436539
  59.4641190  62.4878540  13.6073685   4.5123940  71.2055206  88.7276001
   4.6361713  71.9595795  88.1511383   4.8446031  71.4962387  89.5769272
  63.8854637  23.4185238  37.0356407  64.1741791  23.8529701  36.2330627
  64.2620010  22.5401764  36.9812889  73.2995758   4.4380879  10.7055597
  73.1673660   4.6053920  11.6387062  72.7535553   3.6742423  10.5194635
  43.5214806  68.8249054  16.4608898  42.6427498  68.5545273  16.7272758
  43.5424805  69.7674866  16.6262436   7.8053737   1.8583887  70.6012802
   8.2332392   2.6424167  70.9454651   8.4166613   1.5194768  69.9472961
  16.3202667  63.0225868  54.3704147  16.7631264  63.6039619  53.7522621
  16.1535816  63.5706139  55.1372986  21.4815006  23.1284733   8.2877054
  22.0178127  23.1941032   9.0778284  22.1019497  23.2389030   7.5672331
  72.5730057  34.0764351  34.0913849  72.6995773  33.7796249  34.9925575
  73.2078934  33.5728340  33.5819435  82.3395538  56.7533417  65.4699860
  81.9717636  56.9077034  64.5998459  82.4532471  57.6285019  65.8406525
  76.5128098  52.2832146   0.4994959  77.4557571  52.1735420   0.3768459
  76.3085098  51.7545052   1.2708329  49.0411949   4.8648949  67.7702713
  48.1778641   5.2071872  68.0020676  49.5556259   4.9489517  68.5730972
  84.4051895  50.5965996  83.9322586  85.3459473  50.7161102  84.0623474
  84.0564651  51.4861450  83.8745270  78.2964706   9.7289734  63.9055710
  78.8132553  10.3921452  64.3631363  78.3289108   8.9627695  64.4783783
  29.0907898  49.9774284  74.8872147  28.7649193  50.4001541  74.0926437
  28.7838211  50.5379295  75.5998459  61.9351234  65.8198929  70.0713577
  62.3883209  66.0086746  69.2496567  61.1912498  66.4222565  70.0784912
  15.5393219  59.8356094   9.3893099  16.2760830  59.8049889   9.9996176
  15.7074471  59.1211777   8.7748566  74.7795334  64.0505295  17.4399052
  75.5002289  63.4432335  17.6072788  73.9952011  63.5021286  17.4575672
  19.1176796  30.8710728  63.0102386  18.3049927  30.4295120  62.7636719
  19.4875584  30.3230228  63.7023849  73.7408981   6.9185266  23.0418301
  74.0926743   7.7408996  23.3826923  72.9521179   7.1751556  22.5641270
  15.5757418  12.5825586  14.5911169  16.0439091  11.7642946  14.7569351
  15.9890051  13.2177019  15.1759577  67.7923813  31.3664989  17.7401333
  67.4128494  31.2839298  18.6149864  67.5119781  30.5744019  17.2816715
  50.0762062  49.4251900  21.1610069  50.7511215  48.7507324  21.0846310
  50.3394356  50.0994453  20.5346527   8.8036804  35.5125008  16.5013771
   8.4154606  35.2332649  15.6721945   9.6225986  35.0204124  16.5601692
  28.9562931  34.4702835  10.6999216  29.7624760  34.5558128  10.1910152
  28.2958698  34.9299278  10.1814632  79.6562119  47.3207207  62.0267677
  79.9990692  48.0041542  61.4509201  79.3099518  46.6566772  61.4306297
   1.7774775  51.5414886  58.0515976   2.2595336  50.7908363  57.7046432
   2.2255096  52.3039284  57.6852913   5.8138766  60.2237625  19.0436935
   5.8642354  59.3399811  18.6795177   6.5025735  60.2486763  19.7080040
  12.9524508  13.7394209  54.3443947  13.5198450  14.2619276  53.7775764
  13.0333595  12.8471785  54.0073624  74.0476303  54.4978142  18.6407909
  73.4661026  54.8700371  19.3037434  74.5998001  53.8833694  19.1243172
  25.9550858   2.7803421  71.7852097  26.1320381   2.4624212  72.6705627
  26.1369705   2.0293691  71.2202454  42.8218994  31.4569263  72.1254654
  42.9228096  31.7437820  73.0330734  43.6301384  31.7355518  71.6949387
  48.4872894  28.2910767  79.2749481  49.0686722  28.9344616  78.8696289
  47.8513489  28.8157692  79.7612686  41.3493042  69.9029770  23.1877937
  40.6530685  70.1560287  23.7939720  41.2691879  68.9519501  23.1145782
  85.4130707  12.9234467  24.5875931  85.8383942  13.1565142  25.4128284
  85.0168915  12.0684071  24.7554569  21.6341076  47.0978317  20.4560242
  22.5694332  47.2906342  20.5210400  21.3551502  46.9569168  21.3607655
  49.4750061  28.8388958  21.6070805  50.2983894  29.3232613  21.6675682
  48.9656982  29.3134060  20.9500580  72.1803055   9.0457029   3.1999424
  72.4674606   9.0795898   4.1124263  71.3233490   9.4721365   3.2025361
  59.1336784  46.8483391  43.2710419  59.8582001  46.6327972  42.6838112
  58.5768585  46.0698357  43.2602005  57.3148804  16.0335522  67.9870300
  56.4463768  16.3405952  68.2471390  57.3218002  16.1144066  67.0332794
  75.4743958  26.8470631  74.5157394  74.9240570  27.5431957  74.8745651
  76.3361969  26.9991169  74.9035721  56.0384369  49.8221779   3.4773893
  55.7815475  49.3829384   2.6666443  56.8407669  49.3756866   3.7478385
  75.0974426  34.7305450  22.6865616  75.4245377  33.9409294  23.1175480
  75.7395630  35.4060249  22.9048271  80.0430145  23.7570229   5.5690722
  79.1971893  24.1595020   5.3720541  80.1597214  23.8929482   6.5093570
  83.3642807  17.3603954  73.6413803  84.0315018  16.7027054  73.8375778
  83.3605881  17.9338627  74.4077682  21.4508095  11.1776915  13.8798742
  22.1917019  10.5866842  14.0141115  20.8251572  10.9364338  14.5629463
  84.5262070  66.9117279  49.4040413  84.1463242  66.3673553  50.0936661
  85.2683640  67.3467331  49.8238029   3.2099519  61.3403511  15.3108406
   2.8995471  61.0644226  16.1732464   3.4423029  62.2620583  15.4235325
  23.7736855  43.9100609  19.1337337  23.7552414  44.6085167  19.7879887
  22.8561440  43.7841415  18.8918800  64.0849075  21.4722939  49.4196358
  64.0639648  20.7689247  50.0685272  64.9691772  21.8327751  49.4856148
   5.8633075  13.8126001  80.4712067   6.6845198  13.3298092  80.5647736
   5.6595101  14.1125059  81.3570709   6.0181098   2.8902273  68.6732178
   6.4343743   2.5870135  69.4800720   6.0534658   3.8451066  68.7296753
  54.0704041  11.4507999  49.7781944  54.6459427  11.9902077  49.2359543
  53.2253952  11.8996143  49.7505684  43.7196465  36.5986176  81.3205643
  43.1916695  36.1690331  80.6475677  43.3047256  37.4526863  81.4415665
   8.6259480  50.4705429  13.9161863   7.7715592  50.7831764  14.2136965
   9.0313015  51.2348213  13.5065527  29.0939522   0.9692280  40.0289497
  29.4567127   1.6258810  39.4344368  28.2201481   0.7889369  39.6822624
  61.2766762  17.4953880  89.3189774  61.9970360  16.8908329  89.1405945
  61.0003014  17.8003006  88.4547577  30.5015049  50.2116699  34.9152679
  29.7593765  49.7513542  34.5233650  30.3426399  50.1632690  35.8579483
  58.0080338  39.1187820  50.5454369  58.6001396  39.1339149  51.2973785
  57.5780563  39.9738121  50.5619164  58.8511772  18.9729176  84.3425827
  58.4432564  18.7067566  83.5185699  58.1208687  19.2653999  84.8878632
   2.1042693  11.6143675  88.1691284   1.6321828  12.1452026  87.5275803
   1.6581452  11.7875929  88.9981003  77.5133667  58.7474403  78.4184418
  77.1931686  59.0333862  77.5629044  76.8893127  58.0767212  78.6957932
  62.0354805  63.7889862  16.5825520  61.8759956  62.8691559  16.3710938
  62.0299110  63.8192558  17.5392570  39.9751778  21.2248631   2.1608529
  39.3868217  21.8474274   1.7336737  39.5990257  20.3667374   1.9649954
  85.3344574  39.8824120   9.5080976  85.0754700  40.5434189   8.8660507
  84.5587997  39.7642212  10.0563793  81.2178421  63.4608345  51.0020828
  81.1040726  62.5978355  50.6039276  80.8622742  63.3657036  51.8856850
  51.7661057   9.1795082  40.8360863  51.2374954   9.9656992  40.9728584
  51.7772179   8.7468405  41.6898460  38.6702271  64.0618439  73.1101913
  37.7177429  63.9700089  73.1341324  38.9187393  63.7536316  72.2387161
  32.9726562  28.8555641  80.2157135  33.7611160  29.3830814  80.0880890
  32.3162842  29.4778252  80.5290833  77.1555786   1.7349963  86.3391418
  76.8105774   2.3317285  87.0033035  77.7932587   2.2590179  85.8543777
   5.0785422   0.4401253  26.3409348   4.1910281   0.4528173  25.9826202
   4.9620929   0.6122855  27.2752972  47.0511932  53.1089706  17.9278374
  46.7782097  52.6476021  17.1348362  46.6715126  52.5997467  18.6439114
  83.9020844  30.0412102  29.4730015  83.4593811  30.8837223  29.3709259
  83.6606979  29.5473175  28.6893978  43.9047165  16.7402115  70.6300583
  42.9839935  16.5773849  70.8349762  43.9044456  17.5862198  70.1822891
  35.7416763  38.9280663   9.2714767  35.1324234  39.6663208   9.2761364
  36.3165474  39.0872192  10.0200911  74.3845215  54.4847450  76.0496216
  73.7560806  54.2756233  76.7406845  74.0171127  54.0831680  75.2622375
   3.4492812  55.2707253  59.4879875   3.4445252  55.3122330  58.5317001
   4.3458099  55.4995041  59.7332001  37.3996162  59.7356567  78.1916962
  37.1267204  58.9056587  78.5826721  36.5806618  60.1628799  77.9406433
  57.4044609  15.8537331  55.4735184  56.8077049  15.7012691  54.7408066
  58.2498093  15.5265551  55.1659966  56.0375748  42.3625565  19.1693077
  55.3916245  42.7136993  18.5563831  56.8470116  42.3113327  18.6609554
  85.9319916  16.7301025  76.7539291  86.0322876  16.8894138  75.8154221
  86.1989212  17.5516949  77.1661987  81.9427643  20.8003731  54.5433006
  81.7145767  21.5305767  55.1185989  81.5789185  20.0295601  54.9788399
  19.8206100  24.1070995  78.1477890  18.8932858  24.0762444  78.3830490
  20.2077675  24.7137470  78.7789154  61.1814003  56.5409355  31.1929283
  62.0942497  56.8278656  31.1682205  61.2074699  55.6329918  30.8909531
  39.1457138  45.2101479  31.5631180  39.3647232  46.0726433  31.9157791
  38.9166985  44.6880875  32.3320389  30.2060223  35.0144997  73.2729263
  29.3141251  34.9469643  72.9320526  30.2811604  34.2888908  73.8926620
  46.6883469  37.3391609  71.4238968  47.1172600  37.4999313  70.5834122
  45.7977066  37.0761948  71.1918564  76.8808823  52.9721336  71.0928421
  77.3306198  53.8132820  71.0126190  77.1879120  52.6148911  71.9261169
  54.4739456  71.1216812  56.9657402  53.8344574  71.4885406  57.5762291
  54.0691681  71.2244415  56.1044464  32.8017960  34.2157440  86.3270721
  32.1328087  34.6190338  86.8802795  33.2577019  33.6066971  86.9079666
  38.4877625  55.1724854  24.7984924  39.1773911  55.7986908  25.0187359
  38.9480743  54.4490891  24.3730049  79.2717209  10.4194059  56.9368019
  79.3053513   9.4969835  57.1902542  79.1190567  10.8878689  57.7574539
  36.4872169  40.3989601  28.3959312  37.3166656  40.8710976  28.3229160
  36.7126122  39.4881363  28.2066364  51.2714424  67.8695450  77.8520966
  50.3936386  67.6201324  77.5631638  51.4117355  68.7363663  77.4710846
  61.7346458   2.5609198  64.1845474  61.6379204   2.4420085  63.2397003
  62.5876617   2.1773288  64.3881454  72.3949814  56.3329201  48.9536934
  72.9844971  56.4683723  49.6955528  72.9001770  56.6159401  48.1915245
  55.0679855  42.9606857  78.1643448  55.5155487  43.8063698  78.1916275
  55.2198906  42.5812798  79.0299149  21.7683315  50.4116325  46.8434944
  20.9496040  50.0197639  46.5396004  21.5932751  50.6581039  47.7517014
  52.2640343  57.6785393  53.5713120  52.8182297  57.0232391  53.1474228
  52.5756187  58.5151939  53.2261276   1.4766732  43.0738792  32.8379707
   2.1037731  43.2583046  33.5372314   1.9129301  42.4204559  32.2912102
  10.3017912   0.5332130  78.2470856   9.3489256   0.5767211  78.3269958
  10.4705429   0.6714770  77.3150787  19.3701878  44.1155243  29.0052280
  18.7859840  43.3674393  29.1289673  19.7958889  43.9503860  28.1639538
  15.5447855  62.3138008  72.6398239  15.8737230  61.4166489  72.6959763
  14.6636343  62.2695122  73.0111008  25.6067619  34.5050964   2.7999282
  25.7209473  35.0232315   2.0032275  26.3367310  33.8860092   2.7896883
  80.3505402   6.4403729  78.8183899  80.9757004   6.5845180  78.1080170
  80.4883423   7.1784043  79.4121475  19.2585564  46.5224304  49.7266808
  19.8764343  47.0795593  49.2533188  19.2037907  46.9127808  50.5989532
  16.9414291  42.1281395  33.7098961  17.8162098  42.1946716  33.3270607
  16.5954342  43.0198631  33.6731033   2.4479706  29.9883747   1.7200552
   2.9862938  30.0294151   2.5104702   1.9358331  29.1859627   1.8204651
  86.1903839  13.4149904   7.8569889  86.4756851  12.5760546   7.4950199
  86.4993210  13.4024734   8.7628756  12.3925095  51.9449539  34.0014610
  12.5368633  51.0517006  34.3136978  13.0973949  52.0953522  33.3715820
  23.7904110   3.8904486   4.6368909  23.2880154   3.1036475   4.8484893
  24.0446091   3.7733433   3.7215214  54.5364418  22.8843536  48.6217575
  54.1014709  22.2947235  48.0058289  54.7086868  23.6769943  48.1135406
  55.7107849  68.4274902   6.9722872  55.2770386  67.5742264   6.9666958
  55.4221077  68.8375778   7.7875938  21.0814857  40.5417023  76.7535324
  20.5878716  41.3616982  76.7400208  20.8772945  40.1532135  77.6041870
  49.9116058  34.2230606  81.3413391  49.5994225  33.3438797  81.5553741
  49.3350754  34.5168266  80.6359711  19.6618347   3.6565707  75.9262314
  19.9270420   3.4331999  75.0340424  19.6727219   4.6134868  75.9468536
  11.5584402  41.7206230  35.4555550  10.9170227  41.1359062  35.0519142
  11.7340832  41.3293152  36.3112793  86.6160355  58.6682358  53.5605240
  85.7902527  58.4129562  53.9717941  86.9631119  59.3569717  54.1274567
  62.2922935  43.4126892  24.4402771  61.9946175  42.6103363  24.0114937
  61.4933128  43.8092842  24.7875118  14.9689226  46.8352013  28.1132946
  14.4565287  46.8965797  27.3071213  14.9697762  45.9019547  28.3260803
  45.9927940  36.9598770  13.3668556  45.4452438  36.2365417  13.6721544
  45.6473961  37.1723213  12.4997911   7.9553728  68.3650360  15.9031658
   7.7530174  67.8697128  15.1094790   7.1576285  68.3106384  16.4293575
  79.2668991   2.1122415  38.1287193  78.4967270   2.5697386  37.7914314
  80.0033951   2.5063891  37.6613312  67.2390976  66.4094162  55.5242233
  66.3009338  66.5950470  55.5644760  67.5216522  66.7833481  54.6896172
  71.8780823  57.3478203  12.9751234  72.1224060  57.0696487  12.0924234
  72.6193924  57.8744240  13.2740850  81.8398590  60.9570427  63.9997482
  80.9478989  60.8666191  64.3351135  82.3950043  60.6145821  64.7002945
  58.1145744  23.6173668  56.6549187  57.5381699  22.9793568  57.0755577
  58.9723053  23.1927032  56.6411324  68.9754333  23.7493896  55.1255951
  68.5587692  22.8876724  55.1178856  69.1677094  23.9306984  54.2056007
  48.6079521  57.1449051  38.3393593  48.0608253  57.9057159  38.5344124
  48.0600204  56.5924568  37.7818680  75.6018906  18.8712749  11.1889029
  75.1339340  18.0676155  10.9622288  75.0228577  19.5757656  10.8979588
  72.8047333   0.3912422  65.6056137  73.3875198   0.7843323  64.9559402
  71.9419861   0.7533542  65.4036789  23.1980915  49.6760826  34.9227219
  23.0400333  50.5863686  35.1729698  23.1995850  49.6876106  33.9655914
  71.5919418   2.6491277  70.9765320  72.2887802   1.9939222  71.0133057
  71.8136520   3.1923866  70.2202606  35.5404434  22.4640293  43.7266159
  35.4341965  22.9035149  44.5702934  36.3531075  22.8229332  43.3702583
  51.5725403   7.8706045  80.7858810  52.1287498   8.6135998  81.0200272
  51.9359169   7.1347599  81.2785492   1.8775742  65.6298981  40.4900894
   1.7427026  65.1496124  41.3070145   1.3740603  66.4364395  40.6005020
  76.5016937  24.3540115  75.3519592  76.1270447  25.2165318  75.1732864
  77.4400330  24.4639130  75.1980667  62.5350571  41.2011795  69.6992493
  62.5748482  40.4787865  70.3259811  63.4417801  41.4964600  69.6162262
  56.8741760  35.2865791  13.6666374  56.0534897  35.0467453  13.2363081
  57.5562706  34.9344330  13.0948219  79.0848923  16.0239811  37.4106827
  78.6977081  15.8588219  36.5510063  79.9901886  16.2712173  37.2221413
   1.8714404  11.3772497  13.8432417   1.2811856  11.3240948  14.5949106
   1.2898759  11.4580355  13.0872736  16.6109028  54.0398293  24.7765694
  17.2078228  53.4824104  25.2757702  15.7708168  53.9553490  25.2275162
  27.4324493  15.8407869  70.0902328  28.3105011  16.1673431  70.2867432
  27.5747795  15.1367817  69.4575043  58.4073563   8.0468454  41.5217133
  58.7193565   8.1081066  40.6188660  58.5327644   7.1274257  41.7565956
  16.6292553  50.0360680  78.7892532  16.6532707  49.1838379  78.3541031
  16.4267578  50.6567802  78.0892868  50.6323280  32.3971443  52.1284676
  50.8517876  31.4663048  52.1685867  49.6810684  32.4146347  52.0234146
   7.0913305  65.8112640  77.4748306   6.6847115  66.2147827  76.7079773
   6.4233499  65.2158279  77.8146667  37.5968704  12.3801708  80.3907928
  38.5209808  12.5858278  80.2495346  37.4643860  12.5060797  81.3303833
   5.3872795  14.2785082  15.1740990   4.5109076  14.6203356  15.3511810
   5.9049587  14.5406713  15.9353552  85.8812103  68.4497528  31.7947216
  85.5898590  69.3588028  31.7242622  86.8031921  68.4731903  31.5385227
   1.0053834  11.0159874  26.9465027   1.3263403  11.5397301  27.6806087
   1.7517993  10.4714460  26.6963654  53.6538811  35.2275772  41.2845078
  52.7488480  35.1395874  40.9854965  54.1723785  34.7862434  40.6117363
  72.1022720  55.4490356  30.4960117  71.5688248  55.6405525  31.2673702
  71.4668121  55.3109627  29.7936153  65.6416931  29.2693577  16.3433666
  65.5858154  28.3330803  16.1523285  66.4329605  29.5595837  15.8896093
  11.3470297  36.9635696   9.6020508  11.6622496  37.3289452  10.4287138
  10.6620350  37.5689812   9.3183365  30.4547653   0.5245991   2.7704186
  30.1237469   0.6900702   1.8876511  31.0875835  -0.1850071   2.6598203
  69.5732040  23.3503666  22.6421356  70.3538055  22.9052887  22.9719925
  69.9133835  24.0992050  22.1524925   5.4054871  53.9080849  13.1148634
   4.7347679  54.2479553  13.7071943   4.9597425  53.8226471  12.2721033
  25.0338879   0.2931785  77.2736893  25.9844131   0.1857813  77.3082962
  24.8298531   0.3208619  76.3388977  12.0480070   1.6724858  57.7727623
  11.4910784   1.3731054  57.0541267  12.9283018   1.3865978  57.5286713
   0.8233626  50.9710579  23.8511772   0.7619534  50.6634712  22.9468269
   0.4539540  50.2581406  24.3722477  42.2373772  63.1480179  23.7726479
  42.6863747  62.4968681  24.3117523  42.0335846  62.6862297  22.9593506
  56.5299873  65.4261475  55.5812950  55.8039017  65.7850571  56.0914116
  56.1175079  64.8029099  54.9832458  27.8869648  70.3775101   2.5617623
  28.1559525  69.9934692   3.3962629  27.8611736  71.3196487   2.7289214
  50.4328613  29.1769333  63.7837029  51.1334229  28.9414215  64.3919601
  50.5732880  28.6098270  63.0254784  54.0707207  54.4284897  67.7644653
  53.9320869  53.7014084  67.1575317  54.9268227  54.2541389  68.1555176
   4.8520474  46.3971100  45.5050850   4.9607043  45.4462128  45.4901428
   5.3906283  46.6881866  46.2409096  58.1057129  55.9041786  24.7793045
  58.2752571  55.4908104  23.9327774  57.8173523  56.7901154  24.5597630
  32.8853607   9.6447325  73.6301575  32.6620636  10.5754118  73.6445084
  33.8140907   9.6176748  73.8602829  86.4340744  24.6771889  86.5513382
  86.4578552  25.5955696  86.8201141  87.3180771  24.3538036  86.7251358
  48.4565773  33.1156044  32.6668854  49.3703003  32.8636093  32.8004570
  48.0405312  32.3293991  32.3133049  79.1992569  39.5470085  66.3303299
  78.7083206  39.8353577  65.5608673  79.5430527  40.3548584  66.7116623
  43.9653969  24.7098503  80.5890503  43.7989883  24.6251526  79.6502380
  43.2062073  24.3010750  81.0046997  30.3326683  37.1562538   4.3030477
  30.2254562  37.9790459   4.7802811  29.9488335  37.3265228   3.4428666
  61.0432472   6.6758218  65.2825089  61.3151093   5.7920337  65.5299835
  60.5347137   6.9883318  66.0308151  50.8761749  48.3362465  32.8013802
  50.9843674  47.4416580  33.1242409  51.3915558  48.3639145  31.9952488
  24.9343300  31.7943020   4.6711192  24.9899940  32.0219955   3.7430632
  24.5313244  32.5593262   5.0816774  43.7006378  20.4523144  20.0382996
  43.2975464  20.9476452  19.3252792  44.2894516  19.8378811  19.6001186
  58.4612732  20.8030949  12.4066315  57.6897507  20.4156952  11.9932261
  58.8197441  21.3907509  11.7415066  77.2931213   9.2903891  79.0334320
  76.4942932   9.7447567  79.3011093  77.2460098   8.4426308  79.4753799
  35.4355049  14.3800039  86.0868912  34.6734390  14.2453699  85.5235519
  35.0934410  14.8580503  86.8423386   7.9110379   9.9900932  72.1825027
   8.7915287  10.1503134  71.8429489   7.6966257   9.1060715  71.8845673
  65.8743210  48.8858070  38.9544830  66.1133957  49.7940826  39.1391754
  66.0871658  48.4136772  39.7594795  11.4519005  62.1470451  63.6641846
  12.1633272  61.6282043  64.0395584  11.0451097  62.5758591  64.4170914
  74.0180359  68.2135773  71.4583817  73.6407013  67.7221756  72.1880188
  73.7491684  67.7283478  70.6783218  25.4337044  29.6773453  69.5639038
  25.8609962  28.8382282  69.7357635  25.5102520  29.7956352  68.6171341
  43.7040634   2.5946443  47.4901314  44.1511269   1.7740089  47.6973076
  44.1579399   3.2538347  48.0151978  19.0567093  19.9367542  68.4315567
  19.7296600  19.3512383  68.0843658  18.5406609  20.1891956  67.6659164
  33.5799370  41.3856201   1.2340028  34.5281715  41.4010544   1.1042367
  33.3719177  42.2520218   1.5837260   4.5254478  27.9316959  64.4417496
   3.8743553  28.6325302  64.4079514   5.1793060  28.1805153  63.7884560
   3.6055746  54.6032791  40.8121262   2.8148050  54.2105980  41.1818810
   3.3799474  54.7818527  39.8992004  32.6347504  44.8848305  81.7957153
  32.7592850  45.0844879  82.7235413  32.2166710  44.0237808  81.7900238
  80.5351410   7.9103103  57.8725929  80.6501083   7.3058848  57.1393204
  79.7927017   7.5553112  58.3614616  31.9957657  45.3895149  60.8607407
  31.7531643  44.4636192  60.8510284  31.2373371  45.8318481  61.2420006
  60.1077423  49.7866974  47.9319115  59.3688087  49.5103493  47.3898430
  60.8703117  49.6989937  47.3600502  83.6417389  20.1313515  46.5999947
  83.9003143  20.4452133  45.7334747  83.7508087  20.8908806  47.1722260
  54.1865501  66.5589752  87.3402023  53.8211861  66.2084503  88.1525269
  53.7467918  67.4011383  87.2235870  43.7932549  31.8476372  10.8178053
  43.0356636  31.3041782  10.6011391  43.5502434  32.2823563  11.6352396
  76.8262787   8.2396994  24.1488419  76.7039795   7.9751973  25.0606060
  76.1465912   8.8962841  23.9966984  55.4406776  48.7545509   0.6633166
  55.6789474  47.9301414   1.0873576  55.3399467  48.5279884  -0.2612131
  48.6608200  36.3081779  15.2811546  47.9110680  35.7131310  15.2860155
  49.3534813  35.8171043  14.8392267   7.4463463  29.8180008  57.6479683
   7.4006538  29.5807552  58.5741730   8.2067375  29.3408642  57.3157349
  27.5013618  24.3924274  88.8049164  27.7316456  25.1330070  88.2438965
  27.7112160  23.6199760  88.2800217  17.1891384  10.4749298  71.5886230
  16.9102573  10.0353584  72.3918915  16.3740501  10.7642241  71.1785431
  52.4917336  16.6474495  59.6646843  51.7270203  16.5910378  60.2376251
  52.1528549  17.0150223  58.8484230  76.5099335  38.7965927  21.7913704
  75.6390381  38.4815521  21.5494499  76.7952194  39.3139763  21.0382710
  39.5681229  57.9970741  52.8914490  40.0415268  58.6428833  53.4159012
  38.8954315  57.6563721  53.4810600  19.9318714  40.8571815  86.1948395
  19.9580860  40.5340500  85.2942123  18.9991131  40.9478378  86.3897171
  60.4243126   5.1778903  73.4433136  60.3720551   4.2543344  73.1972504
  59.6788673   5.5857220  73.0026093  62.6292496  54.8731689  58.4613113
  63.3801460  54.6835175  57.8988037  62.2313538  54.0182991  58.6259499
  39.4197769   4.4740028   2.0868566  38.9130135   4.5855165   2.8912122
  39.4181023   3.5294590   1.9317261  62.6945114   7.0072293  62.9912109
  61.9296188   6.9906907  63.5664482  63.1003304   6.1481609  63.1075821
  24.4658718  31.5136166  81.7893677  25.2465744  31.7153740  82.3051453
  23.7350273  31.6933632  82.3807983  59.8275032  28.5418396  55.3342857
  60.4403038  28.6185093  54.6029625  59.9848595  27.6663589  55.6878433
  35.7327499  58.1088562  56.4736862  36.1697388  57.2594070  56.5345879
  35.8100662  58.4814911  57.3519783  83.0117416  56.8603706  50.2330818
  82.1190414  56.7635689  50.5646744  83.3202286  57.6832733  50.6124229
  59.4484177  18.6557407  69.7213516  60.1072845  18.8005047  70.4004440
  58.9016953  19.4410305  69.7467880  41.4586563   5.8295975  63.1567726
  41.5440521   5.0287046  62.6395607  42.3246269   5.9582634  63.5437775
  64.4995422  38.9341125   1.3996875  64.6400146  39.5900345   0.7168524
  64.4733810  39.4373779   2.2134869  83.9971313  52.9232101  36.6181870
  84.9300690  53.1042328  36.7326088  83.6059952  53.7801132  36.4479828
  71.2702789   3.1495416  56.2366180  72.1865921   2.9737589  56.4504051
  70.9875107   2.3796225  55.7431641  23.2810307  65.2937241  85.2104340
  23.9341583  64.7847443  84.7302246  22.4736538  65.1815491  84.7086411
  79.3191147   4.8564525  36.9505234  78.7537994   5.5858331  36.6962509
  79.5979156   5.0687470  37.8412704  13.6297140  36.3112602  63.5099144
  14.0884953  35.4863815  63.6690521  13.9236403  36.5850563  62.6410789
  82.1338043  28.9337254  72.6404877  81.4187927  28.9350204  73.2768784
  82.5581818  29.7839890  72.7553177  45.9316978   5.0074353   3.6235406
  45.1474609   5.3918881   4.0152020  46.0090752   5.4368787   2.7715881
  13.6507683   8.6483707   6.6475329  12.8970633   8.7368708   6.0641561
  14.2512932   9.3399954   6.3695831  50.2755890  26.7915115  61.8671150
  51.0684700  26.7261868  61.3348503  50.2447052  25.9673691  62.3529816
  41.2633324  63.3891106   2.8810966  41.7339363  64.2039795   2.7057149
  40.3810844  63.6696396   3.1243551  43.3230591  28.5931816  45.8038483
  43.8343353  27.8133202  46.0198135  42.4394913  28.2628689  45.6412659
  32.2307434  37.0809555  60.2313919  31.7680817  37.7015572  59.6683388
  32.6280708  36.4567871  59.6241226  11.2302780  19.4480610  66.2919235
  11.6228485  19.7962227  65.4913559  11.1760950  18.5043392  66.1413040
   1.5576993  62.7495880  63.5442123   0.7187945  62.3614998  63.2954979
   1.3217874  63.5524826  64.0089035  10.9552670   2.4849854  51.2197342
  10.0247374   2.2609611  51.2071075  11.3324385   1.9044507  51.8807602
  21.0573654  49.1299210  41.2677612  21.8991318  49.5693016  41.1469154
  20.5804577  49.2982788  40.4550858  30.9982529  63.3072243  64.6083984
  30.8595009  64.1715775  64.9955292  30.2268829  62.8025970  64.8664093
   9.0516529  37.9603920  70.2180710   9.2484894  37.3393822  70.9193802
   8.7514219  37.4140854  69.4916763  66.4919891  25.2779503  47.9593468
  66.2046509  25.2980957  47.0465126  65.7368927  25.5945282  48.4551659
  79.8928299  39.7574081  72.5986481  79.0398254  39.3376465  72.7100601
  80.2942963  39.2928467  71.8643112   9.0877151  49.4439278  53.7002029
   9.8943558  49.0423393  53.3772697   8.4258699  48.7583961  53.6094551
  15.1077967  16.8381195   1.7126797  14.5493555  16.5162773   2.4203460
  14.4949226  17.1545448   1.0489833  82.5126572  28.0695381  38.2286377
  81.8168182  28.6199894  37.8694191  82.6337738  27.3800964  37.5757713
  60.1458092  54.1962357  85.1021423  60.0280304  54.5509567  85.9833527
  60.8394623  53.5435486  85.1974182   7.8115764  60.6861191  43.8868980
   8.2775564  60.2709427  44.6126556   8.0752363  61.6053886  43.9275970
  82.1752625  54.0675545   4.7689357  82.6914902  53.8826790   3.9843562
  81.3794785  54.4849510   4.4391899  72.4336472   8.7294807  46.3709641
  71.5456314   9.0392904  46.1929436  72.3727570   8.3073750  47.2279053
  53.8258705  62.5223007  13.0766716  53.3234138  62.7666779  12.2994642
  53.8778305  63.3277130  13.5913019   1.8262664  52.5070610  85.4867096
   2.2354701  51.7168808  85.8394165   1.4031712  52.9152641  86.2420883
  69.1306763  14.4408035  88.6800919  68.5761566  15.2210150  88.6766434
  68.6137238  13.7815943  89.1431580  42.5800705   9.4302206   6.8748164
  42.0979805   8.8017616   6.3373575  43.0862999   9.9445000   6.2459469
   3.1067421  66.6809540  20.4460850   2.2451801  67.0558624  20.2633667
   3.0207329  66.2970734  21.3187084  19.3948669  35.7156944  43.4030113
  18.5018234  35.4118347  43.5654297  19.7348366  35.9347420  44.2705765
   2.1812477  36.0724831  59.4168663   1.4009174  35.5699577  59.1828079
   2.5702121  36.3159676  58.5768356  45.3326607  62.1881561  86.3265991
  45.4887352  62.6764183  87.1349792  45.2368393  61.2790871  86.6105728
   0.9845095  10.0183764  19.0169487   0.6454970   9.1401205  18.8438339
   1.7332909   9.8762360  19.5960464  14.0253077  41.5135765  79.8869171
  13.5363054  42.3193512  79.7200699  13.8396931  40.9594345  79.1288223
  52.5957794  52.7525826  81.4163589  52.3556786  51.9088936  81.7994614
  51.8086929  53.0374908  80.9520798  22.6421642  62.3698120  55.2439117
  21.9639263  61.7530136  54.9686203  22.2551517  63.2328072  55.0966148
  36.4586792  32.3633995  75.1920013  36.1078377  32.9081841  74.4874802
  37.0477791  32.9443779  75.6733017  84.3978271  45.4333305  31.3548851
  83.7109604  45.4622536  32.0209236  85.1521988  45.8509598  31.7705021
  53.5712929  64.8963089  47.2292099  53.5376892  63.9718170  46.9834099
  53.3173447  64.9081726  48.1520309  69.9305267  53.6736412  32.1505203
  69.4406662  54.4870987  32.0298920  69.3016815  53.0722694  32.5494308
   1.5896696  60.4593353  59.8432388   1.5833629  60.0018501  60.6840096
   1.6836863  59.7635345  59.1926613  66.9684067  46.6532402  59.8593102
  66.2691574  46.4359398  60.4757996  66.6837540  46.2702065  59.0295563
  20.7629585  45.4051895  37.6993484  20.9748268  44.6949768  37.0935898
  20.4228516  46.1035767  37.1400490  11.3644142  22.5944633  50.4308510
  10.7232475  23.0047588  51.0111923  12.0380859  22.2550220  51.0200691
  85.2681961  39.4009819  24.3267574  85.7898712  39.0673981  25.0566921
  85.0693665  38.6263657  23.8007698  43.2767029  37.6797676  36.6803246
  43.4655685  37.0202141  37.3478203  43.7388000  38.4627304  36.9797630
  14.6918697  32.9095726  63.4278717  15.5549622  32.9282455  63.0144043
  14.8069019  33.3956108  64.2444305  29.0787048  64.0797882  78.8828964
  29.7362652  64.6345367  78.4632645  28.4988537  63.8139725  78.1692123
  77.0981445  21.1116047  34.6687241  77.1704483  20.2691460  35.1173477
  77.8092422  21.6387482  35.0329895  69.3318787   2.6074178   9.2219524
  69.8202744   2.7220404  10.0371628  68.7598572   3.3735013   9.1757050
  47.5496750  20.1849480  32.1078568  48.0571175  20.3016319  32.9110489
  47.5185356  19.2368584  31.9798279  68.7279739  48.7078171  88.2970276
  69.2771912  48.9535637  87.5525818  68.4597931  47.8081589  88.1101532
   2.5132761  42.5071373  10.3192091   2.8878882  41.6265182  10.3392963
   2.7559958  42.8899612  11.1622782  87.0824051  22.7348461  79.6254883
  86.7654800  23.3418026  80.2943573  86.3953552  22.7328320  78.9590149
  29.2945595  28.5638580   1.6321200  28.5637169  29.1140785   1.9138278
  29.1283779  27.7157593   2.0436351  73.6762848   6.8637915  15.1401052
  74.1167679   7.3180170  14.4218550  72.9721603   7.4567537  15.4024696
  25.4370937  69.0242996  40.1586113  24.8281803  68.5088654  39.6296616
  24.9916077  69.1331482  40.9988060  78.3495255  63.0551071  52.2994537
  77.9107132  63.4803543  53.0362358  77.6474991  62.8747864  51.6742554
  19.1827469   4.1956334  51.9528694  19.3822060   3.2765844  52.1311913
  18.2799435   4.1874595  51.6348953  56.9900932  33.6410141   9.8316431
  57.7483063  34.2180519   9.7401600  57.3285294  32.8716164  10.2895956
  28.4454670  30.8851204  73.9687653  27.7956562  30.9776878  74.6654739
  27.9332447  30.8979912  73.1602554  26.3897018  54.6745567  11.0114851
  26.3292866  53.7485008  11.2460136  25.5146790  54.8990555  10.6949911
  83.3490067  45.1626625   8.9771328  83.9028854  44.5741043   9.4900217
  82.4789505  45.0720444   9.3657360  15.1831942   4.0944476  71.1609039
  15.7961464   3.4491754  70.8085632  15.5904627   4.3924947  71.9742508
  34.8783150  55.5841408  83.1984406  35.7669716  55.4424171  83.5246811
  34.4258575  54.7581215  83.3693314  33.2958183  67.8789597  26.9038544
  32.5345154  68.1426163  26.3870029  33.0387268  68.0449905  27.8108101
  59.0046082  52.1692772  52.2075691  59.7397270  51.6114960  52.4619637
  58.6997604  51.8004303  51.3785629  48.6445312   6.0760670  64.3422775
  47.7651291   5.9703131  64.7051773  49.1479111   6.4812751  65.0484238
  78.0388412  34.5914955  16.8888378  77.5126266  35.3902168  16.8517284
  78.7954941  34.7771263  16.3327408  59.0587578  51.9625359  83.1259384
  59.6648178  52.6627121  82.8837051  59.6066971  51.3134727  83.5671997
  20.1407833  14.4587383  68.2443008  20.4078388  14.6379795  69.1458511
  19.5166130  13.7368307  68.3184280  16.8063927   4.9523416  63.3888626
  16.2736454   4.3064232  62.9249649  17.7031803   4.7684307  63.1092567
  16.5493183  64.7296600  12.0128021  16.8221111  63.8553543  12.2910128
  16.1363144  65.1097488  12.7881689  81.4934845  19.7014961  15.8830891
  82.3136673  19.2102928  15.9305782  81.4997940  20.0943794  15.0102577
  49.5856476  65.7933044  61.7785645  49.5212479  65.8713913  60.8267288
  49.8613014  64.8886795  61.9265594  16.3345852   1.9589698  15.9873686
  16.3061333   2.3384068  16.8656902  17.2435703   1.6803966  15.8761358
  32.8662300  49.8657761  12.5996304  32.3149490  49.0837173  12.6262169
  33.4283943  49.7366867  11.8357334  67.4350433  52.3979454  32.6231995
  66.5724716  52.2696571  33.0178413  67.4186707  51.8600235  31.8316135
  32.1976776  46.9770317  86.4452667  31.4676380  46.4158096  86.1839142
  31.8421268  47.8649979  86.4088440  83.1998444  60.9151573  81.8177719
  84.0315170  61.0211296  82.2796402  82.5499802  61.3058853  82.4019394
  74.7564468  69.9225998  83.3274231  75.0813370  70.0520706  82.4364014
  74.9956284  70.7264709  83.7887421  45.7334824  31.6699696  26.9920254
  45.6114540  30.7308121  26.8530083  46.3352814  31.9386444  26.2978458
  47.0654488  44.5546379  46.7409668  46.1487236  44.6816216  46.9853554
  47.5262718  44.4696426  47.5756226  66.2212906  13.8796415  78.2652740
  66.5656433  13.4976282  79.0725632  66.9995270  14.0954218  77.7514420
  76.1783524  11.1057158   2.6395593  77.1004410  10.8792248   2.7607720
  75.7060699  10.2937651   2.8237264   8.8112154  67.1915436  82.2369995
   8.1846771  67.0790253  82.9518585   8.4634380  67.9228210  81.7265854
  86.3097000  63.1778450  27.0033054  86.6085281  63.2985954  27.9046135
  86.4678802  64.0232773  26.5832367  82.1196518  51.2536583  37.7269440
  82.2769699  50.5933762  38.4018555  82.9762192  51.6548576  37.5800934
  57.9041939  24.5164070  63.7618523  57.3806114  23.9483871  63.1966591
  58.3352890  25.1223412  63.1591644  61.0398254  46.6597900  46.9206581
  60.5916634  46.7497635  47.7616615  61.7994995  46.1096802  47.1117325
  74.0145340  26.6628304  19.2639179  74.6763840  26.4679947  18.6004257
  74.2739944  26.1392174  20.0220356   1.7380185  36.9671860  80.8634567
   2.2481632  36.6109962  81.5908585   2.2633755  37.6980209  80.5377045
  39.0032425  41.1011314  30.3791199  39.2302818  40.6307030  31.1812325
  39.4823570  40.6426964  29.6888180  37.2264290  66.8404083  11.5553389
  36.9202576  67.1590881  10.7062597  37.0717621  67.5702515  12.1550455
  32.2053642  56.1961098  49.8579102  31.4341469  56.3568192  49.3141937
  32.2892532  55.2428207  49.8788071   5.6865511  59.4783783  42.8090439
   6.5345774  59.8273964  43.0833969   5.2062316  60.2413406  42.4874649
  78.4861145  34.4428787  79.1415558  78.5444717  33.4911766  79.0573578
  77.5753326  34.6062584  79.3865280  22.3336544  12.1448994  84.3423920
  22.3236942  11.2039223  84.5175934  22.9146214  12.2419100  83.5878754
  43.6761971  61.5477448   4.8237705  42.9142799  61.4599762   4.2510457
  43.3382301  61.3683395   5.7011681   6.4250464  36.1933861  58.2741737
   6.4744382  37.1493034  58.2779503   5.7757525  35.9844475  58.9457359
   4.8231802  33.7200432   1.3707699   5.6138887  33.2603073   1.0885392
   4.7143011  33.4684525   2.2878735   9.9233332  37.0890465  54.8533783
  10.6644478  36.6629448  54.4227791   9.9645777  36.7831802  55.7594566
  16.9811153  27.2939968   7.4163184  17.1099625  28.0429726   7.9982691
  17.8476601  27.1268234   7.0456624  79.4472656  46.8569031  81.4868164
  78.8502960  47.3338776  82.0633240  79.7472992  47.5126114  80.8573227
  45.3892708  45.7744217  57.5914917  46.1859322  45.7376976  57.0621376
  45.1170540  44.8608589  57.6782875  41.7111320  66.4342499  33.5731277
  41.4669342  65.8898163  32.8246689  41.1401596  67.1998138  33.5088501
  62.3375740  66.0915604  55.1621361  62.4201241  67.0022812  54.8792953
  62.1312981  65.6097641  54.3611641   6.8239684   4.1726379  16.3946877
   6.7408557   4.7794323  15.6590748   7.2100196   4.6976476  17.0958004
  52.7681923   8.2507200  50.4271126  53.2071609   8.5049047  51.2388573
  52.8622627   9.0125399  49.8552628  14.4929934  67.3360748   5.5026932
  15.2484446  67.8627014   5.2415600  13.7395029  67.8016815   5.1397910
  52.7611771  67.4829102  21.0387077  52.2585907  66.6921692  20.8428249
  53.5590057  67.1616669  21.4588394  16.1836987  23.5458279  87.2765198
  16.1782837  23.4397087  86.3252335  15.2893219  23.3367062  87.5459442
  60.3949852  10.9293346  72.2605515  61.1641769  11.0847454  71.7124329
  60.6380959  10.1829948  72.8083649   8.6682339  42.0973740  47.8248482
   9.5957527  42.2452812  48.0094109   8.2433062  42.1432953  48.6813278
  67.3882217  64.8570557  16.5951405  67.9001007  64.1249619  16.2512684
  66.7637177  65.0606079  15.8988657  17.3367348  48.7563477  42.4899979
  18.0075855  49.4132385  42.6762390  17.8292675  47.9791031  42.2263031
  33.1688690  40.0482635   3.6610603  32.3431816  39.5952911   3.8322146
  33.1148453  40.3050385   2.7405286  63.0595894  53.2980461  32.3924294
  62.3040657  53.3175850  31.8050308  63.2793198  54.2193604  32.5307503
  43.3959732  43.7548256  35.2414474  42.5592117  43.6841888  35.7008743
  43.2188568  44.3474960  34.5109673  78.4359055  26.0679436  68.9920959
  77.5045624  26.1574345  69.1941223  78.4886169  26.1936245  68.0446472
  11.6124296   0.5337271  53.1293335  11.6428461  -0.3741880  52.8276787
  11.3461494   0.4725191  54.0467110  73.1290512  45.7846451  34.5358658
  72.4902420  45.5592079  33.8596001  73.6874084  45.0102997  34.6055794
  43.9364700  51.5993042  84.3736267  44.5140457  52.3238258  84.6138458
  43.0578918  51.9114532  84.5901794   6.3551998  38.4000664  66.6058578
   5.5289302  38.4601822  67.0853348   6.1054363  38.4891663  65.6861267
  50.4079056  11.7118587  40.7263374  49.5768776  11.7966909  40.2589798
  50.3339577  12.3230247  41.4593048  34.7805367  48.2315788  70.5663300
  34.8822174  48.1146622  71.5109100  33.8798065  47.9617195  70.3871841
  74.2630234  62.7273903  14.6260548  75.1068268  62.4635620  14.9929571
  74.3665390  63.6592293  14.4331913  65.5719681   7.4028635  65.1140289
  65.4431458   8.1891623  65.6444778  66.2479095   7.6482306  64.4822617
  73.6808319  12.8584280  33.5215034  73.4391708  11.9404621  33.6446686
  74.6227722  12.8375330  33.3525581  86.2333908  70.2520676  37.2202950
  86.6564331  70.2050476  36.3629456  86.8830338  69.8981018  37.8276711
  73.1222305  14.2771788  76.4656525  74.0078583  13.9143591  76.4496078
  73.2355957  15.1964550  76.2241745  27.4216061   8.2615871  80.7913132
  28.2850056   8.5156441  81.1172409  27.3896255   8.6105900  79.9005814
  50.8220673  22.1026402  44.8842735  50.4451218  21.5884857  44.1702766
  51.7348251  22.2349968  44.6281776  28.0173225  62.6462517  36.7072983
  27.6523418  62.4525299  35.8438797  27.3935509  62.2612801  37.3228760
  14.8494015  13.0240211   9.3301992  15.7829866  13.1328964   9.1491013
  14.7705908  13.1637297  10.2738638  22.8797302  36.4662743  20.2038193
  22.1218395  36.1804466  20.7138538  22.8783360  37.4198799  20.2866535
  67.0178223  22.8747101  58.6762161  67.2025909  21.9379406  58.6087189
  67.8646927  23.2968788  58.5319214  73.2141418  19.3117008  52.1216850
  72.5029984  19.4970150  52.7350121  73.7308731  20.1172371  52.1036415
  40.4970627  39.2065468   6.4372153  41.0877228  38.4814796   6.6412573
  39.8778496  39.2236671   7.1669497  68.0460892  18.7537289  20.7866592
  68.4746552  18.3919964  21.5623589  67.1485062  18.4245167  20.8334923
  18.6171131   7.0738020  11.4887295  19.3991451   7.2264667  10.9583044
  18.1129208   7.8836989  11.4106970  32.6702423  41.9575500  63.1961250
  33.0980301  41.1704025  62.8590393  31.9146023  42.0838737  62.6222954
  44.2315369  11.3983164  63.4780731  44.6149521  12.2402067  63.2322159
  43.3392487  11.6120186  63.7508202  77.0491180  47.0081367  30.1140404
  77.3888550  46.4794617  29.3920193  77.2795639  47.9075851  29.8814068
   0.5379708  68.1495056  79.4167786   0.1523502  68.9757996  79.1256332
   0.7009622  68.2773895  80.3512878  12.0633049  40.5981560   9.4717407
  11.8508949  40.0776711  10.2464733  11.4509048  40.2925110   8.8025770
  38.8103790  19.4359989  65.8030853  38.2226982  19.8634129  65.1800385
  38.3102570  19.4005318  66.6184616  40.8238907  44.4132576  42.1030426
  41.1126213  44.8585205  42.8996620  39.8748970  44.5376244  42.0896912
  70.8821945  65.2276154  29.0629482  70.8143692  65.1990967  30.0173168
  70.0217667  65.5282822  28.7705650  53.4193497  23.4689484  86.8510208
  52.6501122  22.9868774  87.1545181  53.0701828  24.3015995  86.5332031
  24.4375515  42.4037857  62.7126083  24.1637020  41.6317482  62.2174339
  23.7761936  43.0653877  62.5098305   2.6826036   6.0640101  58.5810204
   1.8596265   5.5828667  58.6672821   2.8199179   6.4599252  59.4416161
  85.6881714  33.5626602  31.5166759  85.8764801  32.8165970  32.0860214
  86.1888657  34.2852783  31.8953114  27.4228268  44.3018379  86.5085068
  26.9135323  44.5497894  85.7369080  27.7025585  45.1346092  86.8886032
  85.5809631  15.3375025  52.2530518  85.7201767  15.0580406  51.3482018
  86.2478943  16.0077610  52.4020233  39.6530151  47.9825401  13.9608898
  39.2383919  48.4393768  13.2290268  39.5254440  47.0539513  13.7667837
  39.1524582  24.7136688  53.7260818  38.9485397  25.6488285  53.7148323
  38.4490471  24.3090229  53.2184334  12.4604130  65.7390213  27.3513069
  11.9979353  64.9061966  27.2577152  12.4484053  66.1196594  26.4731274
  44.6058731  19.5881042  75.0594940  45.0710564  20.2122631  74.5024872
  45.2994003  19.1005497  75.5039520   3.2902508  43.3295670  73.1566391
   2.4896989  43.4556160  72.6472702   3.9591341  43.8174248  72.6762085
  21.4298840   5.4984674  17.5626698  22.1810760   5.5601845  16.9726410
  21.6300087   6.1113992  18.2701283  46.4734306  58.2800026  55.6173744
  46.6877937  58.6700478  54.7699394  47.1168442  57.5800705  55.7285118
  34.2367363  50.6735954  43.5372047  34.7202644  51.3043633  44.0706482
  33.8148155  50.0957909  44.1730919  60.4908371   8.7228804  43.1493874
  59.7571907   8.4440155  42.6014557  60.0880280   8.9679451  43.9824066
  36.0414658  45.8743019  16.2304459  36.3068542  45.3259239  16.9687424
  36.7461777  46.5162010  16.1433830  73.0894699  51.4756775  30.1959782
  73.9394455  51.1818161  29.8682423  72.8896332  52.2554550  29.6780548
  69.3481598   3.4184248  61.3644180  68.9039307   2.8850842  60.7052956
  69.9496155   2.8124712  61.7972031  57.2188034   2.6865869  34.6453972
  57.7990913   3.4449930  34.7110825  57.7559433   2.0088420  34.2350616
  39.6759987  21.6635704  53.0906525  40.5295830  21.2327576  53.0456200
  39.8231926  22.5275860  52.7058907  55.0016785  47.9734535  87.2459641
  55.3785973  47.1192780  87.0348969  54.2219162  48.0341263  86.6941299
  65.5766678  58.2787971  47.0470619  64.6596069  58.0045815  47.0537300
  65.8421707  58.2492752  47.9662285  71.2269440  42.3538132  55.0989990
  70.6229324  42.1428833  55.8109703  70.6657715  42.4508095  54.3296432
  11.7209272  64.2706299   5.0769625  12.3638744  64.7392502   4.5447531
  12.2358437  63.6257515   5.5619602  27.9287891  64.9442291  24.3855915
  28.3261623  65.5584412  23.7682877  27.3614902  65.4876404  24.9324951
   5.7513485  63.5837746   5.1025667   6.3970990  62.9799652   5.4695201
   5.5621791  63.2323990   4.2325191  34.4891434  41.5967445  70.3403625
  35.3573570  41.4969826  70.7308655  33.9392662  40.9748726  70.8169632
  26.2961731  54.9678993  23.0879536  26.0006466  55.0477371  23.9948845
  27.1680527  54.5783424  23.1535645  47.8598862  58.5957298  41.3823509
  47.6242828  58.8073578  40.4790573  48.6796112  59.0665741  41.5326614
  54.3184738  56.4477081  43.5442543  55.2399330  56.6895752  43.4512825
  54.2567253  56.0727959  44.4228096   7.8714418   4.1761699   7.1070867
   7.1748762   3.9950421   7.7381339   8.6544237   3.7866640   7.4962611
  56.2492599  40.7564468  65.1745377  56.6609879  40.4472008  65.9814301
  55.3609085  40.9982986  65.4363937  75.1003113  70.3627625  18.8903522
  74.9488831  69.4404907  19.0970478  75.1479340  70.7946701  19.7432384
  18.7274952  43.8770828  45.6012421  18.5198002  42.9431152  45.6295280
  18.3691349  44.2269478  46.4169655   6.6890969  38.5612526  81.9652557
   6.7440705  37.6238441  82.1509323   6.3742738  38.6085548  81.0625458
  17.5197792  19.4658871  88.2969055  17.8067684  18.5627575  88.1618958
  18.0939198  19.9861984  87.7348785  63.7511559  28.9465618  18.6823959
  62.8338623  28.7199993  18.5291843  64.0887070  29.1771183  17.8168697
   9.9163542  68.8571548  67.0048752  10.4868565  68.0893936  66.9688034
  10.4059429  69.5410309  66.5478897  78.2908249  13.1200590  30.7786350
  78.5435486  14.0370188  30.8860855  77.4888458  13.0307398  31.2935066
  48.3397751  23.7440929  10.5881109  48.6092262  23.0977554  11.2407036
  49.1470642  23.9677181  10.1249619  10.5380735  62.9393997   8.3883934
  10.7245512  62.4081459   9.1624928  11.3809891  63.0152130   7.9412045
  77.2553253  12.4930716  61.6827850  76.8165894  12.3043451  62.5123177
  76.7522812  12.0066204  61.0296822  40.6935120  66.2562790  21.2820549
  39.9130211  65.7429428  21.4907513  40.7401695  66.9140320  21.9758930
   3.7522235   2.4381938   2.1723895   4.1012888   3.0810349   1.5550237
   3.7131035   2.9046495   3.0073271  74.9858704   0.5513572   1.6435264
  74.9082489   1.4624220   1.3603883  75.2529449   0.0776632   0.8557955
  27.4830303  52.4510536  49.9050026  27.7802963  52.0578156  50.7255096
  27.9310284  53.2961464  49.8683052  86.8217926   3.7096190  54.0752907
  86.9994278   3.1458604  54.8281860  85.9919205   3.3863516  53.7245255
   8.7100372  37.0917969  26.7784252   7.8615203  37.2378235  26.3601818
   9.3321486  37.5722809  26.2322140  78.5731964  30.8960571  20.6579876
  77.6678238  30.6855526  20.8865070  78.4995422  31.5850754  19.9976387
  63.6605492  67.1528320  76.3048782  63.3647270  67.0309296  75.4027328
  64.3342285  67.8303223  76.2465515   0.4237170   1.3936977  16.1500130
   0.6569028   2.2158992  15.7189207   0.9875219   0.7389737  15.7380762
  55.6852570  44.2221375  47.1442947  56.0224266  43.8052483  46.3513603
  56.4496613  44.6439857  47.5366745  29.6463146  60.2949104  16.5333576
  28.9801617  59.9909668  15.9168406  30.2117023  59.5345650  16.6691647
  64.4845200  19.5205135  56.7277184  64.0940247  19.5200787  57.6016464
  64.4088974  20.4277573  56.4320488  77.3438263  26.1134834  61.1697845
  77.1424713  25.8370953  60.2757530  76.9622345  25.4318066  61.7229004
  20.1449451  26.1801834  72.1598129  20.6788368  26.7326221  72.7307816
  19.3150539  26.6503372  72.0793915  83.0044022   5.6039023  68.4174728
  83.4523163   4.8424115  68.0490494  83.5923386   6.3376293  68.2380066
  86.9245834  31.2132072  64.5446548  86.8919067  31.0870037  63.5963783
  86.1921387  30.6964664  64.8804321  70.7179337   9.7584715  35.8497581
  69.8928146   9.2979212  36.0024223  71.1636505   9.7384424  36.6966133
  19.4324989  39.8921165  65.5363693  19.1332989  40.0562325  66.4306717
  19.5589714  40.7640800  65.1623077  54.3156281  24.2861404  33.9237938
  54.0306587  24.4805450  33.0309143  54.1293678  25.0867195  34.4143143
  -0.0356232  14.1578913  35.9852295   0.8986825  14.3643274  36.0114746
  -0.3321259  14.4966574  35.1405067  73.4298935   1.3521315  56.9362526
  73.6197662   0.5175300  56.5077438  74.2905579   1.7165703  57.1428223
  57.6550980  26.1456909  31.5793705  58.2915421  25.4312916  31.5510578
  57.2003670  26.0948105  30.7386189  63.8530006  62.1412239  56.5574417
  63.3978081  61.5666008  55.9419441  63.2692604  62.1918678  57.3143501
  31.6035061  41.5684280  49.2992172  30.7164249  41.8043900  49.5705833
  31.4781818  40.8976631  48.6279488   1.4614094  32.5705605  37.1630974
   1.4935507  31.6774197  37.5058784   2.1317587  33.0414085  37.6582413
  12.2676582  49.2657089  62.8914185  11.3470993  49.0847855  62.7014961
  12.4988890  49.9798431  62.2974663  69.9428329  35.8802032  36.4405403
  69.1663742  36.2919273  36.8197899  69.8974762  36.0958595  35.5090523
  17.9071789  28.1581421  25.4943886  17.7876244  28.7830734  26.2095089
  18.1033344  27.3292046  25.9309883  33.5615730  56.1225510  52.1696320
  34.0198555  56.9379387  52.3729706  33.0327034  56.3306961  51.3994331
   6.3513851  -0.1745250  57.7363930   5.9684958   0.6278687  57.3817215
   7.2620201   0.0557417  57.9206581  40.4580078  69.7223434  79.2925491
  41.1083527  70.2468033  79.7597046  40.0075645  70.3485718  78.7258301
  79.0713272  19.4183826  80.5878906  79.5192642  19.5080013  79.7467270
  79.0889435  18.4787750  80.7697144  42.4605865  64.9698868  74.3497314
  43.0223389  65.4810791  74.9322662  42.1148949  65.6100845  73.7277374
  29.1614571  54.7898293  50.0960846  30.0912800  54.6194382  49.9456558
  29.1270332  55.1740913  50.9720917  29.2511311  28.6926441  20.1581192
  28.7212448  28.5901031  20.9486504  29.4579868  29.6267376  20.1279278
  23.9445343  62.5716515   1.6750942  24.2300911  62.6610489   0.7658656
  23.1285324  63.0700111   1.7199649  44.3661995  40.1742401  29.7122002
  44.9208298  39.5216942  30.1397552  43.5187874  40.0919342  30.1496410
  72.6551056  35.5620346  23.3731823  73.4864807  35.1176186  23.2072105
  72.8922348  36.3242073  23.9014759  72.5476761  15.2589083  33.6947670
  73.0280914  14.4321470  33.7383575  71.7575989  15.1044064  34.2125816
  22.6533928  28.7316265   2.9277778  22.4344921  28.3282604   2.0877719
  23.0855331  28.0353527   3.4224381  48.6609955  56.0640907  50.4370384
  48.6235046  55.1631126  50.7580757  49.1313057  56.5423088  51.1199341
   9.7859468  35.1489716   1.4423803   9.6709814  35.9318199   1.9810467
  10.2454071  34.5317917   2.0117838  70.9709473  23.4122772  18.2558270
  70.0842056  23.4603939  17.8986015  71.5280457  23.2548771  17.4935265
  79.1544113  47.6962814  34.5544205  78.8113327  46.9131393  34.9847870
  79.5463104  48.2067337  35.2630005  64.1349030  61.7034645  39.9501495
  63.1975937  61.8673210  39.8460503  64.3998642  61.2960739  39.1254959
  38.5089912  57.9396095  23.5573864  38.5103645  57.5958099  24.4507122
  37.6028862  57.8421249  23.2646275  84.9046173  32.0156898  75.6376190
  84.7732086  32.0730858  76.5840225  85.6152725  32.6308899  75.4567413
  66.3492355  23.7548428  73.2083130  67.2526016  23.9739590  72.9799500
  66.1711426  24.2657375  73.9979324  17.6870708  15.9835577  73.6002960
  17.3952770  16.1341228  74.4994202  16.9027786  16.1179886  73.0682755
  24.5931511  44.8726578  57.8338242  25.4722195  44.7074356  57.4929848
  24.6424637  44.6204758  58.7558899  48.9781189  25.5058479  77.9849167
  48.8699875  26.3626461  78.3977585  49.0463181  25.6975536  77.0495911
  64.6436691   8.8570137  18.2878990  65.3387756   8.4513712  18.8060837
  63.8731689   8.3138571  18.4538441  55.6157341  26.3679466  21.4928474
  56.1834297  27.0813656  21.7843723  54.7958603  26.7981911  21.2500992
  12.9307079  69.5279846   4.5976977  13.3226118  70.3995895   4.5434208
  12.6762571  69.3233261   3.6979184  69.3548737  17.0342865   2.7005541
  68.4143295  17.2107296   2.6786776  69.4330063  16.1183529   2.4337368
  16.1073360  66.3445053  83.8996048  15.2215834  65.9826736  83.8722305
  16.5234489  66.0198975  83.1010361  47.0877953  31.0257950  68.0445557
  46.1960220  30.6802483  68.0841293  47.6049805  30.3118362  67.6717148
  17.8465195  22.0129414  79.1766968  17.6884651  22.4850388  79.9942398
  18.1055374  21.1341152  79.4538269  82.1125259  55.7975044  69.8038635
  81.4926376  56.3922386  69.3816452  81.6274643  54.9785957  69.9055023
  47.7513580  24.8570423   2.7310071  48.6783409  25.0792007   2.8180637
  47.3506279  25.1810780   3.5376348   4.6558290  31.9055119  84.1139374
   3.8572996  31.5519676  84.5058365   4.9700494  32.5486870  84.7494049
  49.0581360  16.2337418   6.8815188  49.8724327  15.7326403   6.8362794
  49.3410683  17.1471767   6.9241481  65.3093872  36.9985657  59.0751381
  64.8366928  37.8279076  59.0045815  64.6662979  36.3859482  59.4320259
  70.1845169  52.8306999  28.9437122  70.1673203  52.8457909  29.9006386
  70.1061172  53.7498360  28.6882267  73.0483170  45.6032791  50.7633362
  72.4883347  46.1083412  50.1737938  73.6661453  45.1577415  50.1836700
  80.8360214   5.6668324  62.4473038  81.6841202   5.2938657  62.2067909
  80.7256241   5.4357424  63.3696060  12.2319202  64.6673431  11.3216753
  12.9893360  64.1655121  11.0204802  12.2683611  65.4809952  10.8188210
  33.8887825  60.2308960  30.3602829  33.4944305  59.9318581  29.5409584
  34.3461494  59.4619827  30.7006035  23.5210457   5.4428835  13.8799458
  22.8605251   5.3637233  13.1917019  24.3277454   5.6620374  13.4136438
  35.0862465  28.2686977  82.5061188  35.1500397  28.6900940  81.6490326
  34.3604889  28.7172089  82.9401016  13.2860985  34.6294899  80.4337082
  13.1014071  34.5547600  79.4974747  14.0468912  34.0656776  80.5735016
  43.1592102  69.1113434  49.9005051  42.9424400  69.7514725  50.5783577
  43.5587196  68.3837357  50.3771629  63.7715454  24.5279980  81.1343918
  63.1846237  23.7910652  81.3037643  64.0553207  24.8127403  82.0030823
  31.2258224  40.9827080  78.1336365  30.8082619  41.7488136  78.5272751
  32.1576157  41.0945244  78.3220139  27.0126286  52.0357666  79.4958496
  26.8108406  51.9710579  78.5624008  26.2038898  52.3577652  79.8939590
  85.5310822   8.8687239  55.0710335  86.2688522   8.8013554  55.6771622
  85.4859772   9.7992268  54.8511200   3.4002571  38.9553719  67.5818863
   2.9900923  39.3038216  68.3734512   3.4277947  39.6986160  66.9793472
   4.1400971  15.6040773  86.7461166   5.0543671  15.8589878  86.8700638
   3.6416445  16.2475357  87.2498398  57.3938522  68.1574402  40.0709496
  56.4858971  67.8955765  39.9183960  57.3842201  69.1114578  39.9934998
  22.2107620   6.6736751  71.2093506  22.6639004   5.8717208  70.9490280
  22.2220974   7.2208686  70.4240570  30.7445183  15.9278421  13.3869429
  30.1717281  15.2980309  13.8245287  30.1761646  16.6727505  13.1911964
  14.1347685  70.4616852  19.2343349  14.6622438  71.2513885  19.3542080
  14.7757330  69.7638474  19.0986004  13.2517252  24.4134693  11.0362339
  12.4416695  23.9058952  11.0853319  13.8717241  23.8329716  10.5948095
  70.2212219  65.7201080  71.9668121  70.8565369  65.5362320  71.2748642
  69.5456390  66.2455826  71.5382080  30.0476036  64.9281921  71.0512085
  30.7607613  65.3286591  70.5539474  30.1857033  63.9862480  70.9517212
  64.2704315  19.4451981  51.6625328  63.9116974  18.6034279  51.9435463
  64.7131119  19.7880650  52.4388695  84.0928040  55.1225700  46.4316750
  83.8841782  55.0815506  45.4983902  84.7900925  54.4775391  46.5498047
  21.8704739  15.9789429  73.9960251  22.2825260  16.6051502  74.5912628
  22.5675964  15.7315760  73.3885193  84.9030380  34.8527870  48.3947144
  85.6011429  35.3540726  48.8161278  85.2962646  34.5291481  47.5842476
  74.6780243  40.5739174  22.7388706  75.1948853  40.2849464  21.9868202
  73.9131851  41.0016174  22.3537273  71.9956360  55.6005325  53.6520805
  71.3282471  55.3434715  53.0158882  72.8145065  55.2616386  53.2903557
  74.8490829  56.1539955  82.6022720  75.3785172  56.5446358  83.2974930
  74.2136765  56.8328285  82.3749619   8.8066254  60.8520851  11.1667728
   8.5556135  59.9583321  11.4000692   8.8992834  61.3018112  12.0066500
  78.5117798  67.2770615  31.8456383  78.9040680  66.6690216  32.4722443
  77.5983124  67.3498306  32.1222534   1.1909791  20.3135624  18.5593891
   0.4245080  20.0360546  18.0576496   1.8968939  20.3562508  17.9143353
   3.0286975  70.2493668  18.4243488   2.7717292  69.3593216  18.1834908
   2.5001674  70.4505539  19.1966248   0.1127282  58.6701546  79.6297073
   0.9425122  58.2573242  79.8690033  -0.5279588  58.2838097  80.2267685
  80.7128983  11.6567907  83.2789307  80.2545547  12.4557810  83.5392532
  80.2118759  11.3252268  82.5337601  10.3254461  23.7145157  78.6595764
   9.7246246  22.9788284  78.7779465  10.4536610  24.0633564  79.5416794
  81.7864075  52.5838470  84.5425262  82.1560745  51.8560638  85.0424347
  82.4586868  52.7954445  83.8948364  61.6908302  69.9873886   2.3521819
  62.0811424  69.1455917   2.1171122  60.9819984  69.7627563   2.9549489
   3.0886331  16.2777729  66.2366333   3.4047790  15.6037521  66.8382874
   3.5569341  17.0706902  66.4978027  61.0475311  10.5040045  15.9541912
  61.2211914  10.8603878  15.0829468  60.5465889  11.1886444  16.3975372
  37.5123138  65.9906921  43.8873100  36.7285271  65.8862762  44.4267654
  37.4886742  65.2477798  43.2841835  52.3013496  28.1926975  87.1968842
  52.9016762  28.4189148  86.4864883  51.7007179  28.9361897  87.2487946
  10.2862053  45.1122475  16.5163689   9.3496876  45.0200500  16.6914902
  10.6860809  45.1833763  17.3831272  57.4696884  44.5245399   7.1249127
  58.2139778  44.6674690   7.7095757  57.8440475  44.0783806   6.3652887
  80.3021927   0.3729277  34.5513039  80.8909149   0.7485741  35.2059212
  80.8800735  -0.1014174  33.9535713  56.4519424  10.9429207  39.4453545
  56.0261955  10.1211576  39.2010689  56.7882881  11.2928963  38.6203575
  85.6325150  50.4961090  28.5710735  84.7219543  50.2123604  28.6522942
  86.0464859  49.8215485  28.0327148  36.9160538  22.5799179  13.6826057
  37.3807411  23.4164772  13.6609831  36.7559776  22.4188175  14.6124744
  28.6003895  46.4275246  12.6874580  28.6951656  45.7961235  11.9743099
  29.0340443  47.2182045  12.3665199  77.9374924  28.1995144  42.3241310
  78.3499451  27.5800304  42.9260864  78.6687164  28.6834660  41.9402885
  26.6813736  65.1041946  82.0749817  26.4842930  64.2910309  81.6100616
  26.9791489  64.8198929  82.9391251  14.0437422  68.7503433  66.1900711
  14.3331118  69.1656876  65.3776779  14.7856350  68.8487549  66.7868500
  85.6204071  22.1302280  87.8731308  86.1910324  21.7345295  87.2143173
  85.9069748  23.0422382  87.9215622  50.2609024  53.9423370  46.7098656
  50.7403488  53.3991623  47.3354263  50.5744324  54.8315010  46.8751450
  67.3533707  36.5122719  51.1726151  66.8232956  37.3070641  51.2322769
  67.7558441  36.4273643  52.0369225  50.8634605  36.9148598  52.0942039
  51.1884422  36.0441589  51.8650856  51.4195061  37.5161018  51.5986710
  45.7929268  55.1895676   4.4304509  45.8630028  54.7140465   5.2582192
  45.6302719  54.5096245   3.7766552  52.3283386   8.3027287  78.1916504
  51.7284622   8.0261106  78.8843765  51.8088646   8.8941135  77.6470032
  43.3786316  46.9941978  79.1429672  43.7356873  47.0609741  78.2573700
  43.9185448  47.5882645  79.6643219   7.5853510   6.8826141   7.1751404
   6.8107767   7.0327721   7.7170992   7.5616736   5.9462981   6.9776988
  43.8053589  51.0987930  17.7893810  44.3581734  51.4069366  17.0712738
  44.3313408  50.4288025  18.2260551  39.9225426  39.6727028  68.9768600
  39.1425438  39.8114471  68.4396591  40.4639626  40.4457436  68.8171539
  65.3963013  18.7404671  61.9583054  66.0952072  18.3031883  62.4446716
  65.0766296  18.0755291  61.3484688  62.8762207  65.9479065  25.8215046
  62.7323761  65.7097931  24.9056206  63.8195572  66.0973740  25.8848057
   0.7450662  46.1336327  44.1563873   1.4306440  46.8015213  44.1683884
   0.3056895  46.2261925  45.0017357   6.2889829  36.9708214  61.9000969
   6.7878656  37.7359428  61.6138458   6.9515634  36.2984123  62.0584755
   2.7050261  38.9807816  33.2221107   3.5386140  39.2266579  32.8209763
   2.7053342  38.0236893  33.2076263  26.5984745   1.8186197  37.9991417
  26.0832062   2.3756499  38.5826187  26.6532249   0.9792224  38.4559212
  17.0602798  56.4858437  17.9253349  16.6400070  55.8838615  18.5395184
  17.1853104  55.9680099  17.1300678  83.8790436  70.0623322  46.5741920
  84.4630508  69.3695755  46.2655525  83.1545944  70.0612869  45.9485626
  23.9952869  37.6247826  72.8721237  23.3969612  38.1819496  73.3699188
  23.5140820  37.4106522  72.0728607  36.4131584  53.2410660  28.4404755
  36.2182884  53.4156113  27.5197201  36.3888092  52.2869873  28.5137577
  15.6373014  65.9570847  60.3177223  15.5824518  66.5426483  59.5625114
  16.4598179  66.1946945  60.7457886  36.9401283  18.5472298  81.7156143
  36.2070770  18.8192329  81.1634521  37.6774597  19.0773811  81.4130936
  78.3629837   0.4681565  64.9067078  78.4661713  -0.3632376  65.3697052
  79.2543945   0.8056574  64.8189163  64.6093140  13.3574018  60.7059898
  65.1430359  13.7612400  61.3903084  63.7142868  13.6298904  60.9082260
  71.0606918  18.9207668   1.4206138  71.8425674  18.3833084   1.5472754
  70.3326340  18.3407211   1.6435677   1.6074729  35.4157257  30.2632046
   2.4821625  35.6175308  29.9309025   1.6108061  34.4663582  30.3853474
  83.4264374  34.2500572  64.4707565  84.1650009  34.3904419  65.0632477
  82.8464127  33.6563416  64.9475174  40.6203346  33.5562553  59.8490219
  40.5115395  33.9679680  60.7062798  39.9113197  33.9184456  59.3176575
  74.2895279  41.4811630  88.7210999  75.0726242  40.9316444  88.6892242
  73.7183609  41.1238594  88.0411453   9.6955471  70.9585724  68.8507919
   9.6976728  71.7479782  68.3094330   9.8376713  70.2428970  68.2312393
  59.4581604  70.5275803  75.2450714  59.8408966  69.7612915  74.8178253
  59.4697113  70.3125229  76.1777344  62.1905670  15.1005297   4.1915154
  61.5996094  14.7385731   4.8518100  61.8296204  14.8010454   3.3570938
  33.2842255  56.9512711   5.3664846  33.2976799  57.9083672   5.3617859
  32.7239799  56.7159767   4.6268964  77.7204819  37.7187462  38.0117798
  77.3482285  38.5606461  38.2742043  77.6390457  37.1677704  38.7902565
  47.2201767  22.7723961  35.5931702  47.4770660  23.5539780  36.0824242
  46.7981110  23.1118317  34.8039436  53.8642082  57.1833763   0.3820060
  54.7688942  57.4208679   0.1785879  53.9078140  56.2579041   0.6224893
  30.7552414  67.4692078  23.2980404  31.2627811  68.2017670  22.9487610
  29.8731155  67.6019211  22.9509449  39.5759773  42.3542213  13.7771139
  38.9042816  42.4482155  13.1016703  39.7121887  41.4095421  13.8496218
  65.9330063  61.2573547  76.5998840  64.9990692  61.4600449  76.6537399
  65.9651108  60.3105354  76.4630203  17.7398205  67.5245667  38.2222900
  17.3008556  68.3641663  38.0858612  18.4922810  67.5488586  37.6311531
   6.3534884  30.1041317   1.6037014   6.6340847  29.2024822   1.4470956
   5.5729799  30.0203667   2.1514440  66.8077164  63.9152031  68.0230179
  67.3760834  64.6069183  67.6843109  67.4086761  63.2161713  68.2807617
  33.5592003  59.2463837  70.7005005  33.6298409  58.3473701  71.0214615
  33.5215454  59.1584206  69.7480927  74.2983398   5.7908669   8.6875296
  73.9892426   5.2309122   7.9753881  73.9529343   5.3818169   9.4810095
  74.8711700  17.8223305  71.0944290  75.8177567  17.8513508  70.9552612
  74.7152176  18.4390869  71.8096390  65.5748596  42.5137558  29.7089405
  66.2339630  42.2209091  29.0796127  65.1341858  43.2428093  29.2724590
  84.1135635  30.0611038  12.7911005  83.8665695  30.5969086  13.5448503
  83.2936020  29.9217663  12.3172989  25.4274330  70.8134232  66.5541153
  25.0608425  70.0192413  66.1653748  25.6107025  70.5729446  67.4623108
  20.0240345  23.5038357  68.9481506  20.1635132  24.4498444  68.9051819
  20.0138607  23.3055267  69.8845291   3.3694811  45.9527969  29.6300697
   2.5412712  45.6185303  29.2857342   3.3608730  46.8847542  29.4118690
  62.5103951  58.2425423  54.6101646  62.1352806  59.0167313  55.0298691
  62.1073647  57.5038261  55.0663376   8.1489620  46.0510979  68.6870956
   7.6662111  45.2260742  68.6369324   8.5122538  46.0625610  69.5726013
   1.6802870  13.3375397  49.0370483   1.4713427  13.2769346  49.9691963
   2.2726719  14.0866442  48.9725876  18.3124828  46.0023956  12.3227644
  19.2081928  46.2487144  12.0919771  18.0647316  46.6184883  13.0121679
  62.1240578   9.6235409  52.9395142  63.0621605   9.7879639  52.8438072
  61.7537918   9.8442812  52.0848732  27.5781021   4.1941953   3.5815725
  26.9538593   4.9079700   3.4508901  27.8498573   4.2780056   4.4955511
  83.5205383  18.5244961  78.6508560  84.3194809  19.0408707  78.5446091
  83.7587357  17.8408127  79.2770081  84.2363586  45.9245644  47.5305099
  84.5555344  46.3978119  48.2988853  83.3892059  45.5710487  47.8017693
  79.0864639  64.2009430  22.9929886  79.9402084  64.2910690  23.4163399
  78.5739975  63.6656609  23.5988636  67.9491196  49.2127190   7.7808518
  67.2891541  49.8418808   7.4895883  68.6398926  49.2672043   7.1204762
  10.0408506  63.4447479  88.9526978  10.3404264  62.5428123  88.8386841
   9.2963572  63.5269890  88.3567123  37.1679344  30.6453114   7.9534092
  36.4012909  31.1755009   7.7357087  36.9929428  30.3228874   8.8375196
   2.1265147  27.9407215  80.0644684   2.6641397  28.3122005  79.3650436
   2.6656928  28.0240574  80.8509598  71.5050735  13.2097254  23.9112453
  71.4542313  12.9898748  22.9810238  70.6626129  12.9304895  24.2697430
  82.6960907  57.3528900  38.1743507  83.0136948  56.9830666  38.9981194
  81.7425537  57.3023758  38.2410049  27.2676678  11.3252878  77.6276245
  26.5168457  11.8637943  77.3776093  26.8933411  10.4643288  77.8143311
  13.5026703  51.3163109  44.6038551  13.5232420  52.2108955  44.9437447
  14.2939234  51.2446785  44.0699844  34.9945755  55.2100563  86.1831894
  34.3149605  55.8840828  86.1762695  35.7035484  55.5793724  85.6567001
   3.1088059  18.2606869  15.2704906   3.8640442  18.8194904  15.0872269
   3.4510751  17.5765076  15.8458014   5.4438047  35.1635513  21.2163601
   5.3576469  35.9999161  21.6738548   4.9452295  35.2804337  20.4076633
  28.0212231  33.1132889  82.0052872  27.8994503  32.1661835  81.9389877
  28.6942425  33.2217903  82.6772232   4.2141781  45.6651573  58.7970543
   4.8139372  45.0512886  59.2209511   3.6219144  45.9425964  59.4959717
  86.3146744  56.6947327  22.9409771  85.8726807  57.2684593  22.3151112
  86.7095490  57.2921715  23.5760937  25.9266758  46.3816299  63.4542427
  25.4685097  47.1648216  63.1494026  26.4590569  46.1094131  62.7067795
  47.7572212  27.6439342  61.0099945  47.6228828  27.2613983  60.1429024
  48.6357727  27.3606644  61.2632561  63.5268173  57.5010757   0.5238428
  63.7532654  57.8944359   1.3665890  64.1184006  56.7530327   0.4419990
  25.4845257  26.6333466   2.3363860  25.2893353  26.8190861   1.4178910
  24.6504002  26.3415546   2.7042468  59.9155312  59.0265121  26.5774269
  59.9535522  58.1994858  26.0969982  59.9554596  59.7000008  25.8984203
  43.3151741  48.6028061  37.6770210  42.5153694  48.0805397  37.6155052
  43.5842323  48.7367821  36.7682343   4.5116305  28.5673218  67.7066193
   3.6557655  28.3313789  68.0644760   4.3546553  28.6880550  66.7701340
   4.9592714  51.3623390  51.6392746   4.6114450  51.8885231  52.3592606
   5.2194138  50.5374794  52.0493546  67.2628632   1.1731051  38.6709900
  67.1735535   0.2841374  39.0144920  67.7804871   1.0704176  37.8723946
  74.4271240   5.2319708  40.0898933  74.9973526   4.7011018  40.6459923
  73.5543823   5.1216326  40.4672203  11.0086355  40.0547218  44.9267998
  11.9299040  39.9103241  44.7108231  10.6482143  40.4945641  44.1568184
  78.5888977  21.9105911  85.6742096  77.9971848  21.3942509  86.2214737
  78.8314438  21.3204117  84.9607010   0.6523556  49.8553505  81.9119110
  -0.0017469  49.9794235  81.2241669   0.5872052  48.9279900  82.1399231
  53.0612793  46.5144234  37.3341522  52.6485291  45.9911880  36.6470642
  52.3999596  47.1651802  37.5695267  23.6456795   0.5243554  68.8133392
  24.2947598   1.1948833  68.6004562  23.6232071  -0.0409363  68.0412216
  76.1891861  21.7852669  44.1498680  76.3075943  20.9468861  44.5963287
  76.9830933  21.8917942  43.6258469  43.5343018  40.4966621  35.3258057
  43.5246658  41.4393539  35.1600571  42.6101456  40.2543449  35.3845596
  43.5879173  25.0604019  21.1475182  44.5386391  24.9948635  21.2373257
  43.3000259  25.4876804  21.9542274  24.1118202  21.6909885  45.3119698
  24.4480553  21.3806133  46.1527100  23.8544617  22.5980396  45.4770584
  32.0570946  53.1875038  27.2290192  31.5027943  53.4398384  27.9674683
  32.3487473  52.3006859  27.4405117  61.0232124  69.3227768  13.0348940
  60.4995232  68.8103104  13.6508150  60.7547760  69.0073166  12.1719580
  29.7201805  48.0491486   9.1909828  29.6655483  49.0003738   9.0992517
  28.8123665  47.7506866   9.1359625  29.0447178  44.7664108  81.1806488
  29.1603050  44.8861313  82.1232758  28.8487663  45.6431007  80.8501205
   3.8822219   0.6603917  61.2168350   4.7748699   0.9714386  61.0662994
   3.7623467   0.7258607  62.1642380   8.5422773  51.9407997   8.8681393
   9.3947020  52.3310242   8.6749334   8.1209240  51.8505325   8.0134201
  69.6118240  31.1536007  23.3832664  70.3741684  30.6907845  23.7309189
  69.6260986  30.9672909  22.4444809  13.0557718  58.7261314  72.5676117
  13.0205946  57.9246941  73.0898132  12.4304419  59.3149300  72.9901123
  65.4668579  69.8573990  25.3959675  66.2634888  69.3276367  25.3650208
  65.7611618  70.7447281  25.1903934   5.1927309  38.3301086  63.9419174
   5.4074316  37.7314568  63.2265472   5.4523144  39.1927681  63.6183929
  77.4665146  53.4343872  22.2803421  77.1532135  54.0889053  21.6560974
  78.3678284  53.2581825  22.0104980  15.7881851  52.9079781  43.7406883
  15.6715717  53.2142677  42.8413467  15.6166763  53.6795273  44.2806168
   6.6420050  55.8047256  55.6750717   5.8704691  55.4508972  56.1175308
   6.9610305  55.0816803  55.1350136  61.4823532  47.8879700  37.7958755
  62.3703003  48.1711235  37.5776978  61.3863182  47.0421638  37.3581276
  19.3108025  64.4387283   2.5378709  18.6436195  64.7160645   3.1657102
  18.9324760  64.6397247   1.6818911  48.8269081  62.5572739  41.5996895
  48.5505524  62.6042366  40.6844559  48.3554649  61.8032570  41.9538460
  85.4574890   0.6895383   8.5286217  86.3216858   0.4764615   8.8807430
  84.9774475  -0.1381772   8.5548019  62.6362457   0.6446294  33.1375427
  62.5636864   0.3937108  32.2166672  63.3141403   0.0681367  33.4901695
  42.2945366  59.1858063  63.4416199  42.8194160  58.8515282  64.1689377
  41.9596062  60.0261917  63.7543564  66.6476974  66.8605194  73.7434464
  66.5757523  67.6611938  73.2238617  65.8013763  66.4269867  73.6338043
  40.6894569  14.5696373  58.3768616  41.6121063  14.5248337  58.1259842
  40.5363197  15.4961843  58.5620384  35.7955132  41.3629417  24.7246742
  36.1545029  42.1333733  25.1648903  34.8990746  41.2952538  25.0533772
  70.6389847  54.2951164  10.6755753  71.3418121  54.9142761  10.4783440
  71.0013885  53.4398460  10.4444647  75.6966858   3.0590763   0.1686975
  75.3515320   3.9491410   0.2385832  76.5364609   3.0911732   0.6269349
   0.8910407  71.0332184  74.4638519   1.6939023  70.7682114  74.0150604
   1.0791773  71.9124908  74.7920609  64.0331497  18.7824593   2.8685398
  64.5548477  19.5355911   2.5913129  63.2434425  19.1656265   3.2503431
  60.3736610  40.0193253  66.9549942  61.0512352  40.6872826  67.0596771
  59.9941292  40.1959991  66.0941925  12.2226734  28.5497284  56.8703766
  12.5652952  29.3837185  57.1917877  11.3814497  28.4487743  57.3157768
  30.6553955   6.7306943  71.4602203  29.7749386   6.3580799  71.4134521
  31.1701965   6.2065558  70.8466339  52.5988426  36.3730774  59.5133286
  52.1601753  35.6501045  59.9617844  52.8423347  36.0133629  58.6603661
  83.9588470   2.5901530  14.5145826  83.6688690   1.7344017  14.1986151
  83.1995468   3.1601954  14.3931274  57.5616608  51.4446602  50.1159363
  56.8592300  51.9988480  50.4560852  57.1240349  50.8504333  49.5063400
  79.3971558   9.0789433  61.3424149  78.6418915   9.0901880  61.9303589
  80.1529541   9.0027370  61.9248199  53.7229652  65.9428406  84.6795425
  53.9454918  66.0311432  85.6063156  54.5685272  65.9151459  84.2317810
  45.5187798   4.6533785  13.6720629  46.3298149   5.0010233  14.0429974
  44.8273430   5.1821928  14.0701904  40.3713951  60.2258606   8.1708193
  40.3138733  61.0966072   8.5641689  39.6492538  59.7367325   8.5651474
  20.9812202  55.4314575  83.2616577  20.5781384  56.2428246  82.9527359
  21.9076672  55.6486397  83.3653870  49.4003601  26.2926350   8.4779167
  48.4713326  26.2989140   8.7083530  49.8487625  26.5489464   9.2838144
  33.2835464  39.3384171  14.2965527  33.5856247  39.4822159  15.1933823
  33.4315033  40.1756706  13.8568363  62.4397202  19.4325829  39.1629601
  62.5544090  18.5399914  39.4890862  61.8468094  19.8431950  39.7923164
  14.4182625  60.3570595   2.9318593  14.2740822  61.2984886   2.8361547
  13.6941452  60.0585785   3.4821253  36.8262329   0.8172961   9.1764231
  37.3155518   0.1639000   9.6762972  36.3799057   0.3133340   8.4959488
   3.7704258  16.4537086   7.3661995   3.0800219  16.1690178   7.9649696
   4.5799546  16.1345329   7.7649741  59.1819839  66.1989899  39.4564896
  58.5883980  66.9004974  39.7243843  58.6084023  65.5286179  39.0852203
  75.6234512  53.9296722  65.7527847  75.5602112  54.8844604  65.7774887
  74.7282028  53.6345634  65.5864029  34.5792160  54.6939468  12.1181870
  33.8527565  54.1753845  11.7723808  34.1769981  55.5195503  12.3880653
  59.6987305  60.9285812  81.3174362  59.5974846  61.7486725  80.8342896
  60.1848068  61.1730080  82.1049805  26.3370438  42.2646866  58.2874451
  25.6281815  41.6590538  58.0707588  27.1188240  41.7138329  58.3275986
   6.6423492  39.1655922  86.1931534   6.2359734  39.8105392  85.6142502
   6.0112829  39.0501404  86.9035492   0.7885061  69.4853745  23.8315048
   1.1511641  68.8193817  23.2474079  -0.1272303  69.2310486  23.9454231
  17.4345055  33.5709801  64.0501556  17.5367069  32.6312943  64.2010803
  17.5518875  33.9664459  64.9139099  60.4315605   9.9502802  87.5352859
  61.0376434   9.8889952  88.2736282  59.6216316  10.2879705  87.9176636
  71.2046661  52.3319168  76.3160095  70.9316025  51.4663391  76.0119705
  71.1417160  52.8891220  75.5402527  31.4396076  50.2641907  60.6871376
  30.6894932  50.3755760  61.2712212  31.1090183  49.7175484  59.9743080
  58.6088753  38.6747551   6.7905431  58.9210358  38.3859978   5.9329853
  59.2343216  38.3011017   7.4113731  22.9630947  67.3556824  36.5218468
  22.6938171  66.6174316  35.9753113  23.6980782  67.7474136  36.0500603
  53.9124832  39.5714531  36.5715942  53.9478951  39.6604996  37.5239830
  53.0202866  39.2750206  36.3917618  19.0786572  65.4302444  84.6025009
  19.6828136  66.1708984  84.6540680  18.7477093  65.4531708  83.7046280
  35.2261124  58.1335526  31.6020050  35.8657837  57.5861664  31.1465721
  35.0141449  57.6436195  32.3965302  14.8101454  59.2034187  59.2458992
  14.3922777  58.3770370  59.0035896  14.0912724  59.8345566  59.2792969
   5.5509081  63.5127258  13.8229465   5.3419366  64.1457825  13.1360693
   4.9935765  63.7652740  14.5590391  68.2067490  10.8578615  42.2630539
  67.8010559  11.4798670  41.6591072  67.9942551   9.9980879  41.8999176
  42.8850288  26.0758114   2.2266278  43.7480011  26.0940228   1.8128880
  42.8042107  25.1871700   2.5730641  50.6612167  31.2892494  39.1235161
  49.8686218  31.6757984  38.7512169  50.7192230  30.4242630  38.7177277
  33.7060318  59.7932129  80.2824478  33.8548813  60.6925087  80.5745926
  34.5775375  59.4667816  80.0585022  35.1675377  46.4516907  20.7910480
  35.6984863  45.6730804  20.6234455  35.5814514  46.8653336  21.5485497
  60.1662102  61.1341133  46.8029442  59.7534103  61.7249222  47.4328423
  59.7895088  61.3827972  45.9588585  75.7153015   2.7089422   8.6832151
  74.9979706   2.6035171   8.0582771  75.4795074   3.4862518   9.1895962
  61.1818810  58.7966347  84.8571014  61.4865570  57.8942566  84.9525909
  61.1952362  59.1493607  85.7468414  50.9511871   7.5512815   9.8923893
  51.1996536   7.1498737   9.0597019  50.4689255   6.8655524  10.3543768
  47.1130371  37.0483170  84.6231918  47.0978813  37.1383400  85.5760269
  47.9818649  37.3578644  84.3671570  82.4396515  49.3651161  64.6867599
  83.2672653  49.8142853  64.8586349  81.7949066  50.0691948  64.6174316
  31.4095707  30.3911819   9.1799450  31.9677505  29.6601143   9.4449100
  32.0201111  31.1069126   9.0033016  75.2068329  33.9981651  65.9287949
  74.9410477  33.0913124  65.7764587  74.6095581  34.5166016  65.3896103
  42.6420441  61.7031021  48.8728676  42.2347031  62.1833000  48.1519547
  42.3296700  60.8043213  48.7687149  35.3509560  63.6092987   0.6083045
  34.9671745  63.0385132  -0.0573897  35.6006317  64.4002762   0.1305507
  42.9329033   7.1568365  75.9497757  43.7615204   7.6359792  75.9429855
  42.2644157   7.8357244  76.0418015  55.0153351  16.5617104  38.8002357
  55.6329536  17.1560555  38.3741646  54.7220879  17.0376930  39.5772018
  53.8607864  52.0280190  28.9789848  53.9602928  51.3634453  29.6606541
  52.9307556  52.2536240  28.9983768  63.8754845  21.6142769  41.4156303
  64.3055725  21.5010509  40.5680237  62.9823074  21.3001881  41.2748604
  55.4107323  46.8718834  31.0383549  55.6255455  47.0648460  30.1257477
  55.9625893  46.1221237  31.2609386  60.8336143  12.5792379  32.0772247
  61.4246674  12.5949888  32.8299828  60.1634941  11.9374237  32.3122597
  27.7638569  55.0102959  34.2694283  28.5270653  54.4419785  34.1657143
  28.0844345  55.8846169  34.0480080  66.6424255  14.6573029  62.4895706
  66.5269012  15.0957670  63.3325615  66.8855286  13.7600164  62.7176285
  56.0840492  64.2087784  18.0262566  55.6063538  64.0552902  18.8414154
  55.5412979  64.8329010  17.5444679  35.3032188  18.1091480  12.7937660
  34.5140991  17.7777996  12.3651304  35.0445938  18.9605217  13.1466227
  79.1433792   8.6824484  13.5650835  80.0327301   9.0346422  13.6004496
  79.1118469   8.0399523  14.2739115  43.3032265  61.5741997  32.4008522
  43.2876930  62.4366608  32.8157654  44.0554962  61.6062584  31.8098373
  65.2450104  35.0137215  16.2819443  65.1858749  34.2567787  16.8648472
  65.9031601  35.5778389  16.6879559  84.9517288  17.3468876   4.4403267
  85.0186081  18.1471958   4.9611568  85.3669357  16.6743469   4.9802575
  56.1153755  27.8558502  51.8204536  56.0387573  26.9239712  51.6155968
  57.0500298  27.9906178  51.9769592  35.9532356  16.1955147  10.3780117
  36.7334976  16.7208633  10.5553045  35.3148384  16.4877110  11.0286283
  29.8650284  15.0899763  64.4520874  29.8831806  14.2517576  63.9902496
  30.7100697  15.4923267  64.2514572  62.2884636  65.5904999  22.4114895
  62.5575523  64.8661880  21.8465157  61.5537987  65.2407990  22.9156876
  21.2487774  60.7640686  51.9002495  20.5956898  60.7707214  51.2004890
  22.0012817  61.2254219  51.5299492  35.4673347   3.1451032  43.9393768
  35.1975098   2.9964440  44.8456497  36.2517357   3.6892266  44.0092010
  39.1553612  65.2156448  47.9422073  39.9067574  65.0051346  47.3878365
  39.4823837  65.8828049  48.5456772  83.3080978   2.3183177  10.0553484
  82.4494247   1.9098098   9.9456978  83.9160309   1.7172166   9.6248522
  51.9518814   4.3459630  75.5931854  52.1942940   3.8916698  76.4000854
  52.4666290   3.9142473  74.9113617  80.9908600  54.0172272  32.8943672
  80.9837952  53.9732170  33.8505287  81.3725281  53.1837006  32.6190491
  32.3422775  48.9507523   6.6334419  31.9454136  48.0840302   6.7202039
  31.6195984  49.5196190   6.3681931  23.8579197  54.7924118  12.6758146
  23.5350800  55.3456039  13.3871412  23.9722538  55.3923950  11.9388065
  31.6155510  61.6217957  38.8856125  32.4051971  61.0926285  38.9981995
  31.4651051  61.6294250  37.9403419  45.5694542  40.3052635  45.1268883
  46.1335220  40.7399292  45.7665176  46.1716499  39.7998581  44.5808525
  39.8774529  65.5934143  57.1889420  40.6820030  66.0220795  57.4807892
  40.1765785  64.8022003  56.7409058  14.9011374  67.2762375  86.7773819
  14.7164326  66.7933197  87.5829315  15.6468287  66.8184357  86.3893204
  64.1901398   1.2970903  64.3823700  64.7027206   0.5035906  64.5368042
  64.8348694   2.0045135  64.3927460  86.4536591  52.2663155  30.3817120
  86.0926361  51.6607208  29.7342930  86.3541718  51.8106041  31.2175732
  16.9613934  19.6283245  77.4315720  16.8120861  19.5499001  78.3738022
  16.7982521  20.5517044  77.2392578  78.8313522  66.3962936  55.9483643
  78.7064896  65.8012543  56.6876640  79.6744080  66.1400681  55.5744133
  22.8735962  58.0584602  74.4480515  22.1909542  57.9781609  73.7818832
  22.9148674  57.1927109  74.8542633  85.8108749  14.5198479  26.9979706
  84.9813614  14.5314522  27.4754620  86.4473419  14.8814278  27.6147385
  84.9864197   0.7909601  61.9619560  84.7001801   0.5977439  61.0692253
  85.8565140   1.1757286  61.8565063  44.8250999  57.2714996  46.5270576
  44.2390518  57.9495583  46.8632393  45.5731201  57.7542458  46.1754227
  21.2032108   5.3509145  12.1449022  20.2994556   5.5291548  11.8847284
  21.6163292   5.0047264  11.3538790   4.5276365   2.1353538  37.2669334
   5.3730845   1.8240044  37.5902176   4.1830730   2.6749275  37.9785309
  73.6862335  62.8165283   0.5130152  73.8560257  63.3269348   1.3047767
  74.0512772  63.3458595  -0.1960581  65.7399750  15.8197613  67.8533325
  66.5615768  16.0540981  67.4217300  65.3502960  16.6590061  68.0983810
  67.1543427  55.6810417  69.9717712  67.0671005  56.6317520  70.0408325
  66.9027710  55.3540649  70.8355026  45.6458664  63.7117577  47.4937325
  45.0981865  64.0352783  46.7784615  45.4989319  62.7659149  47.4989548
   3.6852314  69.4890823  62.1907272   3.8267639  68.5424500  62.2003708
   4.2859082  69.8142395  61.5201378   7.0128551  11.4451590  24.5259781
   6.5238271  11.9596109  23.8837776   6.9414339  10.5428610  24.2145481
  78.7625656   2.7931068  84.4697876  78.4390259   2.1375802  83.8518600
  78.5993042   3.6312170  84.0371780  39.6014900   3.0853665   6.9896479
  39.9964561   3.4579778   7.7779326  39.8972740   2.1750550   6.9809027
  58.6034431  13.6234818   3.1498995  57.7676506  13.2871284   2.8265531
  59.1960144  13.5520163   2.4015782  53.7632256  38.0085564  47.7685394
  53.8990936  38.5467720  46.9887352  54.6465034  37.7883072  48.0644188
  55.4193420  63.4495735  25.1029301  55.6529922  63.2218208  24.2030602
  54.4743881  63.3041115  25.1491604  37.1981850  54.8590927  79.4303970
  37.4686050  54.2539978  78.7397766  36.9531326  54.2930412  80.1623611
  68.4522552  24.6407471  49.9267235  67.9209137  25.0400620  49.2379150
  69.1874695  25.2428455  50.0414696  16.4976788  48.6544113   1.7775506
  15.8963451  48.5183411   1.0453514  17.3645000  48.6865120   1.3728030
  65.9788361  34.9922371   3.1805902  66.8306808  35.4282990   3.1592758
  66.0031738  34.3828773   2.4428103  58.2616501   5.7672639  10.3461790
  59.1465683   6.0969396  10.5026026  57.8699532   6.4059219   9.7504272
  23.6497040  49.6435432  71.7015533  23.7362690  49.4914284  72.6426163
  23.9964962  48.8481331  71.2974625  23.9862499  55.8329010  10.1529751
  23.3465061  55.1971855   9.8323088  24.2250156  56.3434944   9.3793364
  83.6991959  50.0497818  61.9561882  84.3531036  50.7276497  61.7854996
  84.0012817  49.6219139  62.7573776  62.2491455  41.6026840  50.5827827
  62.2470512  42.1792984  49.8187485  61.3696594  41.6891861  50.9505424
   1.4366943   6.4427919  14.9587097   2.0614448   6.8947496  15.5258541
   0.6700234   7.0156655  14.9424925  10.1572933   0.5263934  16.0728130
   9.6589174  -0.0530604  15.4965429   9.4932995   1.0646316  16.5036774
  21.1808815  13.9492569  85.9398193  21.6782742  13.8270588  86.7484589
  21.7212887  13.5426102  85.2624512  15.4512405  42.0688095  70.6470718
  15.8492565  42.9133072  70.4357910  14.5172825  42.1957741  70.4802399
  76.4245300  12.4778414  56.1599426  77.1436157  12.8730688  55.6670494
  76.1331863  11.7473526  55.6142921  77.1468430  28.5657063  60.1745911
  77.0841064  27.7759151  60.7117386  76.9859390  29.2845078  60.7858734
  24.3696709  57.6965714   8.2726593  25.2104950  57.9738235   7.9088216
  23.7191830  58.0349426   7.6573496   9.9136457  56.3455849  24.8724594
   9.8708706  57.0873375  24.2689629  10.8402214  56.2772903  25.1027336
  52.9110146  65.5432510   0.8550948  52.7867622  64.6007614   0.7432496
  53.8176765  65.6321106   1.1488652  45.7838745  35.5670547  82.5518112
  44.9321060  35.9661255  82.3744125  46.1547661  36.0976295  83.2569122
  65.3171234  62.7612419  42.3806992  64.8980179  62.3631554  41.6177368
  65.4996490  63.6614151  42.1112442  37.6309700  62.9441414  14.3084373
  37.7793083  63.0452423  13.3682213  38.4116592  62.4908600  14.6267023
  49.1224899  15.5584574  21.7876225  48.7774200  15.9488306  22.5905952
  50.0638580  15.4826107  21.9435272  49.3630676  57.1874695  43.9021683
  50.1377487  56.8210297  44.3285751  49.6978035  57.9217873  43.3874245
  21.2818699  63.1367531  23.0733604  21.0269413  62.5897484  22.3303719
  22.0614796  63.6028061  22.7713127   8.3009472   3.6109741  60.1973343
   8.5063753   2.7805185  60.6267242   8.6668692   3.5225198  59.3172722
  66.6345901  26.0849438  13.5873022  67.0275803  25.2122326  13.6002340
  67.3792801  26.6838017  13.6424065  19.9495277  42.0000877  63.1931343
  20.5438557  41.2520180  63.2514114  20.5215836  42.7474594  63.0187225
  62.3955345  13.5775604  22.6462059  62.2192383  14.1923800  23.3583488
  63.2875023  13.7839680  22.3668880  61.0818901  50.7649498  72.2060928
  61.8536987  50.8264771  72.7689056  61.3651505  50.2232399  71.4695206
  29.6043072  43.1025391  12.0937176  29.5346909  43.7185555  12.8230391
  29.4424076  43.6345062  11.3145943  55.4443207   0.7817100  67.4451294
  55.4965019   0.0946682  68.1095734  54.9636002   0.3793371  66.7217865
  17.3151970  69.3739243  72.3885117  16.4965591  69.7642441  72.6946335
  17.9974937  69.8344498  72.8769913  12.0305490  17.9688530  75.6227951
  12.6252480  17.6199551  76.2867508  12.5438128  18.6373825  75.1690750
  41.9393234   4.8797722  47.3182144  42.2086868   3.9642231  47.3920135
  42.4811096   5.2326870  46.6124153  77.2566986  69.4215927  49.5407753
  77.5681305  70.0409164  48.8807220  77.9123001  68.7241592  49.5430489
  48.9644470  45.6738319   3.4704385  49.8097572  46.1200142   3.4193463
  48.8459587  45.4912224   4.4025574  64.5449219  55.9386978  78.6706619
  63.7906799  56.3872070  79.0530014  64.7761536  55.2683144  79.3135834
  66.1176987  21.7381020  30.3316669  66.1297073  20.8227997  30.6115036
  66.4664230  21.7206745  29.4404221   1.9964846  67.2752609  64.0486145
   1.6184239  66.6365280  64.6530304   2.8279538  67.5240784  64.4523315
  37.2886772  32.7614517   4.2795048  37.0579338  33.6706581   4.0888968
  38.1963730  32.6783867   3.9872372  53.7500191  13.1593466  88.0192719
  53.5216179  12.7614832  87.1791687  53.1734848  12.7307949  88.6518707
  59.3956528  43.7236137  33.0547485  59.9067116  43.2543297  33.7141571
  59.7469063  43.4189949  32.2180519  29.6478577  57.1588020  86.0431824
  29.0234184  57.8572845  86.2392120  29.3102798  56.3967056  86.5138016
  85.5045853  61.1379128  20.0830631  85.3837204  62.0503235  20.3459816
  85.9816971  60.7400093  20.8112621  26.1907272  35.6671295  53.9423981
  26.6114712  35.1720085  53.2395020  26.4623394  36.5727806  53.7932091
  34.4192734  54.9314079  75.0632248  35.0862007  55.3721123  74.5367050
  34.8721466  54.1776695  75.4413986  20.5408764  55.9600639  51.5169601
  20.9249420  56.7737198  51.8435974  19.6054306  56.1492767  51.4436569
  74.0060043   7.8617206  40.9193230  74.2699661   7.0600548  40.4677849
  73.2905807   7.5886531  41.4936371  58.8812599   8.9817600  84.1210098
  58.5834541   9.8905325  84.1619339  59.8272705   9.0333481  84.2574997
  48.6694260  22.8434353  83.6631317  49.0465431  23.5455170  84.1933136
  48.0974655  22.3686886  84.2662125  82.0502396  36.8175240  81.7327194
  82.6369095  36.0727768  81.6008301  81.9574661  36.8839760  82.6830902
  11.3002272  55.0362930  33.7306633  11.8982182  54.5550156  34.3025093
  11.8628645  55.6488991  33.2569695  83.5556030  20.0759621  21.7842712
  83.9571457  20.9427013  21.7229996  82.6246796  20.2314568  21.6247559
  70.1370087  30.8174648  87.7000656  70.3449020  31.2759323  88.5142059
  70.9384918  30.8771992  87.1801682   3.9095149  59.7191582  37.9220123
   3.6097257  60.5744705  38.2299004   4.5349641  59.4310074  38.5868568
  63.3127594  28.3523293  33.3307991  62.5393066  27.8180847  33.5113029
  62.9799805  29.0910187  32.8210640  69.8012848  61.7483101  52.0893021
  70.1569672  62.5412941  52.4904251  70.0990143  61.0380898  52.6577911
  51.3204079   7.1307745  33.2119179  50.6473885   7.6452127  33.6575966
  51.3969269   6.3324814  33.7345123  72.2184677   0.5578492  19.9807911
  71.3047028   0.6634890  20.2455616  72.2261734   0.7848606  19.0509319
  23.7701817  65.5160065  24.3540936  22.9972610  66.0214081  24.6058865
  23.6723824  65.3825226  23.4113064   0.8990717  38.6799316  72.3455276
   0.2788243  38.2773514  71.7377014   0.4934630  38.5749168  73.2061615
  12.6772203  40.8916168  41.5789719  13.0612364  40.6668358  42.4264603
  12.1094933  41.6397057  41.7641220  78.1184540  38.5589638  44.6595802
  78.8059006  39.0536995  45.1055489  78.1706161  37.6815071  45.0385056
  34.0167503  18.2197208   1.5298090  33.5132599  18.8542252   2.0398393
  34.4633026  17.6850567   2.1862829  25.6449051  56.7150383  15.1739140
  24.8676777  57.1727104  15.4943647  25.6323872  56.8557281  14.2271919
  38.6847916  58.6227722   9.2540178  38.1789932  58.4972649  10.0569172
  38.6176338  57.7853546   8.7952671  74.1688461  50.7662277  27.3840656
  74.8353958  50.7220840  26.6985073  73.4554520  51.2701187  26.9924145
  84.6751251  32.2870445  59.4412270  84.8455124  32.2073021  58.5026970
  85.1685333  33.0622673  59.7092133  60.4202080  70.8159866  53.7504005
  59.5304794  70.7024689  53.4161339  60.3291931  71.4472656  54.4641457
  75.6429977  50.4800491  12.6536226  76.1775208  50.8865242  11.9714985
  76.2731018  50.0250473  13.2123451  75.8703384  40.4380836  12.4497805
  76.4026871  40.5858116  13.2314558  75.8001099  41.3008728  12.0412579
  54.0094070   4.3484182  11.3311920  53.2119980   4.4210124  11.8556938
  53.9441872   3.4894793  10.9138174   8.7520466   0.9282545  51.4761734
   8.6770859   0.4149791  50.6717110   8.8577967   0.2752107  52.1679688
  41.3280525  15.8109379  72.2619324  40.7551079  15.0982494  72.5448380
  42.0583038  15.7910872  72.8804550  84.3613510   6.4914160  58.5856972
  83.6674500   5.8804388  58.8335686  84.3463821   6.4953771  57.6286240
  41.4646416  49.2153358  77.8523026  40.8251343  48.5045929  77.8063736
  40.9377594  50.0139122  77.8223038  74.9912109  16.6548595  33.4182625
  75.3056641  17.0382805  34.2370033  74.3280563  16.0203743  33.6900749
  44.9903755   0.3333514  14.1624899  45.7989082   0.1440684  13.6863813
  44.6580505   1.1360011  13.7605619  45.1675301   6.8306937  31.8064632
  44.8298454   6.8819165  32.7006531  46.1046982   6.6678171  31.9133205
  76.7592392  49.2204704  34.1219673  77.2315140  48.3884659  34.0910988
  76.0042648  49.0466156  34.6841240  49.6239624  67.7512283  48.8674011
  49.8079033  67.6592636  49.8022499  48.9276161  67.1170197  48.6967888
  38.5213165  27.8450279  61.0762253  37.9327431  27.2307453  60.6375084
  37.9474182  28.3689728  61.6351128  66.4474564   1.0135213  50.6742783
  66.4846573   1.9129900  50.9995537  66.4714737   1.1021987  49.7214966
  35.6266441  66.5339584  68.2896423  35.4117661  65.8393326  68.9121780
  34.8761787  66.5643539  67.6962509  72.6838531  37.0743484  82.5325546
  72.9339523  37.9975014  82.4941711  71.7878265  37.0827484  82.8691483
  54.9599838   9.5852404  67.9986115  55.3846436  10.1928778  68.6041412
  55.6794624   9.2140284  67.4879379  60.6401901  29.1814613  78.1492386
  61.1258926  28.7861595  78.8731613  60.2368317  28.4397869  77.6981812
  53.9766273  23.3570232  80.6392517  53.1837921  23.8577957  80.8312759
  53.7908783  22.9247875  79.8056412  27.5873222  50.7589149  32.6560593
  27.8675957  50.4479065  31.7952747  26.8944378  50.1518631  32.9161263
  13.3264856  56.8002663  59.0885391  12.4389782  56.5521622  58.8296814
  13.2765760  56.9124184  60.0378342  35.3767471  45.6727028  80.1322098
  35.9643860  45.3455124  79.4511337  34.9421730  46.4258614  79.7320480
  57.9668655  70.5642090  15.6813974  58.7813568  71.0594254  15.7685175
  57.4534111  70.8103790  16.4508095  52.4777641   2.2371585  62.3652077
  52.0631180   2.7057056  63.0896149  52.5711746   2.8953233  61.6764946
  70.2751389   8.9130344  84.6553879  71.0824356   9.3943214  84.4741058
  69.8306046   9.4341736  85.3239899  27.8681202   6.0422912  88.5402069
  28.1046829   5.2339268  88.9949799  28.7051201   6.4726000  88.3655777
  25.7042599  30.5452843  79.6075287  25.0523243  30.7389221  80.2811203
  26.3016739  31.2928143  79.6304932  74.3578491  21.0290012   9.6361198
  74.0495987  20.8809013   8.7420959  75.2034912  21.4644489   9.5288515
  35.6630669  21.7339497  82.2690582  36.2607574  21.3626881  81.6200867
  34.9133186  22.0383072  81.7577057  77.4665833  45.5891914  23.0437641
  77.3232880  44.7424088  23.4664383  78.3075333  45.4943810  22.5965023
  51.3047180  45.7652931  58.3399963  50.6457863  46.3265190  57.9312592
  51.1259880  45.8301773  59.2781219  61.2804451  65.9449158  28.1345940
  61.7379112  66.1356888  27.3157177  60.7436142  66.7209091  28.2954502
  24.1758080  38.1312866  67.0584183  24.9269428  37.6586990  67.4171448
  24.5595055  38.7707329  66.4583206  29.8116531  68.2181320  71.2055511
  30.3647690  67.5307312  70.8343582  30.2955437  68.5275116  71.9712982
  65.5478363  61.8606186  35.7509842  65.6701889  61.0353394  36.2202148
  64.8264389  61.6875534  35.1461143  40.1491470  54.2705040  75.7400513
  39.3735771  54.8289948  75.7930603  40.5867233  54.3876228  76.5832825
  73.8580322  48.8446693  69.9688034  73.9010620  48.6809692  70.9109192
  74.4966965  49.5413780  69.8173523  63.2808914  56.5224380  84.3236923
  63.9735489  57.0470581  83.9221573  63.3585968  56.7002449  85.2610168
  73.8815613   1.1951518  11.9554691  73.9794388   0.4080940  12.4913721
  74.7482681   1.3343327  11.5737801  13.3755569  50.2440948  21.5454979
  13.9006472  49.4481049  21.6286659  13.9130440  50.8311195  21.0137672
   4.6688862  59.9326057  56.2444496   4.9943810  60.5627098  56.8873024
   4.8463378  60.3413773  55.3973083  28.4908600  56.4783249  25.1681786
  29.2231464  55.8962708  24.9652023  28.8208981  57.0439911  25.8662682
  25.1071110  54.0976410   7.2689090  24.5264015  53.5474052   6.7433162
  24.9724960  54.9819260   6.9280920  46.0430069  53.7170219  70.0746307
  46.9513626  53.5154228  70.2993088  45.7542419  52.9695702  69.5510254
  11.9961119  47.1760788  71.7096863  12.9338846  47.2194328  71.5227814
  11.9358807  47.2832642  72.6589584  52.4118767  52.7679291  32.8345871
  52.9745445  53.1681175  32.1716461  51.5788956  52.6229057  32.3858757
   3.2995117  67.9306030  43.9128685   2.7896767  68.7382889  43.8500595
   2.6885817  67.2409363  43.6533356  25.8262730  51.1567612  38.6890373
  26.2902737  50.3336182  38.8418999  25.7813740  51.2329750  37.7359352
  25.4726143  59.0846291  27.6578197  26.0079994  59.7939110  27.3021297
  24.6190681  59.1956825  27.2390614  42.6761436  67.0650177  56.2884445
  42.3842773  67.7262344  55.6608772  42.6522293  66.2429276  55.7987213
  78.4703293  20.9999714  47.4920502  78.7615051  20.2654743  48.0323868
  77.9496689  21.5418549  48.0849266  23.3416252  31.0302048  84.7703476
  22.9084873  30.3343697  85.2647476  22.7083416  31.7479191  84.7619553
  79.0377197  13.6956558  83.3865128  78.1195984  13.8907061  83.5742493
  79.5178146  14.0684042  84.1259689  77.2201614  21.7267437  70.3658752
  76.7260437  22.5410271  70.2709274  76.6133499  21.0436897  70.0804977
   1.7832167  13.0078850  24.9694557   1.4596639  12.7794800  24.0980339
   1.2666798  12.4663687  25.5662651  69.3793182  19.0254784  35.4241829
  69.8968506  19.5097923  36.0674820  69.9130859  19.0370178  34.6297035
  32.5668983   2.0226355  88.9977493  33.2001915   1.5388663  88.4675217
  31.9862957   1.3488191  89.3514481   1.9642357  63.4694405  72.1346054
   1.5721895  63.4076042  73.0056458   1.2248406  63.6380806  71.5505829
  28.1427250  38.7472343  47.2031670  28.4669132  37.8467484  47.1870041
  28.3662415  39.0977745  46.3409653  14.0961866  33.8871727   1.4175609
  13.6166801  34.6961212   1.2389305  13.8228712  33.6366234   2.3000321
  17.1205120  29.9431992  73.9610291  17.3264561  30.6729336  74.5452423
  17.5630703  30.1608944  73.1406784   3.3089738  16.2141304  11.9142599
   2.5189185  16.7357178  11.7728691   3.9865339  16.8573647  12.1225729
  21.7175465   8.6641130  44.3027229  20.9839745   8.1808910  43.9224586
  21.3914413   9.5590496  44.3974686  84.3755035   9.3113527   8.1471548
  83.8861847   9.0966520   8.9413204  83.8141403   9.9299917   7.6798368
  84.7741394  49.0860405  43.0362129  83.8550797  48.8307571  43.1161423
  85.1801910  48.3695259  42.5483932  61.9044456  20.6129360  51.4258728
  61.2470474  19.9506073  51.2128525  62.7194786  20.1198730  51.5198975
  37.0539627  48.4590149   4.7861986  37.3546219  47.6876373   4.3057723
  36.2236290  48.1884995   5.1781130  76.6760483  69.1021271  53.9888840
  77.6101456  69.3093643  54.0163155  76.5548096  68.4508743  54.6798248
   3.5530829  13.5188360   5.3038034   4.1166883  13.7874317   6.0293627
   3.8026252  12.6112337   5.1299706  62.8996696   9.6573801  41.8461609
  62.3833961  10.2566757  41.3071442  62.2491570   9.1098270  42.2857666
  48.4846725  30.4362087  74.0888824  49.2803612  29.9730263  74.3507538
  47.9562073  30.4740505  74.8860779  65.5890961  44.4095268  37.8233643
  65.7176285  43.5677032  38.2604523  66.4658203  44.7906532  37.7750816
  31.4222927  41.2353554  65.5583267  31.9953671  41.5248146  64.8483734
  31.9371796  41.3737488  66.3532944  46.2510529  17.5811214  76.1441040
  46.0763474  16.9938469  75.4087067  46.5655899  17.0052490  76.8410110
  17.5949650   9.4232922  10.9796524  16.9785976   9.4846306  10.2498856
  18.2125130  10.1396685  10.8324356  60.7221909  40.3233757  54.9000587
  60.1586266  41.0859795  55.0306854  60.3902054  39.9142990  54.1008873
  20.6443977  65.3816910  20.1937561  20.9482708  64.4833527  20.3236713
  20.2780399  65.6354752  21.0408726   3.5015695  55.8891296  77.0837097
   2.9624135  56.4412117  76.5173569   4.3511128  55.8526421  76.6441879
  32.8657799  47.2385445  24.9000607  32.6302032  46.6078873  25.5805035
  33.4126129  46.7414360  24.2917118  69.2618790  70.2871704   7.7823548
  70.1841965  70.4790649   7.9518652  69.2588730  69.3820801   7.4708414
  18.3630047  21.9879131  11.1992769  18.6205978  21.3672352  11.8809195
  18.8786545  22.7731266  11.3830624   9.4280596  63.8699150  82.0393982
   9.4642715  64.4530716  81.2812119   9.7900209  64.3884964  82.7579346
  82.2831726  52.8815536  80.2345963  82.5895920  52.0838737  80.6659317
  82.8908234  53.5607147  80.5273972  51.0291023  51.1216736  84.7872925
  50.4877281  51.9107780  84.8087463  51.7405281  51.3025169  85.4016190
  67.1429901  61.0311699  87.5349808  67.1742783  60.2145958  88.0334320
  68.0602112  61.2859344  87.4348297  52.4113197  69.7928162  50.8392906
  51.8254128  70.1592331  51.5016174  52.5076904  70.4913177  50.1919632
   0.6100976  30.3048191  45.9687424   0.8595381  30.2684460  45.0453300
   0.9981967  29.5186310  46.3528214  44.6151810   8.1526918  59.1427612
  45.0452919   7.6184902  58.4750328  45.1886711   8.9117804  59.2482262
  83.4390564  57.7129059  43.8873863  84.3061142  57.6578064  43.4856377
  83.5755539  58.2290535  44.6818619  84.0535431  41.3041267   7.4980135
  83.4166412  40.5991974   7.6149039  84.6222534  40.9983521   6.7914004
  19.7801552  69.1902390   5.5274744  20.0631409  69.2145309   4.6133838
  20.5791626  69.3496399   6.0298762  73.9249268   8.6869230  11.3344707
  74.3745499   9.5310535  11.2956409  74.2974930   8.2521658  12.1015511
  49.8703766   4.0197334  26.2486515  50.2980461   4.6096168  26.8694324
  48.9421844   4.2472863  26.3025665  85.6286392   0.6979117  46.7356300
  85.0258942  -0.0454126  46.7156219  86.2748413   0.5006003  46.0575981
  55.6167908   5.7795138  87.5148544  56.4823036   5.8689203  87.9137650
  55.7341576   5.1170778  86.8339462  44.2740135  58.1132126  78.7771606
  43.5555153  58.7454529  78.7933044  44.2414627  57.7360535  77.8979950
   5.0236297   4.6801887  58.4142761   4.3107800   5.2952256  58.2416306
   5.5043788   5.0696530  59.1446381  11.9320421   7.1929755  11.3214407
  11.5745525   8.0149651  11.6572485  12.3728724   6.7983837  12.0739021
  67.4119492  51.4483681  53.6603889  67.6162033  51.8770943  52.8293037
  68.2347794  51.0383263  53.9269447  69.9005203  40.0475044  88.2733002
  69.9888382  39.6084595  87.4273300  68.9616089  40.0247345  88.4580994
  40.4928131  57.6568298  19.1632843  40.5549927  57.8305931  20.1025238
  41.1008492  56.9330292  19.0128441   1.3621664  46.1055489  70.6707001
   0.4268754  46.2278976  70.5079346   1.6162144  46.8671455  71.1919098
  66.0806732  51.8012543  76.7310867  65.1720200  52.0404778  76.5484695
  66.5266037  52.6378174  76.8635178  36.4476662  66.2743225  27.3510323
  37.1965904  65.9172974  27.8283958  35.7004623  65.7618713  27.6597576
  78.5913696  35.2713585  55.7755013  77.9637070  34.6478729  56.1409264
  78.4770889  35.1987419  54.8279266  52.5603523  10.2516880  28.4736557
  52.4041367  10.9290380  29.1317024  52.9481392  10.7205381  27.7347145
  79.5160599  49.1987762  15.5692463  79.8079758  49.8572044  14.9387770
  78.8087845  48.7349815  15.1210442  44.3257294   4.6741652  22.1521721
  44.8759041   4.0042071  21.7463436  43.8121338   5.0329719  21.4284935
  38.4819183  39.7365494  36.5085030  38.1785240  40.5776215  36.8502388
  38.2328835  39.1013527  37.1798744  56.6583481  17.4445553  51.9604492
  57.1716385  17.3617001  51.1567726  57.0524101  16.8132763  52.5624733
  39.4404869  57.3592148  26.3563118  39.4186440  57.1415901  27.2881889
  39.9381256  58.1757202  26.3126335  44.7386589  53.1437874  38.9668083
  44.7071266  54.0884361  38.8155403  44.2966614  52.7646866  38.2071037
  17.5904655  27.2840862  16.2383537  16.9965038  27.1157570  16.9698639
  17.9489174  26.4242878  16.0181484  83.7425308  17.7696400  67.3520660
  84.6785965  17.6018047  67.2432709  83.6023865  18.6217060  66.9390564
  80.9186172  61.2624931  29.2621956  80.1546402  60.6858368  29.2688313
  81.4857407  60.9166527  29.9513969  81.1541595  27.0307503  55.8363762
  80.8442459  27.9272270  55.9648781  80.8803864  26.5669460  56.6276855
  61.7456398  12.5080185  51.7720184  62.6645737  12.6631250  51.5535393
  61.5124397  11.7200642  51.2811241  22.3628006  35.0503769  84.0929031
  22.3242397  34.2614212  84.6335449  21.4871578  35.4308548  84.1616211
  71.9534912  25.8187103  45.9648438  71.3262863  26.5306721  45.8385201
  72.4154663  26.0468102  46.7715530  50.0795593  70.0714111  85.6439285
  49.4620361  70.7957382  85.7452011  50.8246880  70.4548340  85.1813202
  41.2094994  53.7757339  54.6867523  40.7797775  53.1323586  55.2503471
  40.5635605  54.4748383  54.5855293  10.9140320  45.9877434  46.8675728
  11.5474796  46.7040443  46.8241119  11.0815649  45.5708084  47.7127495
  59.5391502  60.0190811  21.2725716  59.7645798  60.1585236  22.1923370
  58.7925415  59.4205780  21.2970390  34.5572395  51.0317192  53.4422302
  33.8881950  50.9668808  54.1237030  35.1556473  51.7089195  53.7577400
  20.4082241  46.8807144  26.2698917  20.1018543  47.2831268  27.0825634
  19.7138729  46.2671242  26.0298538  83.3346786  44.6368980  62.0188828
  84.2749100  44.4797211  62.1054344  83.1015854  45.1331978  62.8034744
  11.8096075  28.1084194  67.6227875  11.9646940  28.4329243  68.5098419
  11.7722664  27.1567974  67.7189865   9.4152336   9.2121143  21.8387070
   9.5999355  10.1389046  21.9909496  10.2394934   8.7678471  22.0373383
  43.7771378  62.2415581  19.2039165  43.7133598  62.9037132  19.8921833
  43.0056572  61.6892967  19.3306351  50.3101311  70.3552551  41.6444626
  50.6694756  69.5277939  41.9644814  49.3723564  70.1884232  41.5497017
  40.9804382  25.7100754  76.9089737  41.5717926  26.3185120  76.4658813
  40.3442955  25.4628029  76.2378464  23.3173790  34.0809059   4.8897634
  22.3917465  34.0432281   4.6488967  23.7663155  34.3201447   4.0789285
  84.0162125  58.9017334   1.3431146  84.1975632  58.8922768   0.4032989
  83.5427551  58.0855179   1.5039105  54.6109352  47.9049377  19.3045502
  54.8020325  47.1322441  19.8362045  55.1154442  48.6079674  19.7137566
   7.8594322  70.4084930  49.9149704   8.0685205  69.6104965  49.4294624
   7.5945177  71.0357132  49.2421799  36.7725677  34.7995834  79.3174210
  37.1480446  35.6292953  79.0227509  36.0292091  34.6520195  78.7327271
  11.1959295  39.5465622  56.8170929  10.5597858  39.0668068  56.2866325
  10.6680994  39.9902611  57.4809875  24.2115402  33.7278175  26.6626892
  24.9221554  33.1211815  26.8706532  24.1165390  34.2642632  27.4497318
  50.9845314  29.5737724  24.2049198  50.4884796  29.5114594  25.0211811
  51.8967171  29.6516609  24.4843464  35.7477760  41.3164673  47.9166031
  35.2190475  41.7251816  47.2313080  35.9433594  40.4424133  47.5789528
  46.8074570  58.2370682  64.1126099  45.8850632  58.4447021  64.2619705
  46.8292351  57.8633385  63.2316551  23.4731770  48.3448372  59.0968094
  23.2118530  49.2587318  58.9839211  24.4172325  48.3443985  58.9387283
  45.8646660  59.1480637  83.9006195  46.7452393  58.9422836  83.5868073
  45.9068375  60.0731277  84.1429138  56.7205276  10.5748158  48.5108833
  56.8203049  10.1014090  49.3368149  56.9518890  11.4789505  48.7235870
  32.7152901  65.7714157  82.4779053  33.2378426  66.5580750  82.6338959
  32.6610260  65.7050781  81.5245438  15.4650736  32.5335159  75.9257584
  16.1829281  32.0181694  75.5578766  15.8561897  33.3856506  76.1184311
  83.3810501  31.7255020  48.5385056  82.6302643  32.0849457  48.0659142
  83.6752396  32.4418640  49.1011009  20.0645103  60.3904228  27.5841770
  19.7959023  61.3007660  27.4602623  20.3659191  60.3510666  28.4918308
  70.8256989  58.5729523  47.0691910  70.0209274  59.0709686  46.9258347
  70.5272598  57.7250671  47.3982201  43.1253471  37.7045174  64.6680298
  43.1844177  38.5981903  64.3302536  42.5977516  37.7832527  65.4628067
   8.3340187  48.9489517  86.3045883   9.2152433  48.6522713  86.0773087
   8.2683477  49.8223877  85.9185410  39.0571251  54.1894646  28.9139729
  38.2680740  53.7043533  28.6725216  39.2690964  53.8791199  29.7943039
  43.5221825  38.5486145  16.6551361  43.2992592  39.0451202  17.4425507
  44.2794991  39.0061226  16.2899036  38.5803337  39.6257095  74.1144409
  39.3895836  40.0992546  74.3070450  38.8647003  38.7304268  73.9304810
   5.7898765  56.5395470  65.0750885   4.9604940  56.2051735  65.4164886
   5.6367660  57.4759331  64.9487076  63.7309799  40.4470634  30.3275204
  64.3368073  41.1731834  30.1793442  64.2423553  39.6634827  30.1257019
  25.1061840  22.6077366  63.2959518  25.9524364  23.0086117  63.0974884
  25.3213730  21.7145481  63.5645485  17.3712730  60.2065849  48.4570808
  17.0765591  59.3000374  48.5439529  16.9505272  60.6659088  49.1838722
  -0.0153302   2.8828070  37.5124474  -0.1810341   3.7964077  37.2798386
   0.6018336   2.9297092  38.2426109  70.0947189  22.0677719  76.7157135
  69.4510880  21.6826878  76.1210022  70.7289124  21.3672676  76.8684311
  80.5587311  62.9392242  21.0015259  79.8986282  63.3494835  21.5602531
  80.7965469  63.6201210  20.3722000   1.4648482  44.3073044  61.4230919
   0.6462885  44.7532234  61.6406898   2.1392787  44.9776115  61.5329208
  37.6678734   0.8925438  28.8440590  36.8726616   0.9925366  29.3673897
  37.9442787   1.7891822  28.6546631  52.2525139  70.5112534  80.9480515
  51.3227768  70.6975403  80.8172150  52.2808952  69.5818787  81.1753845
  60.5234108  44.7214622  66.7650223  60.7277908  45.2532501  65.9958267
  60.7687416  45.2718277  67.5087585  20.2418671  71.7635040  43.9234924
  20.0075130  71.6198120  44.8403702  21.0486107  71.2630539  43.8012238
  81.2570724  63.6544724  24.5285435  82.1209030  63.2555122  24.4243526
  81.1066437  63.6565437  25.4738483  52.4161148  18.1644096  35.9569397
  51.6797447  17.7985821  35.4668732  53.0584412  17.4554443  35.9888306
  26.6347561  31.7019138  72.0456467  26.6100788  32.4037399  71.3952179
  26.3397408  32.1163330  72.8564835   8.1757736  59.1028061  56.6186409
   7.3214226  59.5239677  56.5240898   8.7060986  59.4762115  55.9146805
  74.9681702  38.3134995   7.1987429  75.7023315  38.8582573   6.9150681
  75.3745651  37.6044235   7.6970191  24.0007362  46.1054459   7.5283003
  24.3446655  45.2190285   7.4178114  23.1060982  45.9776421   7.8437710
  85.2848587  14.3027401  55.8489151  84.6020203  14.9735346  55.8508186
  85.1655273  13.8371410  56.6766891  65.9827499  64.2247543  22.7470837
  65.9560928  63.6880531  23.5392170  65.8194122  65.1159058  23.0559578
  10.1181545  26.4375172  57.6357002  10.4832125  25.5669441  57.4773788
  10.3665037  26.6410141  58.5374413  21.1527157  68.9772415  33.1713943
  21.6944408  68.2624588  33.5058441  20.4653740  68.5413437  32.6676292
  46.4415283   8.0138645  24.6664772  45.6626015   7.4665866  24.7664242
  46.9451714   7.8619990  25.4661713  74.8916473  64.7770691  54.3379555
  74.5555878  63.9558945  53.9788399  74.2582321  65.4378891  54.0580559
  73.9305725   5.4029145  48.7682610  73.3967743   5.0805683  49.4944763
  74.5363083   6.0235944  49.1733170  45.7575951  56.3454208  25.7555237
  45.9096413  56.9210739  26.5050125  46.6332779  56.0733109  25.4809856
   1.0352271  49.2557373  37.6823158   0.2407259  49.7021599  37.3895607
   1.6607257  49.3882484  36.9699821  24.0531178  47.2214165  47.8651237
  24.2078991  46.2768288  47.8703270  24.6775455  47.5629196  47.2250481
   4.2078929  35.9870682  10.3798475   4.9803047  36.4848557  10.6478367
   4.5081496  35.0788078  10.3460340  23.7720318  25.7026501  87.5386658
  23.1540070  24.9747906  87.6057434  24.4467793  25.3892002  86.9364243
  10.5212374  60.3492889  27.0457458  10.9263439  60.6835556  27.8459873
  11.0332127  59.5711975  26.8250942  64.1023560   4.3893075  20.7018299
  64.0603104   3.6985977  21.3631802  63.2378693   4.7994027  20.7285118
   3.2364867  35.7460861  47.8834801   4.1493020  35.6037483  48.1339607
   3.2597725  35.8284225  46.9301147  84.6190109  55.7527771  28.4538269
  84.7019806  56.3750343  27.7312298  84.9661789  56.2202682  29.2135353
  55.1516151  44.2042542  51.4567108  55.0910912  43.3210831  51.0925980
  54.2716942  44.3886757  51.7852898  21.4770718  66.9446793  73.6249390
  22.0789452  66.3499146  74.0724106  20.6089153  66.5784836  73.7935638
  41.2082405  35.6360168  30.1534634  41.7445145  36.2279892  29.6260052
  40.3064880  35.8665390  29.9300079   6.1813531  53.4941788  40.9011154
   5.2524076  53.7205963  40.9461441   6.3560209  53.3841324  39.9664459
  82.8072281  15.3919191  18.2186089  83.5296707  15.4244995  18.8457012
  83.2268372  15.2022581  17.3794518  78.8862610  52.7091217  49.1689644
  79.7789764  52.6745834  48.8252983  78.3313675  52.7529564  48.3902473
  66.8113937  44.6150475  17.0248489  67.4650421  43.9297485  16.8857632
  66.0008698  44.1395416  17.2069798  69.2563248  59.5159035  26.3374367
  68.4067383  59.5562210  26.7765331  69.3209915  60.3454590  25.8642693
  55.7886200  58.3533897  47.3445930  55.0415688  58.8625984  47.6589966
  56.3070107  58.1787033  48.1300774  84.1227341  31.3611183  34.5546532
  83.6738663  30.5158081  34.5403366  83.6183701  31.9103184  33.9544601
  79.6740417  42.5633888  66.0919724  80.1945419  42.2572250  65.3492966
  79.0516510  43.1819077  65.7094879  51.0139503  16.1012173  30.7474174
  51.9174118  16.1590786  30.4365444  50.9707184  16.7219353  31.4747887
  17.6305828  28.2692337  64.9043350  17.1698971  28.8860760  64.3355560
  18.5309067  28.5932846  64.9296188  24.1374359  26.4175720   6.5174642
  24.9056931  26.3009796   7.0764089  24.2112198  27.3151112   6.1931033
  84.4261856  31.4811764  15.4386578  83.5127487  31.7414722  15.5574121
  84.6034164  30.8889370  16.1694603  44.1967621  19.5772152  68.6421738
  43.8683052  19.3233376  67.7796860  45.1457481  19.6329918  68.5301666
   1.8816017   0.7020495  79.4810410   2.4187024  -0.0854278  79.3936615
   2.5139811   1.4127061  79.5873184  81.8691559  13.5255423  33.6752739
  82.7450562  13.2595692  33.3954697  81.2764130  12.9865131  33.1515045
  20.0170288  10.4172707  88.1534424  20.1438904  10.0078039  89.0092926
  19.7111015   9.7060194  87.5906296   5.3181176  46.5374413  32.6960373
   5.5097690  45.6213646  32.8967972   5.5211258  46.6260986  31.7648239
  74.1638336  67.2574387  83.1451340  73.6453171  66.9622421  83.8936157
  74.5173416  68.1041870  83.4176788  50.0579948  22.1613979  64.0848465
  49.7872276  22.5645657  64.9096985  49.3830338  21.5068703  63.9052582
  19.3324890  14.7182436   7.2233801  19.5035458  14.1351166   6.4838305
  20.1441078  15.2143860   7.3299046  61.4915276  24.8087406  47.3694954
  61.3942337  25.5683327  47.9437675  62.0143089  24.1891212  47.8784218
  86.1122284  40.4383354  31.4481888  85.2284241  40.5594902  31.1011391
  86.2143326  41.1382561  32.0931053  51.3523369  30.7090797  86.2649231
  51.4891853  31.2190380  85.4665222  50.6342201  30.1141682  86.0489960
   8.3487492  15.7017632   1.8505124   8.0938406  16.6236916   1.8866150
   9.3058004  15.7174616   1.8568108  59.2886887  62.2724533  53.7864189
  58.6613617  62.6836777  53.1917877  59.9712677  61.9255714  53.2119713
  64.6231613  52.0718842  17.6580315  64.2265167  51.4578476  18.2759857
  64.3680267  51.7427139  16.7961826  43.5818443  20.4462776  55.8479385
  44.3347244  20.0580997  55.4021530  43.5478401  21.3455391  55.5217400
  48.8048820   2.9758124  13.6747561  48.5214119   3.8771644  13.8278599
  48.3404427   2.7102182  12.8810377  31.0350094  41.8631783  81.7042389
  30.4761314  41.0861130  81.6966171  31.0016499  42.1910210  80.8055573
  23.2623558  10.3770466  80.7913055  22.3350124  10.5040569  80.9916382
  23.7044773  11.1012487  81.2343597  43.8319855   9.8577213  67.5354843
  43.4259949  10.4080238  68.2052383  43.1547852   9.7553492  66.8667908
  55.1096458  66.0084457  39.7795105  55.1866837  66.0247726  40.7334671
  54.5541382  65.2505951  39.5970192  64.0846634  15.9752884   6.7606931
  64.3337784  15.1762333   7.2251139  63.5547943  15.6692047   6.0246344
  45.1577110  17.4269447  87.0512009  44.9331169  17.1944313  86.1502380
  45.1598701  16.5926495  87.5204315  16.2511330  18.1998005  17.5920372
  17.0173244  18.7128849  17.3352776  16.4688816  17.8626747  18.4610386
  73.3010864  35.3889847  29.2384853  74.2254868  35.4715233  29.0041943
  72.8329773  35.5083389  28.4121323  63.0027618  40.5246582  22.5422096
  63.8800125  40.8498383  22.7445030  63.0541458  39.5821419  22.7011299
  27.1243896  39.7541809  60.8900375  27.6468849  38.9764137  60.6943054
  27.5552750  40.4598007  60.4076767  13.4563608  60.7219467  31.7899055
  13.9721470  61.3875999  32.2449913  14.1047850  60.0974503  31.4646645
  41.2597885  54.6457672  68.9812622  41.1035652  55.5878220  69.0473022
  42.2131195  54.5600357  68.9878922  61.7752571  49.4806213  45.5957375
  62.5242767  50.0758095  45.5648422  62.1646385  48.6064148  45.6150970
  11.7329836  38.2398415  63.8844795  12.5284090  37.7381363  63.7060928
  11.5222721  38.6593323  63.0503006  58.0079575  31.0011005  51.7812080
  57.7871628  30.5208778  50.9831657  58.9057159  30.7352028  51.9801064
  49.1559258  64.7813721  59.2061958  49.1723061  63.8867645  58.8661270
  48.4513588  65.2095795  58.7199364  65.3972855  26.7065620   7.6304159
  66.2115250  26.7118092   8.1336279  65.3523178  25.8264523   7.2567635
  65.4383316   9.9287930  89.1933746  65.7654724   9.0366993  89.3090439
  64.6565247   9.8286638  88.6502533   7.0167451  35.8753700  88.3050842
   7.1923079  35.7752304  89.2406998   6.0965438  35.6309242  88.2065506
  29.3019676  63.3136597  30.7670383  29.8061218  63.2730637  29.9543819
  29.7593365  62.7200203  31.3625507  47.1931763  26.1937656  82.9925919
  47.1672974  25.7761593  83.8535004  46.5189629  26.8719044  83.0349731
   3.4231086  37.9552994  72.8814316   3.5964994  37.1798096  72.3477859
   2.6040311  38.3074799  72.5331268   7.1979337  55.5720444  47.4027824
   6.5480685  54.8712616  47.4558144   7.0353770  55.9857903  46.5550690
  74.5927582  65.6659698  76.9861984  75.2102203  65.0648575  77.4029007
  74.9695282  65.8358688  76.1228256  78.0198059  27.3046818  53.5156097
  77.9837875  26.3559799  53.3935432  78.3960190  27.6369305  52.7005615
  27.8252544  37.4750595  70.2064285  27.8353119  36.6819611  70.7422714
  27.7421589  38.1896667  70.8378220  42.0383759  59.5820274  79.5630646
  41.4831581  60.2757683  79.2071304  42.3710709  59.9400787  80.3860779
  52.2766914   9.7048674  48.0953217  53.0418587   9.9288321  47.5656090
  52.1607513   8.7639971  47.9628410  44.0279045  68.9603500  60.1138153
  44.0092812  68.2108765  60.7089348  43.1112633  69.1005325  59.8764381
  48.4673691  55.9213524  41.7616692  48.8068352  56.2497978  42.5942078
  48.1479797  56.7017403  41.3086586  80.9359131  26.0391998  47.8288345
  80.6393127  25.9477978  48.7343216  81.6286469  25.3851070  47.7365303
  37.7655373  26.3158169   0.5753265  38.2140579  26.0481129   1.3774458
  38.3214035  27.0031052   0.2080640   3.4210591  10.8702030  73.9040680
   4.2480421  10.6462202  74.3308716   3.2911377  10.1782808  73.2555389
  74.2969818  58.9931870  70.9188156  74.9202271  59.6905403  70.7151184
  74.7967529  58.1847038  70.8056107  24.8349323  62.1807060  15.4637718
  25.1205616  63.0691872  15.6764879  24.7116032  62.1895676  14.5145912
  78.6902847  60.3533974  10.7209892  78.3778458  60.5625381  11.6012573
  78.4630432  59.4316101  10.5988941  68.6971512  41.1623077   3.4113331
  68.9478912  41.7723389   2.7176330  69.2969971  40.4234428   3.3088953
  14.6267385  49.6254234  75.2292557  13.9327717  50.1876183  74.8848953
  15.4264259  49.9522858  74.8170776  80.6360321  53.0356560  41.1062889
  80.5313187  53.3910065  41.9888916  81.1262360  52.2231445  41.2318230
  60.5002136  69.5178909  36.3672600  60.8210144  69.8066788  37.2216148
  59.9826202  70.2553329  36.0439949  76.5521317   0.7878382  43.6309853
  76.2515030   0.3831396  44.4446678  76.5468826   1.7272613  43.8145294
  85.1089020  38.9844437   4.2468629  85.5639648  39.8109360   4.4082952
  85.3865509  38.4141579   4.9637413  77.7549591  41.3502693  49.6628036
  78.0673752  41.1159325  50.5367088  76.8573990  41.6521950  49.8022995
   1.8796546  21.0148678  11.9015560   2.1578412  21.3468628  12.7551498
   0.9499494  20.8163261  12.0131855  62.8218269  50.2256699  16.6325397
  62.5540657  49.3751640  16.9806423  63.4600639  50.0153084  15.9508991
  74.7169800   1.6106817  67.1529007  73.9757004   1.1418942  66.7695389
  75.3958588   0.9435093  67.2540588   2.2541678  63.0356483  58.9443703
   3.2025845  62.9921455  59.0662117   1.9254547  62.2244301  59.3317947
   4.9692087  56.2176323  80.6396942   5.5570903  56.3178596  81.3884125
   4.8499331  55.2717857  80.5537567  62.6108856  14.9185581  28.1254673
  61.9344406  14.3862276  28.5441265  63.2033768  15.1570520  28.8384228
  50.4316902  18.5706902   7.6917310  50.5807152  19.4086075   7.2536449
  49.9483948  18.7983017   8.4859934  45.7546234  48.2060623   3.5441773
  46.2716675  47.7747383   2.8638456  44.9905663  48.5507431   3.0819590
  16.3226013  17.2351398   9.8935156  17.0188751  17.0096436  10.5104303
  15.5629454  17.4184666  10.4462786  25.3839073   3.3674843  40.0286751
  26.0480366   3.5502298  40.6933327  24.5897942   3.7848494  40.3624725
  56.7023392  32.5600395  69.4863129  57.1690903  33.3016739  69.1011429
  57.0591774  31.7933998  69.0378036  39.6686478  50.7434349  52.5744514
  38.8230591  50.2972450  52.6205635  39.4502983  51.6477890  52.3492851
  33.7755089  61.7732506  88.0856171  33.7749710  60.8474197  87.8425751
  34.3740845  62.1842651  87.4619141  73.6051788  13.7987499  10.3874750
  73.0488205  13.0803003  10.0865917  73.8529892  14.2612352   9.5868940
  63.0896797  39.7061081  48.6338043  62.7869072  40.3431549  49.2808990
  62.6236267  39.9400635  47.8311272  51.9677620  12.6925230  47.0187416
  52.4182434  13.4220238  47.4443321  52.4181824  12.5891447  46.1804886
  84.1790161  38.0286179  69.9263229  84.5210876  37.2678986  70.3959274
  83.8483734  37.6722908  69.1017456  40.1030426  61.8953934  15.2591038
  40.6371040  62.6708031  15.4315701  40.0450974  61.4514618  16.1051521
  70.5800171  44.4259872  16.9621296  69.8110657  43.8711624  17.0929718
  71.3112411  43.9034500  17.2915115  15.6882830  38.4188385  31.7378082
  14.7683048  38.3424416  31.4847546  16.1041336  38.8618774  30.9982033
  47.0778809  23.7172394  58.3281326  47.2717857  24.6375389  58.5061302
  46.1677437  23.6066875  58.6031952  10.1197081  19.5835228   2.7950139
   9.8407249  19.2996693   3.6655464  11.0241451  19.8727207   2.9158041
  61.7822609  16.8504257  63.1509666  62.3076859  16.6292572  62.3820381
  61.4039345  17.7051640  62.9447517  22.4716835  51.4585075  26.3576450
  22.3349762  51.6831055  25.4372654  23.4141788  51.5589371  26.4912548
  63.1065292  67.3399658  10.5487595  63.2906189  66.4564743  10.8677874
  63.3938866  67.3296585   9.6357689  73.0201950  17.5873604  23.4959946
  72.4660645  18.0766907  22.8879395  73.9138107  17.8320942  23.2556152
  72.7627106  51.7216682  84.7422180  72.5885010  51.8575783  85.6735611
  72.8808594  52.6036148  84.3894501  14.5066681  59.6682701  67.3247223
  14.3806868  60.5653877  67.6338120  14.7429085  59.7637825  66.4020615
  57.8890152  65.5112076  58.3580399  57.9560127  65.5465012  57.4038391
  56.9488945  65.5503616  58.5337410  16.6351738  66.6001129  44.5758095
  17.3271618  65.9389954  44.5584717  17.0900402  67.4176865  44.7780533
  10.2600937  69.1946106  63.2304192   9.7640162  68.7835236  63.9383392
  11.1452560  68.8420258  63.3221092  57.9622078  29.8303566  46.3142700
  57.4437637  29.9239769  45.5150909  58.8421669  29.6151676  46.0050888
  78.4694748   9.5787735   3.5832336  77.9964523   8.8439322   3.1927369
  78.1498489   9.6174850   4.4846616  32.9385796  32.7977905  64.3534317
  33.1358833  33.5065002  63.7410316  33.7351418  32.7039642  64.8758469
  53.3269463  47.7638741  40.1318016  52.5820808  48.3612099  40.1995888
  53.2994232  47.4482536  39.2285500  33.0400620  15.6657963  87.1892624
  33.5254211  16.0595245  87.9142685  32.1873932  16.1003571  87.2078705
  45.5785561  52.6439972   2.6031489  45.8505402  51.7935257   2.9480383
  44.6671677  52.7348785   2.8812587  56.3766403  64.2546082   8.3455982
  56.7016487  64.6399307   9.1593132  56.4484100  63.3099747   8.4824982
  42.0254936  49.5457687  70.8570709  41.6986809  49.4546013  71.7521210
  41.3139992  49.2169266  70.3076401  67.6354675  12.8379335   6.7037148
  67.4732208  13.7664022   6.8706107  68.4857635  12.6668129   7.1086221
  11.2935667  19.2881641  88.1025467  11.5609617  19.8917179  87.4093933
  11.6450605  18.4403610  87.8306732  81.5038376  50.6362915  70.4183655
  81.1724930  50.3273621  71.2615738  80.9621658  51.3982353  70.2127762
  35.2051468  60.3564148  55.0558929  35.5723419  59.5397987  55.3943253
  34.3066292  60.1326294  54.8133736   6.1097960  66.9495392  75.0205536
   6.0402255  66.5790024  74.1407318   6.4264064  67.8419037  74.8802719
  70.9579391  10.6238422  61.6108398  71.3512802  11.4853420  61.4717979
  70.1698227  10.6298895  61.0676384  67.2588577  27.3379307  83.5489883
  67.2845993  28.2946186  83.5311737  66.6916580  27.1273651  84.2907257
  30.6452866  66.7142105  85.5690002  30.2169209  67.3234711  84.9677200
  30.5387001  67.1145630  86.4318924  68.2296982  19.7813988  67.5987778
  68.2103577  19.4006271  68.4767685  67.5524292  20.4575939  67.6159973
  71.7429962  25.1551247  35.2874374  71.9812775  25.2302094  34.3634148
  71.1305237  25.8755398  35.4361458  67.8806992  58.1206055  73.7246704
  66.9564590  58.0271797  73.9554977  68.1234207  58.9861183  74.0536194
  35.9719124  57.4282532  78.7290192  35.0600204  57.3401871  78.4516602
  35.9844933  57.0860977  79.6228867  40.2043304  41.6088905  24.8742142
  41.1445045  41.4294205  24.8646183  40.1249657  42.4461403  25.3313217
  52.2474556  12.4127808  38.7138786  51.7996483  11.9974995  39.4509277
  51.8082542  13.2571144  38.6117134  47.8736267  40.5276489  43.5577431
  48.3669052  40.6987000  42.7554703  47.8061180  41.3819618  43.9841499
  18.3239784  63.0336037  40.1047325  18.3660412  62.5548363  40.9325294
  19.1930008  63.4233055  40.0090103  50.6053123  35.7299423   7.3156123
  50.9959755  36.4321022   7.8357925  51.0290184  34.9325027   7.6330905
  11.0666075  22.4508743   2.5073826  11.2075634  23.3854446   2.3559177
  10.1147070  22.3508625   2.5180681  61.0181732  17.1645927  13.7061377
  61.0870895  18.0363388  13.3168564  61.8739281  16.7647324  13.5511360
  19.9046326  42.6616478  81.7010345  20.0079956  41.9089699  82.2832870
  19.7701797  43.4037552  82.2904663  42.3413200  70.2612991  38.1377678
  42.1402779  69.3319931  38.2482529  42.4853516  70.3650131  37.1971664
  31.1828995  57.5255165  58.2662621  30.9600468  58.3551369  58.6885147
  31.8787651  57.7504272  57.6486740  81.4200745   8.3111706   8.1269159
  80.4641342   8.2620678   8.1258821  81.6881027   7.7468553   8.8521318
   3.7212293  65.8966064  22.9950104   4.3001871  66.5355530  23.4106960
   4.2775288  65.1326447  22.8429585  82.4575500  47.9480438  80.2221451
  82.3146057  47.1821175  80.7781601  82.4728012  47.5979080  79.3314133
  50.0186501  66.9811707  73.8713760  49.3704033  66.6740875  73.2375793
  50.3589020  67.7916336  73.4924164  14.3632936   3.5697286  10.0212488
  14.8543158   3.8523216   9.2497110  14.7347097   2.7155704  10.2419186
  46.1081352  20.9453659  73.1489334  45.4235229  21.0161304  72.4836960
  46.6435852  20.2049618  72.8637543  74.7664871  27.8511944  85.0306244
  75.4956360  27.2375507  85.1201401  74.0064850  27.3693409  85.3568954
  75.8610382  56.6215477  77.6759186  75.6979828  55.9226303  78.3092880
  75.6246567  56.2389793  76.8309402  84.2691879  61.4813995  36.5680542
  83.7246094  62.1324654  37.0105209  84.6769867  61.9605865  35.8467293
  59.9927292  51.0031357  37.0523911  60.2899628  50.5518417  36.2623177
  59.4896011  50.3436127  37.5300102  53.3147850  49.7536049  62.3847275
  52.7173920  49.1515503  61.9410095  52.7741203  50.1816025  63.0486031
   4.5041027  48.5570183  50.6968040   3.7602770  49.1458817  50.5695457
   4.6335254  48.1464157  49.8418846  20.2996922  23.4882050  71.5686188
  21.0813675  22.9911747  71.8098221  20.4681091  24.3723927  71.8943176
  19.2322311  17.6679993  76.7522354  18.4621944  18.2263641  76.8594894
  19.7021465  17.7459755  77.5824890  27.4594135   4.3141470  76.8717880
  27.7646770   4.7793994  76.0929565  28.1411533   3.6651220  77.0456543
  79.9752121  40.2236366  12.4263992  80.0100327  39.3925323  11.9528141
  80.8205338  40.2811127  12.8717785  36.3181419  52.2394180  71.5826569
  36.8549118  51.7992706  70.9235840  36.7383347  52.0254021  72.4156494
  22.1563263  25.6758690  18.4877243  22.6699123  25.5869198  19.2905636
  22.1646004  26.6146202  18.3008766  80.5321503  38.5390396  10.3635855
  80.3811417  37.5956154  10.4217558  80.9548035  38.6619873   9.5135994
  56.7891769  33.9255714  77.5795212  57.0816536  34.6676407  78.1086960
  56.6196747  34.2999191  76.7150192  19.7640858  37.6901703  15.4592781
  20.1944733  38.1184311  16.1992741  19.0778389  37.1552200  15.8581839
  57.7505608  26.3466377  82.4700317  57.0268898  26.9619789  82.5878754
  57.4603577  25.7677727  81.7650986  80.1613312  53.1997261  21.3014641
  80.9949112  53.0485153  20.8559189  80.3729553  53.8157272  22.0028877
  44.9331360  71.0146790  61.3995590  44.6073189  70.2794724  60.8803825
  45.5944977  70.6281281  61.9734993  60.8099899  55.2805710  41.2467842
  60.6968307  54.6345901  41.9440193  60.6281357  54.7973595  40.4407654
  78.5200500  44.3807182  76.6235046  78.6036072  44.6362534  77.5421753
  78.6448822  45.1950150  76.1360931  44.9054451   7.0264812  46.8588867
  44.2703781   6.6564040  46.2457237  44.9303398   7.9589624  46.6441994
  27.3509712  46.9394531  15.3172035  27.7804337  46.7107735  14.4928865
  26.4240971  47.0167160  15.0909986  73.0832901  22.6956501  41.7271538
  73.2403488  22.9449062  42.6378860  73.9237442  22.8376446  41.2916145
  79.4328690  67.9426880  59.2227402  78.6439896  68.4713745  59.1027527
  79.1766586  67.0635071  58.9441223  13.6058855  44.0816307  24.9110851
  13.2567825  44.7364235  24.3064327  12.8817844  43.4704018  25.0464020
  67.1954880  28.2578602  74.5097351  67.1459579  29.1575298  74.1866608
  66.3917694  28.1406631  75.0162201  26.2072601  54.1520157  14.0305719
  25.9996090  53.2193832  13.9730387  25.5411720  54.5793571  13.4921141
   0.5246915  67.4821701  28.1883678   0.0160176  68.2890396  28.1080704
   0.3218465  66.9909286  27.3922729  17.6500416  34.6220818  66.4855118
  16.9524689  34.0971870  66.8780746  18.4283867  34.4096642  67.0005722
  24.3593311   8.4919853   0.5447265  25.2463741   8.5054502   0.9041752
  23.9477997   9.2829847   0.8928558  66.0502853  29.5915909  48.9448929
  66.2950287  30.4465733  49.2989197  65.9624863  29.0297508  49.7148666
  42.5285797  65.6314697  58.7924347  43.3337250  65.2293320  59.1184120
  42.8002129  66.1110458  58.0098381  22.2535400  55.2460556  80.2854614
  22.5816288  56.0508842  80.6865082  21.8018703  54.7911186  80.9962769
  70.7899704  26.2591362  76.2481689  71.0335083  26.8534164  75.5384140
  71.4275131  26.4377117  76.9394608  30.1464787  11.3816071  73.9553146
  30.6647587  11.6694994  74.7068024  29.7003479  10.5916519  74.2605515
  54.7759476  26.0010147  70.8515167  55.0147285  26.4898262  71.6390915
  55.4756393  26.1951027  70.2278214  81.3817596  68.4098206  34.4053383
  80.8109894  68.2337036  33.6573830  82.2673111  68.2755737  34.0676918
  54.9337006  11.5414238  41.6621094  54.5719757  12.4175262  41.5285721
  55.6051483  11.4538460  40.9855576   9.1825142  46.0590630  76.9529037
   9.2619448  45.3306732  77.5688400   8.6980019  45.6946182  76.2121887
  68.8783646  47.0198669  37.2705421  69.1824722  47.3415260  38.1192398
  69.6309052  47.1294174  36.6892395  75.7249832  58.3745384  52.1744232
  76.2815170  57.7090569  52.5789375  75.9730606  59.1905899  52.6088791
  47.1033058  46.9663544  45.3527832  47.7291641  46.7160378  44.6731682
  47.0975647  46.2247734  45.9579735  71.8442917   1.8276228  84.4501419
  71.7253952   1.7365874  83.5047226  72.7071152   1.4498107  84.6205063
  23.8878117  52.4157219  31.3555012  24.6308937  52.5034828  31.9524574
  23.8681183  53.2429657  30.8743477  47.3540382  36.4753227  75.1710129
  47.1724205  36.3753014  76.1054916  46.6043625  36.9647446  74.8323593
  25.1003113   2.6553996   0.8265081  25.1938667   1.8363371   0.3400761
  24.1861839   2.6623342   1.1103300  16.6092968  19.6236286   1.6234440
  16.2800865  18.7405205   1.4561995  16.8788986  19.9456291   0.7632912
   2.6814411  71.3401413  23.8873920   2.6354237  72.1345825  23.3554325
   1.8795269  70.8627167  23.6747322  76.5713120  40.0335693  29.6941700
  77.0228882  40.3495483  30.4767742  75.6622772  39.9199333  29.9716320
  26.3766994  35.5283241  64.6751556  26.4221516  36.4582329  64.4528122
  27.2032223  35.3485146  65.1232147  31.7289543  48.9688416  47.8690147
  32.2831306  48.4455605  48.4480629  31.5689030  49.7769051  48.3565063
  14.7406569  39.7223244   9.6981411  15.4547796  40.3588448   9.6649370
  13.9536886  40.2355042   9.5149460  44.8240662  52.2811852  67.7690506
  44.1364632  51.8575516  68.2828293  44.5108604  53.1767387  67.6420898
  19.4485493  58.5904655   3.2680206  18.7353287  59.2123756   3.1238768
  19.4003944  57.9935303   2.5213075  32.6002312  29.5963593  83.3068390
  31.8211193  30.1524258  83.3042679  32.2568016  28.7029114  83.3129578
  52.3428459  69.4027100  15.2134457  51.9142342  68.5552368  15.0938072
  51.6215630  70.0278168  15.2857599  51.8991547  40.7616425   9.6066179
  52.0485878  41.2251663  10.4306622  52.7321205  40.8284454   9.1397791
  28.8279095  13.0050869  80.1856232  29.1015911  12.2295818  79.6958084
  29.6375160  13.4946079  80.3310089  83.6988525   6.6158366  13.3497076
  82.9946671   6.1353230  13.7849846  84.0759735   5.9848862  12.7365942
  77.3273544  56.4506683  53.5271149  77.6538086  55.5540581  53.6029053
  77.3071442  56.7751122  54.4274254   4.1806526  39.9757690  61.1738663
   3.9108920  39.1120834  61.4861298   3.5017753  40.2267876  60.5474892
  46.9020233  61.7669411  58.5421066  47.7032661  62.1514168  58.1865463
  47.0594978  61.7142525  59.4847908  78.4674301  21.7265835  78.0996475
  77.6146011  22.1467781  78.2108307  78.2856369  20.7903709  78.1814423
  31.9920959  69.9529190   7.4801388  32.1655579  69.4591904   8.2816229
  31.1963711  69.5583496   7.1232476  26.6007328  12.4591961   9.9121180
  27.1935577  13.2060690   9.9956160  26.1505775  12.4152308  10.7557173
  55.2029648  26.9327755  88.1962433  55.1665497  27.8842163  88.2945557
  54.9557915  26.7765350  87.2848053  73.8395004  64.7597809   2.3887224
  74.5271072  65.0369720   2.9941959  73.5568008  65.5681152   1.9610552
  34.2026443  42.2070808  33.9135437  33.3652229  42.1924095  34.3769455
  34.0004463  41.8653336  33.0425949  30.5296040  49.3922958  16.5946617
  30.3027496  49.8466835  15.7833042  31.4755287  49.5116463  16.6795864
  75.1665039  70.9224777  80.7705841  75.5291214  70.9701996  79.8860168
  74.2947769  71.3102341  80.6933289  54.4080772  63.0182991  81.6778793
  55.0663719  62.5115929  81.2023468  54.9147339  63.5678291  82.2758255
  84.6008453  22.5208855  22.0396099  85.0675201  22.4096813  21.2113113
  84.9962921  23.2978134  22.4348850  57.0321236  46.0999222  15.2371655
  57.7600784  46.3910103  14.6880054  56.6094704  45.4084091  14.7278395
  54.2221375  33.6559448  34.2150230  53.6580009  32.9125290  34.4278984
  54.1520958  33.7453232  33.2645798  42.8011627  26.7560215  58.8898926
  42.3619576  26.6803646  58.0427742  43.7275658  26.6179466  58.6925507
  28.3258343   2.1131217   7.0106926  27.7454662   2.7734406   6.6320319
  29.1220627   2.5945668   7.2353334  84.8531723  30.3238678  79.2755585
  84.2972488  29.6681461  78.8545914  84.7738037  30.1398869  80.2115479
  77.7607574  41.3019066  32.1164436  77.9145432  41.9946365  32.7588654
  78.1463699  40.5196037  32.5108261  66.2258682  13.8980026  13.6281805
  65.5796280  13.6408730  12.9705410  66.7740021  13.1215467  13.7417440
  25.3131886   7.2282634  12.1440401  25.4825821   7.1824923  11.2030611
  25.1737995   8.1592751  12.3173018  52.9806633  23.7936192  60.6251488
  52.9126244  23.5415020  59.7042580  53.1074791  22.9671078  61.0910110
  35.4741592  67.8971329  56.0542221  35.4968491  67.0465927  55.6157074
  35.4955711  67.6860275  56.9876060  81.9104385  27.0865841   7.1394725
  81.2570496  27.7262936   7.4224586  81.5699005  26.2455406   7.4442830
  64.4840012  13.5350513  32.8318253  64.5053635  14.3464479  33.3391838
  63.7504959  13.0419884  33.1993713  25.1479759   9.7637043  75.6016998
  24.8307915  10.0074205  76.4713135  24.7555962  10.4093618  75.0139999
  64.8609085  21.1887703  35.0379410  65.3101425  21.9484463  35.4085007
  65.5567551  20.5489788  34.8872948  67.9642563  29.6866703  15.2752066
  68.1661301  29.6819038  14.3395491  68.6162796  29.1035538  15.6638832
  46.0042763  29.0744686  83.1120911  46.4700317  29.5071640  83.8276901
  45.1509285  28.8498001  83.4829712  75.8294907  61.2565041  70.3848114
  76.0602951  61.5478897  69.5027313  75.2069626  61.9124603  70.6985168
  83.9683914  61.3009262  30.0541077  83.4448242  61.2043037  30.8495789
  83.3723755  61.0612526  29.3444958  60.7364922  46.2351761  63.9124565
  61.0364075  46.5433960  63.0573044  59.8164177  46.4962082  63.9519463
  16.5682373  61.3429222  62.5641365  16.9048290  60.5888405  62.0800896
  17.1781464  62.0513382  62.3582649  80.0087357   3.7214015  49.1405754
  79.4039841   4.3745685  49.4925346  79.9053650   2.9641538  49.7168770
  57.5815353  60.3048859  58.9495354  57.2869492  61.0973778  59.3983154
  56.9133110  59.6509819  59.1547623  60.1925850  66.9472809  77.0438309
  60.0105896  67.8508911  77.3019104  60.2766838  66.4740753  77.8716202
  45.9010048  49.2011223   6.4683890  46.1474609  49.8991203   7.0752602
  46.7277107  48.9244080   6.0731454  40.4698296  40.8828812  44.5733452
  40.0622940  40.3179016  45.2298126  41.0715637  41.4349060  45.0727615
  77.1099777  47.0216942  70.9149246  77.7191544  46.2860909  70.9783401
  77.6722717  47.7917557  70.8308487  35.0365944  26.1299191  85.9911880
  34.8158188  27.0305824  86.2284546  35.0805092  25.6658897  86.8272400
   1.1611369  41.1151085  77.4080505   0.6500419  41.6807251  76.8291779
   0.8314776  41.3097610  78.2853546  77.8392563  29.8166771  69.0653610
  77.6241226  29.6514282  68.1474075  77.8729401  30.7707100  69.1354752
  43.0424385  28.5363140  83.5845947  42.6611252  28.4954777  82.7075806
  42.2910728  28.6446838  84.1676407  12.4516439  19.8950272  81.2263184
  13.2438898  19.4615479  80.9090347  12.5673513  20.8135147  80.9829636
  19.8031330  16.8607635  17.8549767  20.3821602  17.5294285  18.2208252
  20.3729095  16.1062737  17.7055321  51.1147270   5.2932057  28.6944008
  51.2398071   6.0454330  29.2729683  51.8148575   4.6866164  28.9354420
  41.8027267  25.8812790  85.6181030  41.7787857  26.8055267  85.3702621
  41.9400520  25.8907967  86.5653534  11.1591911  64.6543274   1.8972256
  10.6688900  64.3699341   2.6685581  10.6218023  64.3757858   1.1557021
  22.8624706  68.5294266  85.7961273  22.3459644  67.7267227  85.7245407
  23.7510643  68.2265930  85.9830170  16.1085815  45.3514633  24.0884514
  15.2737932  44.9774399  24.3703480  16.1943092  45.0835152  23.1735268
  73.8769531  68.3054276  53.3506927  74.7192307  68.4383240  53.7856064
  74.0976105  68.2158890  52.4235878  73.5539017   3.5781376  63.6140099
  72.8466492   4.2084842  63.4772758  74.3325958   4.0126557  63.2660751
  45.2902489  52.0906448  46.8778877  45.1614761  51.2189102  47.2516861
  46.2090645  52.2933235  47.0537491  48.0115242  61.5542717  74.6176071
  48.6232338  60.9692383  75.0645752  47.7467461  62.1825790  75.2894363
   8.5410967  44.0711441  55.4532051   9.1766939  43.6637840  54.8647270
   8.6050434  43.5643158  56.2626953  68.2460251  47.2046661  20.3750763
  67.9689331  46.2885170  20.3862381  68.9867859  47.2382355  20.9803677
  56.1759834  60.4846497  25.4406319  55.5260811  60.9082565  26.0013618
  56.9198952  60.3183899  26.0195827  14.4313421  65.8819351  56.8258629
  13.6332560  65.8051682  57.3487358  14.8619223  65.0322266  56.9198608
  33.8637085   8.5540752  86.4995346  34.5047455   8.7957964  85.8310471
  33.2090874   8.0386171  86.0283661  31.1806087  36.8148575  10.2769880
  31.7408028  36.5086365  10.9901800  31.2671089  36.1441193   9.5995951
  19.7968731  60.2939415  47.0288010  18.9485245  59.9725418  47.3341484
  20.1921158  59.5431099  46.5857811   5.4352989  18.7340755  65.8848495
   6.0442319  19.4188576  66.1614456   5.8606415  18.3255920  65.1308823
  20.0840015   4.8296580  60.0829849  20.0179806   4.2301583  59.3397026
  21.0142651   5.0499382  60.1311340  49.3187027   7.3538013  84.9865570
  49.9776382   6.6849022  84.8005219  49.0902939   7.2158799  85.9058151
  56.3551102   0.1583463  27.4859562  56.6338234  -0.2728915  26.6781292
  56.4351463   1.0935225  27.2981510  37.2695694  61.0413666  39.0699043
  36.5194931  61.4986992  39.4499931  36.9477043  60.7084045  38.2321854
  72.5410156  71.5103302  44.8232880  71.6591492  71.8622131  44.9446259
  72.5956726  71.3186188  43.8870773  10.8589087  44.2668266  12.5043850
  10.5683556  45.1604729  12.6866207  11.3767738  44.3420982  11.7028980
  69.6519012  37.7799416  81.1420975  69.4299850  37.0973473  80.5088120
  69.4760513  37.3819695  81.9946976  17.5563564  55.0536766  15.5102739
  18.3698711  54.5705757  15.3652267  17.1067009  55.0245972  14.6657648
  86.0419464   6.6552715  74.5888062  86.5086288   6.0272174  75.1401520
  86.5612717   6.7014956  73.7860641  79.0256271   5.4028049  83.3086472
  78.9401245   6.3193011  83.0460510  79.9545975   5.2982550  83.5143204
  68.2401505  49.7693558  56.1116409  67.6647110  50.4615326  56.4372101
  67.6544647  49.0319595  55.9400215  73.4649658  36.5428925  43.1071129
  73.8817902  36.9873085  42.3688812  73.0923538  35.7468338  42.7280540
  73.4654999  67.4341125   2.4274938  72.7231216  67.4583282   3.0312533
  73.8604813  68.3031158   2.4985900  64.8145523   2.4649613  71.2019196
  64.3429642   2.0910287  70.4576035  64.2306519   2.3291028  71.9481354
   4.3836427  66.5442429  67.6410828   4.0692353  66.8331604  68.4977646
   5.3242130  66.7209778  67.6590576  22.2130432  28.3226891  21.9333763
  22.3558445  28.9730358  22.6210461  21.4159126  27.8642139  22.1991119
  69.6128616  10.3769379   2.9386516  69.1651306   9.5335026   2.8723860
  68.9393692  10.9818306   3.2496941  23.0889301  30.8598404  56.2455826
  22.2663136  31.2315311  55.9271851  23.6643791  30.8613644  55.4806709
  21.9761124  33.2042732  21.3620186  21.5586281  33.0690842  22.2127037
  21.6229248  34.0380516  21.0516872  54.0619392   4.5173802  79.3359070
  54.9388466   4.5652509  79.7166519  53.9604683   5.3437219  78.8635712
  82.9643402  53.7793427  43.8644028  83.2131729  52.9314804  44.2324257
  83.4357452  53.8270836  43.0326996  12.4580870  61.4560165  76.5317078
  12.3171835  62.4025078  76.5547562  13.3200512  61.3324356  76.9291687
  69.9001236   1.7757642  77.9989395  70.3062057   2.3048398  77.3123550
  70.5639572   1.7254677  78.6867142  17.7680874  69.9157562   1.8590878
  17.5952339  69.0117111   1.5962851  16.9316177  70.3647919   1.7369533
  16.3178749  56.7623100  73.9361954  16.3006268  57.7134247  74.0425568
  16.9974117  56.4658813  74.5416718  27.2737446  44.9331169  39.8725471
  27.8157616  44.3551102  39.3355560  26.9277077  44.3654671  40.5612144
   8.7423611  52.4809189  87.0209656   8.3507414  52.1512108  86.2121658
   9.6851416  52.4588623  86.8569260  35.9875450  45.3402863  85.5813522
  36.6940384  45.8458595  85.1794739  35.8935432  45.7144928  86.4573441
  14.1851397  29.0102348  66.7330704  13.2702923  28.9950390  66.4518967
  14.2818956  28.2278137  67.2759171  15.9325304  40.2811432  81.5010757
  15.3814440  40.7866402  80.9035721  16.0981064  39.4602013  81.0375366
   2.1642690  12.5219460  82.5795670   2.2921476  12.3526831  83.5129623
   2.9881251  12.2540245  82.1724854  14.5407810   5.0483441   3.0562365
  14.9000702   5.2764015   3.9136355  13.8152618   4.4550123   3.2506897
  70.4709320  53.0309868  57.9662170  70.1386795  53.1143951  57.0724144
  70.6113205  52.0913467  58.0828438   1.2505265  38.0667419  30.0974445
   0.3893698  38.1799126  30.4997311   1.3997593  37.1213722  30.1129513
  47.2269554  53.3432541   0.6439884  46.5846024  53.3033333   1.3525221
  47.1105347  52.5206871   0.1685264  78.0195160  61.5552559   1.5758008
  78.3453979  60.8119202   1.0683708  78.8067245  62.0416794   1.8205988
  53.9619865  37.1142006  61.7965927  53.5331001  36.8832817  60.9726028
  53.2436905  37.3582535  62.3803024   3.6650109   2.2070205  76.6192169
   3.2203438   2.8955235  77.1136475   2.9703119   1.7932353  76.1069565
  59.7392082  27.3450489  43.3831596  60.5615425  27.0254021  43.0119095
  59.9635925  28.1920776  43.7684212  59.0968895  67.9547806  15.1905422
  59.4087105  67.4295807  15.9275408  58.7363205  68.7441025  15.5945110
  71.8576279   1.8951769  17.5123119  72.2347412   2.2971044  16.7297077
  70.9383774   2.1617115  17.4991837  19.0769329   7.5468554  71.9802704
  19.6355095   8.0729609  71.4080505  19.6896877   7.0583730  72.5299530
  72.0263367  20.9795990  79.7140121  72.7262497  20.7126522  80.3099136
  71.6487503  20.1564522  79.4040375  10.8600903  45.3400040  19.3545723
  11.3198290  44.5911331  19.7341290  10.2383394  45.6074944  20.0314083
  58.0919342   1.7975795   3.0489793  58.1181259   2.4831197   3.7164974
  57.2480164   1.3659009   3.1819730  76.3508453  36.9888649  46.6121178
  77.0278397  36.7561569  47.2475319  75.9425507  37.7752151  46.9743118
   0.4556125  10.4755173  37.0560074   0.3153791  10.2249899  37.9691353
  -0.4023865  10.7749443  36.7553215  79.9208450  39.9672813  51.9258728
  80.2454224  39.8538513  51.0325546  80.1646652  40.8635063  52.1573067
  10.3787394  65.6879959  45.8730888  10.7696648  66.2349319  45.1917114
  11.0973625  65.5116653  46.4803123  42.0874596  47.2956581  88.7092361
  41.2602615  47.7615013  88.8315735  41.8875809  46.6182518  88.0631790
  51.0824776  71.0649338  34.6565323  50.3584290  70.6729813  35.1447601
  51.8612518  70.8514404  35.1704979  65.2773285  50.5333176   8.5166321
  65.9313431  51.1101761   8.1220036  64.7640762  51.1069984   9.0855770
  49.2170029  31.8933487   0.8767278  48.7498589  32.3005867   0.1472301
  49.7381783  32.6025162   1.2531457  85.1497498  29.4869843  19.7491875
  84.4720154  29.8354530  19.1699886  84.8239899  28.6247692  20.0074482
  45.6749039  50.0720444  38.2871971  46.1987762  49.5823021  38.9211884
  44.8937111  49.5346870  38.1559982  69.8047256  63.2059174  39.1249275
  69.7813339  64.1339188  39.3583717  69.7552414  63.1980820  38.1690407
  48.4699249  28.0175381  18.5869465  47.8766747  28.0650387  19.3366337
  48.0320015  28.5235443  17.9025383  45.1749420  36.2131958  41.0097618
  45.1223068  37.1029396  41.3587875  46.1006889  36.0933800  40.7979469
  50.8157120  66.2303238  45.7976112  50.5442924  66.9039536  46.4211388
  50.9793167  66.7084045  44.9846497  33.8665504  48.5101891  58.0371399
  33.1211205  48.0089798  57.7064514  33.6544952  48.6770630  58.9555168
  85.4344025  45.9479942  68.7171402  85.5079803  46.8000793  68.2872925
  84.7174225  45.5096512  68.2588501  71.0734177  37.5203323  31.4295902
  71.6549606  37.1121330  30.7881737  70.7057571  36.7858505  31.9211082
  86.2941055  62.5235786  88.8832321  86.2028732  61.5753098  88.9765015
  87.1764145  62.7119141  89.2030640  78.1809235  30.5681133  61.4988861
  78.3499374  30.9389877  60.6327934  78.9216843  29.9830418  61.6576157
  55.4860382  54.5116272  58.8544769  55.8129425  55.1464729  59.4919167
  56.2736053  54.1703415  58.4308128   7.9015288  48.5451698  31.1348515
   7.7744551  49.4930840  31.0955830   7.6869330  48.3119621  32.0380630
  78.9855728  35.7114258   0.2909450  78.8461761  34.9185219  -0.2268469
  79.9342804  35.8384476   0.2837987  85.2016525   1.7665700  51.2181473
  85.1811295   2.1094680  50.3247070  84.7884369   2.4495525  51.7463722
  47.8135757  46.5661316  59.4942284  47.1934319  47.2637978  59.2822990
  47.2890892  45.7656326  59.4755211  64.2734299  61.4032822  86.8944626
  65.1388550  61.0069733  86.9954834  64.1951981  61.5715828  85.9554291
  77.8087540  58.7243690  45.7793312  78.1455231  58.5044670  44.9107361
  78.1151657  58.0132866  46.3421021  24.7325573  31.5359879  13.5077238
  25.2268696  32.2633629  13.1298227  24.6287708  31.7704582  14.4299402
  36.0509834  33.4652786  18.1355038  35.3219643  33.9196968  18.5577221
  36.2263069  33.9762383  17.3453064  23.9074345  55.1653290  29.6380157
  24.6945171  55.7097473  29.6565628  23.8490219  54.8595047  28.7328682
  64.8149872  23.6139584  13.2428436  64.2642136  23.0899296  12.6612320
  64.3089905  23.6849194  14.0522633  85.9306335  58.8730583  57.9578323
  85.1882019  58.4618454  57.5151939  85.8397293  58.6091347  58.8734283
  13.8752861   5.5153947  86.1755676  13.0118160   5.1211882  86.0520706
  14.3885431   4.8358226  86.6125793  81.1321335  39.4105148   2.5865271
  80.3122787  39.8991737   2.6591830  81.0001755  38.6382027   3.1363902
  50.1294594  14.1835651  34.1308327  49.5148659  14.3622503  33.4190941
  49.6036568  13.7380857  34.7951469  32.6231537  52.4320374  12.9393654
  31.8886013  52.4970512  12.3290863  32.8421364  51.5003128  12.9521942
  23.1460629  60.9230461  87.3623657  22.9988060  61.8651962  87.4454269
  22.7138424  60.5446510  88.1280212  69.8002396  15.9854536  33.6672287
  69.1839676  16.0515404  34.3966637  70.3167953  16.7898006  33.7164764
  39.7391510  57.1624222  47.3753090  39.0364037  57.6731224  46.9733582
  39.9668312  56.5074577  46.7154503  52.1616516  31.9241333  34.6905975
  52.2694321  31.6061172  33.7942238  51.4149704  31.4315853  35.0313225
  73.0752945  26.8129005  63.0116692  73.5839462  27.6208515  62.9429512
  72.2072372  27.0997562  63.2952652  16.6277676  55.2691040  71.4807205
  16.8044415  55.8822632  72.1941986  17.4907398  54.9417915  71.2269974
  54.3630142  39.2170715   3.5553596  54.4094543  38.3917046   3.0728211
  55.2716637  39.5125961   3.6124327   5.1400862  31.0009918  74.3313675
   5.0581007  30.1417694  74.7451859   6.0205979  31.0029945  73.9559631
  70.9301224  54.7754745  80.0829010  70.4057541  54.1850586  80.6239014
  70.5461960  55.6398277  80.2303085  77.4831619   4.6521912  21.0993633
  76.6390610   4.7776809  21.5329266  78.1286545   4.9456940  21.7423420
  83.3258514   0.8599643  22.8739643  83.0518799   1.4057122  23.6110764
  84.2823029   0.8711425  22.9101562  21.6386223  54.7603836  86.4392853
  21.9760246  53.9965439  85.9713745  22.2668095  54.9044838  87.1469955
  78.0884628  44.3553543  19.7834949  78.8297424  44.5701332  20.3497124
  78.2102814  44.9061546  19.0101833  38.4340096  37.0573692   0.8165975
  37.7566910  36.3991394   0.9721785  38.9604034  36.6955070   0.1037159
   2.1898892  21.8297729  27.8967266   1.3723779  21.3320293  27.9093037
   2.1312630  22.4059219  28.6588593  10.2313852   3.3681252  72.4041367
  10.3508606   4.1977348  72.8664169   9.4751081   2.9637713  72.8293076
  57.4592361   8.5602112  24.4635944  57.7621727   7.6689386  24.2901192
  56.8369560   8.7429552  23.7596054  30.0400028  70.0362244  16.8156376
  30.3580055  69.1345825  16.7692757  29.0895195  69.9514084  16.8906097
  58.5701027  68.0725021   8.4043283  58.7524261  67.5577469   7.6181912
  57.7270241  68.4897385   8.2272224  46.8438416  54.5041237  77.1392899
  47.2088661  53.7150917  76.7387619  46.9247665  55.1758347  76.4621735
  20.6145058  39.7939491  44.3868752  21.5637341  39.6937523  44.3150520
  20.4758186  40.7402458  44.4258728  57.3160095  54.1512146  84.3148804
  57.4470215  55.0376472  84.6514816  58.1575050  53.7161255  84.4520493
  84.9070587  69.8080139   9.7567577  85.1202393  69.0335999   9.2361145
  85.4898071  69.7551880  10.5142860  27.1004448   3.9607968  14.4367428
  26.3552818   3.3642702  14.3651829  27.2739334   4.2363830  13.5366392
  54.2079620  57.4276199  86.1076050  54.6341400  56.6685753  86.5056763
  54.6125259  58.1817093  86.5364456  56.3986855  13.3926430  48.7027740
  56.2403641  14.2732658  49.0428772  57.0282478  13.5196037  47.9930077
  48.4451942  27.7398758  64.9606476  48.5237503  26.9647980  64.4044876
  49.1073418  28.3439121  64.6245956  54.2678757  55.9823875  52.5940475
  55.2140732  55.8463783  52.6434784  53.8934593  55.1115074  52.7267418
  43.4854431  44.4353714  55.3562126  44.0857315  44.9621696  54.8286057
  42.6202316  44.6201477  54.9908333   1.6749202  41.1663055  84.5681686
   0.8182127  41.3439980  84.9563828   1.8506939  40.2506218  84.7846375
  55.2593040  62.9217072  20.3884315  55.6371460  62.5649910  21.1923122
  54.6532822  62.2445946  20.0876217  26.3221016  20.4252911   1.3196269
  26.2598457  20.3442764   0.3678954  26.0215054  21.3150787   1.5044352
  80.8448334  47.7356148   7.7017155  81.0533676  48.6535301   7.8754492
  80.3590393  47.7522888   6.8771229  43.9707603  67.8404236  34.4695396
  43.1575661  67.5305023  34.0709267  44.6630173  67.4215088  33.9581451
  61.2170486   2.1964784  25.2936134  61.5720596   3.0689602  25.4638309
  60.6445885   2.0209465  26.0404110  45.7060928  49.3018112  41.0895386
  46.4412766  49.4087143  41.6931152  45.2653313  50.1514702  41.0960808
  80.1304779  24.0189590  45.4469757  79.6602936  23.9576359  46.2784767
  80.9759674  23.6043949  45.6187782  51.8539162  51.0179100  69.9372025
  52.2244530  50.4828110  69.2353439  51.4343872  50.3876572  70.5228729
  61.5657883  39.6301384  61.5884933  61.4707565  38.7552032  61.2120781
  60.6932335  40.0173111  61.5179138  31.0908127  57.7564697  31.1719837
  30.2691765  58.2098236  31.3607025  31.4872475  57.6116219  32.0311050
  19.0615063  69.0220032  56.8374901  19.7319546  69.2140884  57.4931030
  18.6239223  68.2363892  57.1654625  48.5421829  50.6303673  82.6037903
  48.9121819  49.7490044  82.6541290  48.6962013  51.0046883  83.4711990
  63.3501091  66.7485123  62.5349617  63.5573730  66.3188477  61.7051086
  62.8514748  66.0948257  63.0251503  53.1447983  15.0303535  77.0189438
  52.7506523  15.0889530  77.8892593  52.9686584  15.8817034  76.6184311
  47.3125725  20.0845299  59.3361015  48.2646599  20.1694298  59.3865929
  46.9787102  20.8626671  59.7825012  37.8023605  18.9517345  84.2827072
  38.0529442  19.8669395  84.1568451  37.8252029  18.5740604  83.4034576
  53.7773094  57.7613983  58.5120392  53.1527100  58.4123192  58.8320580
  53.3368607  57.3529549  57.7667770  44.2093277  44.0372810  79.9192963
  44.3902283  43.7381401  80.8103790  44.0026512  44.9668808  80.0160446
   9.8051453   8.2964468  82.9782104   9.8755732   7.7821507  83.7824249
  10.4832668   7.9388385  82.4050598  23.3364353  50.9269371  80.1794357
  23.7756100  51.7495918  80.3953094  22.6215744  50.8636742  80.8128433
  72.9828568  59.6586876  67.9752350  72.2048035  59.1600952  67.7256851
  73.2088165  59.3303185  68.8454895  20.5520535  70.9645233   1.7425621
  21.1083927  71.1497116   0.9859741  19.8280048  70.4491806   1.3870305
  22.0348167  51.2284203  38.4742165  21.5533161  51.9980774  38.7775612
  22.7116394  51.5815582  37.8967743  68.8849487  70.5247498  74.7335968
  69.5704727  69.9905090  74.3324966  69.0694656  71.4151382  74.4346008
  28.5774822   5.2786789   9.0833168  29.2894783   5.5760412   9.6497707
  28.9558907   4.5562382   8.5822001  33.3447914  47.3996887  49.4600143
  33.9140625  48.1520958  49.6213951  32.9674797  47.1968575  50.3160095
  54.3218079  65.9503555  16.9664383  53.3811989  65.7778931  16.9246216
  54.3860588  66.8946762  17.1091461  84.7189407  13.7183342  48.0267143
  84.8530350  12.9231176  48.5423508  84.1150818  13.4546146  47.3324280
  59.1575737  42.4634590  50.2960739  58.2818375  42.0959473  50.4154587
  59.2021980  42.6782799  49.3643570  70.3187256   4.5289502  83.9198990
  70.8186493   4.7552147  84.7041855  70.9480820   4.0790701  83.3562088
  29.5884571  58.0386200  71.3238220  28.8812332  57.9470367  71.9623184
  30.3067951  57.5199318  71.6860199  14.2777853  40.8503647  34.0211296
  15.0392284  41.3516769  34.3128853  13.6383820  40.9540939  34.7258568
  58.0465012  64.0448532   1.1087633  57.5121651  63.5540504   0.4843970
  57.5906601  64.8805313   1.2091582  60.2346764  18.6988983  61.5430450
  59.5130615  18.5388336  60.9348640  59.8071098  18.8718567  62.3817978
  38.0679665  64.2162552  31.4161816  38.9092789  64.1305084  30.9677658
  37.4933815  64.6278915  30.7707081  37.5935135  23.1894760  18.3682518
  37.1887131  22.5344238  18.9368229  37.4995155  24.0130405  18.8469372
  26.3836975  67.1711273  20.4388580  25.4904118  67.0055695  20.1374245
  26.9391422  66.7333145  19.7938499  61.9708099  26.1059265   9.9581842
  61.4758759  26.5114384  10.6701069  62.8391304  25.9490337  10.3291807
  67.4208755  35.5433731  60.4845314  66.6012497  36.0155678  60.3379822
  68.1046371  36.1809845  60.2792053   4.2168293  24.4921169   7.1863647
   4.2023230  23.5522137   7.3669333   4.4961305  24.5562687   6.2730703
  26.9716187  64.2346420  20.0658569  27.0228233  64.9187851  20.7333546
  27.1085892  63.4190521  20.5478191  20.7655544  25.8032970  62.3933258
  21.2977448  25.0227871  62.2390213  19.9107285  25.4621811  62.6562805
  55.1215858  60.5284424  14.7037363  54.8536682  60.7593536  15.5931921
  54.7853622  61.2406998  14.1597948  24.9823856  55.4934425  43.6135941
  25.7501106  55.7365494  44.1310196  24.9538975  54.5378761  43.6617432
  21.4757633  65.9464188   6.5036573  21.7129345  66.1181183   5.5923400
  21.3295994  66.8140182   6.8806572  53.1391258  60.1789284   1.3125013
  52.9587708  59.6937027   0.5073556  52.3844833  60.0006599   1.8737202
  79.1650467  56.2957611  47.1921959  79.4940109  55.3977394  47.1526222
  78.4819107  56.2712784  47.8622360  75.9681549  58.3997688   1.9725388
  76.5531998  57.6936493   1.6980422  75.4009171  58.5485649   1.2160093
  57.8589096  70.0097504  70.8949966  57.6748466  70.9415359  71.0138702
  57.2055168  69.7155991  70.2603455  45.4547348   8.6761560  41.5673904
  45.8952827   7.8327417  41.6713181  45.1233063   8.6642160  40.6694794
  84.9011459  51.2447662  17.7760525  84.0416336  50.8748169  17.5745354
  85.0331421  51.0521545  18.7043362  52.2459602  16.8651981   8.9575176
  52.6961288  16.1749096   8.4706068  51.5902061  17.2008076   8.3463039
   5.8835464   6.1260519  79.9928894   5.2315192   6.1249962  79.2921066
   6.3134937   6.9780354  79.9187164  27.9660168  46.2204552  74.6079407
  27.2525234  45.7483292  75.0371857  28.3838100  46.7154198  75.3126984
   2.9267313   2.9424734  44.9948235   3.2209687   2.8106673  45.8960915
   3.5478389   3.5727520  44.6298485  32.7809219  54.7012863  23.4816360
  33.7108040  54.6285706  23.6967278  32.7071190  54.3210526  22.6063042
  20.9360180  48.9707718  74.5495377  20.5048218  48.5699005  73.7948151
  21.8711338  48.8919067  74.3609314  83.6293030  27.9313507  77.7780838
  83.2369308  27.1905632  78.2401505  82.8821793  28.4380875  77.4598846
  37.9491768  39.7071228  76.8726959  37.0191650  39.5094452  76.9833145
  38.1540604  39.4073982  75.9870224  58.9204674  34.8849335  70.5716705
  59.1151810  34.1308746  71.1281891  59.1684723  34.6031532  69.6911469
  68.1496506  11.6929493  73.4752350  68.4882126  11.9376001  74.3364868
  67.4117050  12.2852545  73.3308716  63.2967110  62.7563171  75.8780975
  62.5251656  62.9265289  76.4184494  63.8673363  63.5093956  76.0313644
  35.7351265   7.5167065  88.2389374  35.1233406   7.4585266  87.5050659
  36.0790291   6.6286049  88.3350449  49.2902603  21.0537701  26.8568096
  48.8886833  20.2028046  27.0323887  50.1796913  20.8445911  26.5715275
  34.5241165  67.8713760  82.8077927  35.2844810  68.2261124  82.3470993
  34.3505516  68.5032578  83.5055237  51.9865341   5.7523346  57.8190575
  51.8446198   6.6964560  57.7503052  51.2692223   5.3651433  57.3172798
  72.0119171  18.1154461  69.0923462  71.6409454  17.4671555  69.6909561
  71.2919083  18.7222691  68.9203415  24.5529041  69.2390442  44.8673515
  24.4822006  69.3218002  43.9163589  24.5701904  70.1415939  45.1856842
  19.7394943  68.5777817  63.5278168  18.9735146  69.1460114  63.6092033
  20.0779781  68.5028076  64.4200287  40.6646805  61.9127426  77.4018631
  40.5523758  62.1791573  76.4893723  40.3329620  62.6529694  77.9100571
  37.3511200  50.2606125  73.6813660  37.8720856  50.8130836  74.2641220
  37.8374176  49.4375343  73.6335297  68.5150528  61.8644714  68.5951996
  68.0668869  61.2568130  69.1835251  68.4523087  61.4533348  67.7330704
  30.2506313  44.7678223  35.5839195  30.7590961  45.4546165  36.0152130
  29.3382168  45.0126686  35.7381325  78.7683792  16.5900230  80.3464508
  78.0945816  16.1451435  79.8323364  79.5215225  16.0000477  80.3158340
  39.5095291  24.5360107  88.3064804  39.5396767  25.0861988  89.0891724
  39.8273659  25.1023026  87.6032562  20.6372948  35.6303253  80.2037048
  21.4229050  35.2441101  80.5908585  20.4033756  36.3435440  80.7976990
  60.6837273  33.4103203  11.7473383  60.9816742  33.4044533  12.6569672
  61.1765823  32.7042160  11.3293152  77.6000824  24.5133305  47.8009262
  77.2905121  25.3481998  48.1521950  78.3899689  24.3192940  48.3055687
  20.9968147  37.8483429  67.5282593  20.6826191  38.3022690  68.3102264
  21.9213428  38.0886230  67.4670715  49.8660507  13.6620512  19.7169819
  49.5662956  14.1809454  20.4633923  50.3692551  14.2776213  19.1839790
  79.6553345   8.2664948  45.9727898  79.8406906   9.1849308  45.7769585
  80.3611832   8.0000200  46.5618553  26.2805920  45.3930740   3.2942452
  26.2512856  46.2349625   3.7487729  26.1960869  45.6180458   2.3677042
  49.2996368  43.0506134  37.3414993  49.9412231  42.5436249  37.8390579
  48.4952354  42.5342445  37.3918266  64.2116165  27.2180710  82.0939560
  64.6060944  26.9512272  82.9242630  64.9562302  27.3572159  81.5087891
  75.1484070  38.9741821  53.8789253  75.2887344  39.4758377  54.6819687
  75.0095291  39.6377411  53.2031784  46.3009796  20.3699608   9.8446293
  45.8502464  20.5139217  10.6767025  47.1614304  20.0325069  10.0935917
  85.2214890   7.3667779  67.7001648  85.8902740   6.7123470  67.9018631
  85.1971512   7.3974628  66.7437668  78.2370453  28.8758736  46.4195175
  78.3526535  28.2296925  45.7228699  78.1469345  29.7104530  45.9595299
  76.7001266  71.3546524  78.3681030  76.4449615  71.0789566  77.4876938
  76.3145523  72.2250824  78.4676895  50.3738136  30.9580441  16.6162872
  49.6821213  31.5391617  16.2999096  50.7259827  31.4025307  17.3874168
  35.4019661  24.9774170  88.6216812  35.3385048  24.4696903  89.4306488
  36.1673737  25.5377083  88.7499847  28.8398628  13.5779142  14.1272306
  28.0509529  13.2832060  14.5822058  28.5167580  14.1632309  13.4422197
   3.7343106  51.3270912  39.9946861   3.3850298  51.7889442  39.2325020
   3.5231521  51.8945198  40.7360840  85.4740219  10.9155722   3.3097243
  85.0813446  11.2774019   4.1041532  86.3309555  10.5948105   3.5908043
  15.5395517   5.9596877  11.1715670  14.8435764   5.3249340  11.0014544
  15.2015123   6.7847953  10.8234873  20.8309307  31.4567547   1.2143010
  21.6662636  31.6558666   1.6371545  20.2740211  31.1356258   1.9234965
  16.3200970  11.5852919  62.6655807  15.4925041  11.1076841  62.7222519
  16.9695454  10.9148111  62.4536705  14.8404264  46.3656158  69.6964951
  15.5110254  45.7421303  69.4175797  14.9630318  46.4418869  70.6427460
  77.1820602  61.3061180  41.8590088  77.0337677  61.2401772  42.8023529
  76.3854218  60.9497299  41.4658394  86.7692871  45.1428719  21.0999622
  86.0231934  44.5432396  21.1037579  86.5561905  45.7945747  21.7678738
  81.5713501  54.1356316  54.5233078  81.4097061  54.0653687  55.4641380
  81.5350876  55.0751038  54.3435593  61.2783966  40.4091873  25.3924885
  61.7867775  40.6838837  26.1555901  61.0789795  39.4875031  25.5566864
  71.5528488  23.5362453  86.6916428  72.1870804  24.2502747  86.6272888
  71.6635513  23.1968822  87.5797958   0.8243879  20.8678608  52.8644905
   0.1787351  20.4903336  53.4618492   1.6677519  20.6946621  53.2827835
   7.7809010  51.5856094  78.5424423   8.3474016  52.1523628  79.0659866
   6.9143281  51.6825600  78.9372635  39.8535042  26.3194008  19.2175789
  40.1835022  25.5167866  18.8136711  40.5230942  26.5576897  19.8587456
  80.3271484  56.5815887  15.6036882  80.6479797  56.4051514  16.4880886
  79.4719467  56.1530190  15.5692053   3.1031060  49.3614578   4.8836555
   2.2012849  49.4333611   5.1963539   3.6345036  49.3761063   5.6796670
  40.1035690  65.4259949   4.6792512  40.8282127  65.1431274   5.2370205
  39.3590889  64.8979721   4.9676433  83.3425293  70.9222031  26.0326710
  83.3353424  70.5677338  25.1435528  83.0256653  71.8201447  25.9350967
  33.3980865  36.5728760  12.8097925  33.1790695  35.9035149  13.4580345
  33.0425835  37.3838272  13.1733885  49.7564621  23.1490078  23.0276012
  50.6727028  23.2505684  23.2853146  49.7675285  22.4494667  22.3743401
  45.0206146   4.1045799  62.7005653  45.0930901   4.3437629  63.6245613
  45.1290131   4.9310513  62.2300072  77.0698090  70.7307358   6.9730568
  76.6565552  71.2392120   7.6708426  77.1653137  71.3502350   6.2496376
  51.4814453  33.1379700  65.1782990  51.1840057  32.5801468  65.8970490
  52.2591629  32.6957512  64.8379593  23.8453197  48.9491959  28.4363594
  24.0093575  48.4323349  29.2251434  23.3382168  49.7006607  28.7435741
  81.7729187  36.8139648   4.0724277  82.5437088  36.2957535   3.8409820
  81.0362778  36.3237572   3.7073305  15.7625990  47.0917625  80.2884445
  16.5501194  46.5604744  80.1710739  15.0733967  46.6004486  79.8414078
  67.4542770   2.7449760  20.0919418  66.8689194   1.9919068  20.0114422
  66.9014816   3.4411476  20.4469032  40.4843407   8.3778763  16.4196682
  40.0613441   7.5765996  16.1110268  39.7959976   9.0419416  16.3818569
  24.1340008   4.4838576  79.9344025  24.2036171   3.5594075  79.6961212
  23.2244701   4.7126875  79.7430344  58.9365273  56.7633438  53.4727516
  59.4239769  56.1012802  53.9629517  58.9792938  57.5469246  54.0208397
  48.4889526  51.0171280  62.1259079  47.7707787  51.0140457  62.7587166
  48.7488976  50.0986977  62.0541611   5.7310863  25.7843971  10.9503202
   5.2240205  26.5735779  11.1408768   5.2172108  25.0719166  11.3304996
  65.8504562  21.2284088  76.4554520  66.0063248  22.1057091  76.8051376
  66.6447601  21.0224037  75.9626236   3.4457316   1.1428787  39.8004646
   3.2295487   2.0192766  39.4819908   3.1100860   1.1241660  40.6966896
  86.4775162  14.6148453  84.7981873  86.6444855  15.2488012  84.1007233
  85.5234833  14.5822983  84.8689117  68.1982880  51.5752411  61.8500977
  69.0106888  51.9033356  62.2355766  68.4783554  51.1071281  61.0635452
  80.6158524  65.4754410  47.3778725  80.6846695  64.5554581  47.1226845
  79.8266220  65.5157852  47.9179916  36.5291672  32.6426277  62.5633736
  36.9002647  33.2266541  61.9019890  36.2482986  31.8711891  62.0712090
  84.6947250  67.7139359  65.3372421  85.5694809  67.3983841  65.1103745
  84.4915085  67.2809982  66.1663971  11.1516905  61.0097008  88.3114319
  11.8424950  60.6678772  88.8790359  11.4338722  60.7803650  87.4259872
  76.2081604  69.4116440  66.3079758  77.1603699  69.4744339  66.2333069
  75.8963776  69.4123459  65.4029770  71.8720322  34.3362350   9.2371607
  72.1926498  34.6861725   8.4059086  72.4960861  33.6465683   9.4633265
  74.5005264  22.5652370  26.7774792  73.8124390  21.8998470  26.7717838
  75.1979218  22.1840420  27.3109169  85.7092819  44.6126022  63.8754959
  85.9125137  45.2573204  64.5531845  85.3212357  43.8786163  64.3518524
  49.5527573  50.6898537  33.8419800  49.9859352  49.8425064  33.7390709
  49.8018837  50.9812546  34.7190514  56.6464310  33.2539902  62.4125443
  57.1411858  34.0307312  62.1515465  55.7870827  33.3700104  62.0072136
  43.7472534  23.8531628  24.1156292  43.2356377  24.6368027  23.9146652
  44.6470222  24.1691666  24.1980247  38.2264175   2.9755220  84.1231155
  39.1517258   2.8026853  84.2967911  38.2233429   3.4503133  83.2919693
  29.5167046  29.4214001  67.0672455  29.0099487  29.0497704  67.7892761
  30.3543510  29.6634426  67.4622116  25.8398399  57.8812065   5.9947257
  26.5226307  57.6366653   5.3700438  25.1223469  58.2056274   5.4504943
  79.7437210  33.2485580  71.1446228  78.9650803  32.9194794  70.6955643
  80.0010452  34.0217247  70.6423874  37.2412033  53.8176651  31.9542065
  37.9200859  54.4638596  32.1485825  37.7231598  53.0460701  31.6565685
  36.4295197  35.3956146  12.6321287  36.4987411  36.2036324  13.1406078
  35.5834351  35.4628601  12.1895781  68.6655579   1.4869113  36.1160049
  69.5267105   1.1322663  36.3370895  68.8362579   2.3972697  35.8744621
  20.0773335  61.7604599  61.9650688  19.6487999  62.0938110  61.1767349
  20.6477013  62.4751816  62.2480583  56.2474251  61.9258270  22.5484428
  56.9776306  62.1752014  23.1148758  55.9093742  61.1180840  22.9351025
  29.7545624   3.0020063  38.4606018  29.2725754   3.2932684  37.6865921
  30.1903973   3.7911527  38.7823563   1.6359288  57.4237022   8.6964951
   1.5751784  58.0477257   7.9732146   2.5758369  57.2923317   8.8211813
  52.6127243  58.0199165  73.3669205  53.3454323  57.4926224  73.6852493
  52.8971214  58.9253120  73.4918594  47.9957123   2.9300103   4.0016661
  48.6258774   3.4871693   4.4585032  47.3492470   3.5404196   3.6471086
  76.6710052   4.9165297  14.0472107  77.4938812   5.1545820  14.4743299
  76.1660233   5.7295103  14.0302277  19.6425953  33.2294579  88.7520447
  20.0732517  32.5476036  89.2676392  18.7145157  33.1446915  88.9704819
  16.8386555  42.8674164  54.4137383  17.5942364  43.2561493  54.8544388
  17.1848469  42.0792465  53.9952049   0.0271225  44.2206917  11.1668396
   0.7842956  44.2442245  10.5817184   0.2880410  43.6289101  11.8724947
  54.6228828  62.3193245  59.1546516  53.9122849  62.6974068  58.6366425
  55.2902718  63.0049400  59.1821327  69.0074234  42.4227295  27.9870338
  69.2041092  41.7428818  28.6315136  68.2750320  42.0693817  27.4820805
  14.7010479  46.7876434  72.4028168  14.1957569  46.9504967  73.1993027
  15.3153191  46.0950890  72.6462708  37.3931503  47.1877632  45.1854210
  38.0392418  47.4509621  44.5300407  36.6962128  46.7692413  44.6801033
  57.9707146  44.8349304  55.2440147  57.9027061  44.9892273  54.3017807
  57.3703842  45.4699440  55.6346474  41.5154037  55.0986443  12.4309216
  41.3287468  55.5294685  11.5967855  42.2277222  55.6123123  12.8116770
  28.3589687  52.8817635  53.8192368  28.8190308  52.2479553  53.2689095
  28.3996067  53.7011566  53.3261108  70.8171997  37.4251823  78.2851486
  70.4412384  36.7924309  78.8971176  71.0103073  38.1930237  78.8230667
  84.6664047  24.9522095  17.4982071  83.9818878  24.6156368  16.9199429
  85.4792023  24.5949993  17.1404419  86.5007629  29.6534271  11.7467461
  87.0317230  30.4433556  11.6451263  85.6804276  29.9638996  12.1300144
  50.2768517  42.3329887  75.9414520  50.2595901  42.9322433  75.1952438
  50.2344360  41.4608459  75.5492783  20.1806469  51.7633591  67.6147690
  19.2619514  51.4964714  67.5830994  20.1684704  52.6116829  68.0579758
  84.3334198  31.2337341  65.7437439  84.6075668  31.0376968  66.6396484
  84.0145874  30.3981590  65.4025726  39.5161476  42.9607315  39.8735886
  40.3833351  42.9432259  40.2784462  39.3455925  42.0500259  39.6332588
  64.7999115  18.3913078  68.7431564  65.2185822  19.2514191  68.7091064
  63.8958168  18.5749416  68.9983368  35.5468941  63.6204834  47.6425667
  34.6835442  63.2112503  47.5844002  35.9304161  63.4949646  46.7745857
  60.4029617  13.7412348  87.5483780  60.2532692  13.1183662  86.8371429
  61.0738487  14.3343067  87.2101364  51.5096436  31.5744896  18.9704819
  52.1546097  30.8673325  18.9570961  51.1772919  31.5785713  19.8681221
  71.2440338  70.8674698  87.5195618  71.6551895  70.7610168  86.6617432
  70.9358749  71.7736740  87.5266647  47.1803131  31.8461552  71.8637161
  47.6149826  31.4075832  71.1323090  47.4925041  31.3824749  72.6407394
   2.6293385  57.4324379  79.3425293   2.8584189  57.1093216  78.4711227
   3.2342920  56.9817924  79.9317474  34.2265892  36.6715355  85.5140839
  33.9811935  37.5577431  85.7798843  33.4147606  36.2873077  85.1831207
  70.3929977  68.0848846  10.3523331  70.4355927  67.4800491   9.6116581
  69.4822617  68.0427322  10.6439075  43.5431099  36.2455139  38.9561920
  44.1856308  36.3747940  39.6538200  42.7157669  36.1029015  39.4159775
  30.9318275  27.8975945  64.2873306  29.9965363  27.7323246  64.1683807
  31.3088284  27.7786961  63.4155693  34.0533562   1.1626213  24.4280643
  33.7822647   0.8576137  25.2939224  34.8730278   0.6989717  24.2565918
  16.0790157  38.3048325  84.3084717  15.5527449  39.0798378  84.5050430
  15.6715994  37.9304771  83.5273819  -0.0304253  57.7690964  38.6166992
   0.8922155  57.5651474  38.4638214  -0.0727343  58.7248650  38.5859337
  16.7906971   2.4867446  88.0653687  15.9464111   2.6883199  88.4688339
  17.1222000   1.7399230  88.5639648  56.6207771  14.0679836  73.1208496
  56.3276024  14.4559679  73.9453201  57.5091171  13.7614880  73.3028946
  27.0344868  44.5411301  59.5792923  27.0017223  44.4236450  60.5286903
  26.6911697  43.7210808  59.2244835   8.3124895  43.6673698  65.0502853
   7.6279478  43.5809631  64.3868332   7.8366685  43.7328911  65.8782501
  47.8097153  41.2818871  40.3276901  48.0918808  42.1383018  40.6488800
  47.1935501  41.4815216  39.6229057  14.1654959  54.1273308  31.4964027
  14.4786224  53.3368073  31.9360046  13.7384386  53.8064842  30.7021027
  50.2955704   0.1265316  14.9899912  49.4332733  -0.2755815  14.8851976
  50.2384644   0.6033359  15.8180180  27.7880745  30.4521732  82.4566727
  27.5233650  29.6430855  82.0190201  28.2605724  30.1594219  83.2359467
  27.5731468  36.0642052   8.7591352  27.8835182  36.9323769   8.5018816
  27.6379566  35.5403519   7.9606309  84.9821167  60.5005951  15.8059273
  84.1328659  60.8513947  16.0741482  85.2458420  61.0499268  15.0677452
  36.5345345  29.9639225  21.4110126  36.0266457  30.4820728  20.7866707
  37.3100166  30.4960613  21.5890083  46.9047852  70.9225998   2.3189836
  46.5176659  71.7615967   2.0690601  47.5513763  71.1470184   2.9881518
  69.0360565  56.8618431  48.3798218  69.2383499  57.2410507  49.2351036
  68.1304245  57.1216278  48.2107887  44.2818680  20.2446651  71.1531067
  44.2626381  20.0230560  70.2221146  43.3601494  20.3119297  71.4023895
   3.5443268  23.0671120  59.2312546   2.8665657  22.4026299  59.1074181
   4.3484554  22.5663490  59.3685379  28.4887085  16.0126247  84.5634766
  28.7202492  15.1120882  84.3361969  28.5247269  16.4862099  83.7324219
  68.8056259  16.1186638  58.9774246  69.1926651  16.4104023  59.8028450
  67.9042130  16.4391155  59.0090904   5.7357583  19.8462696  82.3276367
   4.8180966  19.6858711  82.1076355   6.0927196  18.9778728  82.5139084
  14.5935993   3.8893762  67.1046524  14.3284006   4.7832079  67.3213730
  15.4800873   3.9806082  66.7553024  23.5652199  40.6133728  85.5813522
  23.6514378  39.7624931  85.1514664  24.2824421  40.6354179  86.2148666
  78.4811707  41.6170273  47.1038361  78.2614059  41.6099701  48.0354385
  77.6362000  41.5582542  46.6579704  66.9141998   9.4952908   8.5916519
  66.6599579   8.6909685   9.0440474  67.4266434   9.1959381   7.8406396
  76.8189087  40.4893913  26.9707375  76.4281921  40.6322746  27.8328056
  76.2450867  40.9605751  26.3666286  55.9924469  16.9895267  23.8972168
  55.8229904  16.1094379  24.2333126  55.4991913  17.5673599  24.4794865
   8.1643906  65.0516815  47.1130219   9.0144358  65.2962875  46.7472038
   7.6129098  64.8870316  46.3481750  71.5346909  46.4815826  48.5602570
  70.8743134  46.9571304  49.0642242  71.0365448  45.8282928  48.0690422
  75.3136139  58.0492439  20.2804337  74.9243164  58.9234886  20.2998505
  75.5425720  57.9093666  19.3616085  80.7691498  68.3721771   9.3166656
  81.4648132  67.8694382   9.7403879  81.1304474  69.2542267   9.2289524
  23.2829189  15.2794962   4.5344176  22.5503235  15.4122953   3.9328351
  23.7858162  14.5640879   4.1451678  68.4310379  65.6225357  23.0951767
  68.1841736  64.7850113  22.7029457  69.2210846  65.4273834  23.5991440
  11.6006279  54.2602730   2.3171632  11.6847153  53.8440208   3.1750073
  11.1260767  53.6207314   1.7861048  26.7328854  40.2840462  41.8490372
  27.0139751  39.4865608  41.4004440  25.9599457  40.0187302  42.3474388
  65.2984543  19.1774902  13.4042835  64.9138412  18.6617012  14.1129875
  65.4295883  20.0462208  13.7842112  79.2084351  57.2362137  85.6100922
  79.3682632  57.9863472  85.0373917  79.7063446  56.5215034  85.2132263
  26.0831699  36.9083595  77.3373947  25.3375435  37.4987144  77.4458237
  26.7065067  37.1838493  78.0095520  48.9486160  69.7789688  35.8140259
  48.3125191  69.5299149  35.1435127  48.4669914  70.3691559  36.3936272
  64.2414551   3.5383255  80.0299454  65.0619659   4.0239668  80.1144333
  64.4246521   2.6874275  80.4282455  19.7836437  17.2312832  72.4576187
  20.4840164  16.9065228  73.0235138  18.9897957  16.8191338  72.7984543
   9.2374430  61.2234116   4.0678988  10.1044273  60.8705940   4.2681208
   8.6788406  60.9022522   4.7757492  47.6888351  60.9074402  61.0609970
  47.2032471  60.2975807  61.6164284  48.6083260  60.7381020  61.2661705
  46.2847443  25.9917870  77.4753036  46.3597946  26.5369339  76.6921005
  47.1761169  25.6837711  77.6390533  67.4061737  41.5004654  48.9345665
  67.4173737  41.6063499  49.8858261  66.7116699  40.8619194  48.7728157
  73.7003403  47.7206573  61.6069794  74.6290588  47.9225845  61.7207680
  73.6923370  46.8942833  61.1239967   6.2745886  23.6063824  60.7081223
   6.3749270  24.1619434  59.9351311   6.0396056  22.7475033  60.3569183
  77.0258255  36.2264938  66.8954544  77.8528824  36.0154686  66.4622345
  76.3792572  35.6699219  66.4613953  76.1979218  29.9952888  63.8577652
  76.9916840  30.2319832  63.3780212  76.4905396  29.8770103  64.7614365
  68.2180176   7.4657087  72.3523026  67.4320602   7.9936538  72.4929276
  67.8870850   6.5829983  72.1863556  84.0396347  53.5818710  75.2794800
  83.2665710  53.0494385  75.4668884  84.4831924  53.1183815  74.5690765
  57.1296043  64.5235443  62.8294144  56.7894554  63.6568756  62.6071129
  57.7186279  64.7421265  62.1072617  65.4168625  42.3822174  77.0939789
  65.6392822  41.5071907  76.7760315  64.5959625  42.5965881  76.6508102
  51.4944267  20.6530972  81.4000549  51.8741570  21.0808353  82.1675644
  50.5590858  20.5967884  81.5954895  19.4379234   3.6845748   9.4527578
  20.3523464   3.4195867   9.3535395  19.0056915   2.9175565   9.8283777
  81.1566162  15.1577864  -0.1408761  80.5600891  14.4118938  -0.0773529
  81.0598068  15.6137695   0.6951502  58.7012291  64.5805130  76.3442307
  59.1107941  65.4232712  76.1486740  57.8757896  64.8088226  76.7717361
  60.7292786  25.2327003  16.2955666  60.0142097  25.4949856  15.7158146
  61.3246994  25.9821720  16.2956867  84.5160980  17.7870350  14.6159449
  85.2971039  17.2339687  14.6354427  83.8548431  17.2522869  14.1766081
  44.0483856  31.8545895  19.7268505  44.2379112  31.0564079  20.2200241
  43.3017387  32.2451248  20.1809826  41.9161415  62.3782539  29.0843296
  41.5873642  61.5294952  29.3805466  42.3165321  62.1965408  28.2340965
  67.4761047  52.3079643  26.0244350  67.9617386  52.5615463  25.2395210
  67.4459610  53.1040535  26.5550613   3.5917759  24.6595592  32.3046455
   3.0776281  25.3576584  31.8990097   3.0072794  23.9015388  32.3061371
  20.8370380  49.6131859  20.7738743  21.0297985  48.7220345  20.4824448
  21.1024780  50.1677780  20.0402527  34.3095131  21.2550354  88.5966797
  35.0737457  21.3130589  88.0232544  34.5429153  21.7820549  89.3608780
  71.2180939  71.4897003  82.2641373  71.1920319  70.8583069  81.5451813
  70.3066025  71.7576904  82.3807068  77.2201538  35.4195633  85.6823654
  77.2695999  35.9175720  84.8664169  76.4195099  35.7307053  86.1047287
  23.5253525  11.6109314  32.9286842  23.6576023  12.2756929  33.6045799
  24.0559483  11.9109049  32.1906357  84.7059402  56.2153625  79.8398285
  83.8677063  56.3744316  79.4058990  85.3484573  56.2246361  79.1303787
  38.7702980   0.5696696  25.2122059  39.6700783   0.4826242  25.5269299
  38.2305107   0.2731048  25.9449501  33.8316193   9.2186213   0.5293462
  33.8432388   8.5550699   1.2191265  34.0312576   8.7346230  -0.2719787
  70.2097855  40.9442444  36.3241463  70.4499893  40.4952011  35.5136566
  70.2110596  41.8730621  36.0927849  56.2322922  66.0077744  26.4413605
  56.5650826  65.6904984  27.2808952  56.0765381  65.2137756  25.9299507
  35.7401695  68.1192169  87.8578491  36.3076591  67.3486099  87.8764191
  35.4970284  68.2597198  88.7729263  30.6204014  42.2418175  89.2409744
  30.5406818  43.0585594  88.7482147  30.9405308  41.6061821  88.6008835
   3.0666518  47.5572968  -0.0599458   3.3341618  47.2724380   0.8138546
   3.4200463  48.4431038  -0.1417374  68.4547424  26.4265289  33.8353844
  68.7007523  27.3403454  33.9790840  67.9834824  26.4335251  33.0022583
  23.5482292  63.6788330  43.4708824  23.0393314  64.4802094  43.3482208
  22.9143543  63.0401917  43.7973328  66.4694519   2.9568951  29.5694332
  65.8923874   2.6973190  30.2876568  66.8653641   2.1376491  29.2722397
  56.3454742  45.2161942  77.1041946  56.6096764  44.6603203  76.3710938
  57.1241035  45.2675858  77.6585693  77.4073486  13.7758741  81.0007629
  78.3444138  13.6037140  81.0929260  76.9913788  13.1736221  81.6176071
  27.2143078   2.4670753  86.0566483  27.8256302   2.9542873  85.5042496
  26.6301365   2.0283191  85.4382019  32.7136230  40.1555519  17.5101719
  32.0983505  39.6688766  16.9617023  32.5142746  41.0753517  17.3356266
  43.3622093  48.1676369  46.9382095  43.0770988  49.0319290  47.2347679
  43.7932892  47.7827568  47.7012711  54.5011749  12.3501806  61.5308304
  54.5179787  13.2536068  61.2149658  53.6129608  12.0471048  61.3425484
  24.1390190  49.3888855  49.8267097  23.1981831  49.5270004  49.9361801
  24.2064686  48.5502510  49.3702278  20.0732193  41.8962021  73.8055344
  20.7806206  42.2688904  73.2793045  19.5431862  41.4030075  73.1793900
  36.4983139  27.9835300  68.9450912  37.1315308  27.8221302  68.2456512
  35.6957626  27.5570049  68.6447220  23.0252590  26.7818089  76.1586609
  23.4855862  26.2600498  75.5013199  22.7523079  26.1464958  76.8205566
   9.5163364  60.4368629  54.5265732   9.5320358  61.2376328  54.0024071
  10.1632891  59.8662949  54.1116753  62.4081917  67.9646988  82.1848831
  61.8124237  67.9254608  81.4367142  62.8343658  68.8182602  82.1071854
   7.1506763   1.6063045  16.7676201   7.3600554   1.5946194  15.8336744
   7.1616750   2.5338044  17.0039577  18.2312508  52.7698555  20.4092808
  19.1324749  52.5165596  20.2096081  17.9941120  52.2343750  21.1664200
  81.2753983  15.1120014  35.7073135  81.5636444  14.3895454  35.1494598
  81.2899017  14.7507544  36.5936089  37.4035530   3.5615206  64.0302963
  37.6832771   2.9544189  63.3451614  36.4602051   3.4183424  64.1066437
  40.8086014  28.0594749  56.4731789  40.5355911  28.6785069  55.7960548
  41.0820694  27.2802715  55.9891434  72.4692612  50.4662361  60.5624046
  72.8680191  49.8238869  61.1494408  71.7115860  50.0138741  60.1915512
  79.7349854  50.8754158  82.3712006  80.0832520  50.9965706  81.4878693
  80.4008102  50.3561325  82.8220291  43.6350746  17.8891029  84.4681091
  43.1375771  17.2030048  84.9130783  44.4717598  17.4769630  84.2528610
  66.6580124  10.7443314  82.6712723  66.8739471  11.4025259  83.3318710
  65.7026062  10.7645893  82.6163330  59.4928360  10.5259247   2.8085451
  59.9807663  11.2068739   3.2716479  60.0539131  10.2895279   2.0699368
  62.1826782   2.1759348  82.0582657  61.3833237   1.7177802  81.7987289
  62.0146255   3.0928001  81.8406677  72.9529877   6.5035462  29.3169308
  73.0745087   7.1151271  30.0431767  72.6292725   5.7028718  29.7296772
  18.1857185  21.1803303  83.2285919  17.9337635  20.9451771  84.1215897
  19.1427994  21.1847458  83.2430573  29.6539841  54.9994926  70.2091751
  30.3263855  55.5701523  70.5812759  30.1408234  54.2560921  69.8534012
  61.4714890  50.3631630   9.3596630  62.0150566  50.2981148   8.5744667
  62.0709305  50.1761627  10.0821114  39.2633629   8.7396498  62.4320145
  40.0723495   8.3533421  62.0965462  38.7735977   7.9982986  62.7880478
  24.4902782  69.9385986  22.5729713  23.8258286  69.3928452  22.1523895
  25.1294804  70.1128693  21.8821144  17.1509247  56.3617020  82.4593887
  17.3685951  55.4501381  82.2647018  16.3968067  56.5522766  81.9015198
  77.3600388  17.4962082  46.4417381  77.0530014  16.6498833  46.7668419
  77.7572784  17.9160728  47.2047234  62.8818474   9.3427258  56.1472359
  62.5737724   8.8581028  56.9130440  62.1439743   9.9023514  55.9051743
  65.1097260  42.3926888  16.8999119  65.1040115  41.6418686  17.4936047
  65.2767105  42.0142136  16.0367165  14.7400112  42.9862671  13.4463406
  14.8935280  42.3753090  14.1670313  14.2315836  42.4832916  12.8101406
   1.9886760  63.1898727   7.2510295   2.0282321  62.6591721   6.4554024
   1.3984458  62.7085762   7.8308706  28.0393848  52.0310326  35.4053650
  28.8838577  51.8327904  35.8100891  28.2417431  52.1568413  34.4782982
  79.2242889  42.8246956  33.9542847  79.1876373  42.4073143  34.8149109
  80.0140686  42.4674339  33.5482750  68.3320389  68.8226929  25.0189018
  69.1579666  69.1188812  25.4014435  68.5185089  68.7360840  24.0840435
  12.5557718  40.6857529  82.1528549  13.0941706  41.0524521  81.4515076
  12.6605101  41.2986565  82.8806000  84.0431137  60.2381592   4.3766522
  84.2243805  60.0325165   5.2937593  84.8760071  60.0899544   3.9288168
  61.9430656  45.2861671  52.0475540  61.5553970  44.5154419  52.4621925
  62.8852425  45.1807251  52.1795349  10.0370865  51.7349815   5.3817892
   9.6686811  52.1563721   4.6052971   9.9026070  50.7990379   5.2329230
  48.3980751  62.7523270  30.1099510  47.8754234  62.9385719  29.3299637
  48.7533150  61.8767853  29.9567833  83.8090820  57.5779228  47.7061729
  83.8093872  57.4508438  48.6548996  83.8815689  56.6940002  47.3460999
  40.2687454   0.5644729  69.3853226  40.1376343  -0.2132584  68.8429489
  40.5334892   0.2198474  70.2381897  81.5135803  39.3227882   7.9239850
  80.7111206  39.7963219   7.7047753  81.9426804  39.1756172   7.0811062
  45.6485672  63.5479622  74.3239975  45.2563019  64.3530350  74.6619720
  45.0592918  62.8529739  74.6172180  84.0238419  13.2867727  60.2111320
  83.7043915  13.5440874  61.0759850  83.7360306  12.3795233  60.1096649
  58.9563560  10.3697309  13.5251617  58.8585320  11.0097914  14.2301331
  58.0710793  10.0357418  13.3803501  22.4378986  41.1459923  70.0344009
  23.3198395  40.8822746  69.7719879  22.2417450  41.9053688  69.4856796
  16.5767155  46.5822868  62.1001434  17.3770618  46.9308090  62.4928398
  16.8770504  46.1091270  61.3241615  61.5533524  23.2355232  77.9853821
  61.8719330  23.8846054  78.6126251  62.2557640  22.5872936  77.9339218
  35.0998573   5.1096258   1.5992943  35.2734680   4.5801678   0.8209850
  34.1942215   4.9043498   1.8314875  53.7656784  18.6928253  84.4577789
  54.2258492  18.1672344  83.8033829  54.4527359  19.2151470  84.8717422
  54.1302185  26.7319946  29.2288208  54.1210327  27.4114380  29.9029922
  54.7351227  27.0619926  28.5644226  72.7411499  68.0564957  22.8236313
  72.4353485  68.2075348  21.9292564  72.5201797  68.8617859  23.2915154
  53.3284340  20.6970768  35.3174248  53.5767899  20.5557175  34.4038773
  53.1816902  19.8172226  35.6646347  82.6900558  55.8314934  82.3191833
  81.9014435  56.0385628  81.8177338  83.2443237  56.6061287  82.2245789
  83.3141632  64.1104889  81.1624298  83.5999451  63.8123055  82.0259323
  82.3792801  64.2871780  81.2673492  77.8564377   2.2921324  70.8314285
  77.6490097   1.5445904  70.2707214  78.5775909   1.9861497  71.3814697
  46.2287178  22.2732220  85.1518784  45.3240891  22.3762188  85.4472885
  46.4314423  21.3525314  85.3175964  32.2409058  45.7975883  47.6969223
  32.9505043  46.1374702  48.2420654  32.5677872  45.8778305  46.8008499
  80.0195236  63.2892838  59.8817558  80.2082672  62.3932343  60.1604919
  80.2923126  63.8325958  60.6210976  12.5852108  54.1107216  80.8933029
  11.6710215  54.3910065  80.8493729  13.0847120  54.9266968  80.9235382
  50.9996185  59.3206177  51.1946106  51.5869789  59.8380432  51.7455330
  50.5360451  58.7505608  51.8081017  35.2051964  38.5747871  59.4870834
  34.5351334  38.9230843  60.0752487  34.7671776  38.5064812  58.6387291
  33.6592293  59.4494324  47.8880005  33.2596436  60.0634613  47.2719383
  34.0087204  58.7497826  47.3361168  23.2538071   6.1939139  82.8323288
  23.5021744   6.8870864  82.2207260  24.0033340   5.5985827  82.8368301
  41.7034111  66.2592087  29.4065247  41.4965782  67.0295029  28.8772850
  41.5707474  65.5190353  28.8142548  19.2979259  69.9347153  24.7373409
  19.4276047  69.1048508  25.1964092  18.5223999  70.3169785  25.1480331
  75.1303635   2.5972500  37.7856598  75.1703568   3.5511127  37.7165337
  75.9533997   2.2945843  37.4019432  46.2140541  24.4798794  21.1253853
  47.0789604  24.6170082  21.5118561  46.3946648  24.1664104  20.2391853
  77.6111984  35.1555443  43.8120995  76.8585281  34.7749939  44.2647629
  77.9623947  34.4373055  43.2857628  19.6200943  59.1173134  60.8254662
  18.6720734  59.2494392  60.8309746  19.9752007  59.9136086  61.2204895
  68.0109177  48.4323273  32.5488892  67.2339478  48.0409660  32.9481163
  67.8504639  49.3752251  32.5866699  25.8029251  58.6667709  75.9370193
  25.8227310  58.8600273  76.8742981  26.5564537  59.1365585  75.5796280
  77.1274872  10.1008081   6.0404572  76.3778534   9.6472845   5.6549792
  76.8595352  11.0190525   6.0759549  79.7092438  18.6447201  73.4349594
  79.6621475  17.7547989  73.7843170  79.6641846  18.5319824  72.4854889
  65.9452362  41.9588623   1.7145022  66.5180817  42.4437904   1.1204258
  66.0635986  42.3857727   2.5630145  28.7476902   7.7560410  11.7737122
  29.0828896   8.2994308  12.4868746  29.2940941   7.9841437  11.0216198
   6.5298743  32.0399399  43.8740158   6.4095044  32.2921486  42.9585190
   5.8089314  32.4668655  44.3368416  72.7546005  70.3174973  79.6097412
  72.8554611  70.0160599  78.7068558  72.9680481  69.5518723  80.1431122
  32.6332169  36.6016998  16.4398518  31.7492294  36.9146690  16.6318169
  32.5019035  35.8623695  15.8462400  47.6022110  35.4686699  80.5694046
  47.0171928  35.5329514  81.3242950  48.2181702  36.1927452  80.6813965
  10.7779951  10.9204540  83.6201019  11.2597141  10.8170109  82.7994385
  10.2018480  10.1569843  83.6575012  26.2082596   0.5309042  31.2076645
  25.7295322   0.4919437  30.3796940  27.1199951   0.6689147  30.9509048
  81.7649994  11.3422985  85.6834106  82.5073853  10.7409725  85.6242142
  81.5867081  11.5926743  84.7769012  26.9585571  36.4912910  33.1519737
  26.7202663  37.3855515  32.9075470  26.4104462  36.2966537  33.9121857
  73.7100296  20.8810463  62.5238419  73.8895721  21.5267563  61.8404274
  73.2921753  21.3828888  63.2236824  31.2463531   4.4849653  13.4138966
  30.8019695   3.6389191  13.3594980  32.1754608   4.2738314  13.3221540
  11.9298325  26.9487801  13.1201725  11.2636251  26.2711849  13.2353373
  11.9492979  27.1075878  12.1764383  50.4528236  69.9567719   8.0278549
  49.5565567  70.2899933   8.0714283  50.4513741  69.3630447   7.2770433
   3.7391510  47.3572884  15.5907040   3.5925181  48.2518005  15.2831593
   3.3040309  46.8060455  14.9402962  31.3751926  58.4550323  88.2278595
  32.1427917  58.7317848  87.7274246  30.9367695  57.8195229  87.6620483
  79.4763336  11.9402857  75.1194992  79.5082550  11.6765146  74.1999130
  79.3121262  11.1267853  75.5964508  25.0868988  63.2595253  35.4781914
  25.3617783  64.1703491  35.5834045  25.7914295  62.8535347  34.9731750
   7.2647123  28.3826733  84.4965897   7.5248103  27.4626560  84.4502258
   6.7104921  28.5139503  83.7272797  49.9565392  68.9209518  17.1357288
  50.7730675  68.6333466  17.5441418  49.2889519  68.3394089  17.4995537
  39.3240242  67.0930099  80.5481796  40.2096176  66.7416229  80.6403046
  39.4536133  67.9963455  80.2593689  76.5662994  65.2952042  33.9471016
  77.1773911  64.7907562  34.4840584  75.7234116  65.2009125  34.3908157
   2.9915855  61.1287918  79.9919891   3.9285381  61.0758247  80.1805267
   2.7887971  60.3033257  79.5518570  47.7946281  56.4759979  81.9924774
  48.1135178  55.9722710  82.7413483  47.2767754  55.8502884  81.4859772
  43.8952599  53.6772461  35.8959923  43.2031326  53.1622162  35.4813423
  44.6484756  53.0872574  35.9244537  40.9843636  39.6427193  86.3891144
  41.0181503  39.9197388  87.3047333  40.6227722  38.7569847  86.4200516
  55.8856201  12.4457026  68.4990463  56.7629204  12.4113865  68.1177292
  55.5298538  13.2847090  68.2062531  72.4708939  39.8447723  77.0882492
  72.0755157  39.4206047  76.3266754  71.8343201  39.7161331  77.7914200
  66.6153641  22.0792732  27.5239239  66.4871368  21.1920185  27.1884136
  67.2197495  22.4852867  26.9025536  54.0494080  33.3755875  27.7559738
  53.3336258  33.9286537  27.4429092  53.8013992  32.4899406  27.4907265
  76.9715881  70.9658356  72.7479553  76.2410736  71.3193665  73.2554932
  77.7488556  71.3703995  73.1331940  40.4861832  58.9106293  72.7479324
  40.2779579  58.4522247  73.5620193  40.0377769  58.4074173  72.0682678
  78.8772736   4.7470083  69.5506439  78.1461487   5.1426954  69.0761642
  78.6054993   3.8409407  69.6969833  62.7551613  11.4914856  38.3982544
  62.0714722  11.0379305  38.8912926  63.5691414  11.2510519  38.8408127
   2.8672268  45.5633087  47.4172859   3.6132381  45.8402100  47.9492874
   3.0483730  45.9189072  46.5472450  13.5616655  21.0781975  83.7241135
  13.4742355  21.5991116  82.9258423  13.6877623  20.1819210  83.4126358
  85.5983505  52.8769722  87.3873978  86.2984924  52.3980255  87.8308487
  86.0418625  53.6120491  86.9640884  12.8835430  25.5897484   4.7277994
  12.2182417  24.9107361   4.8398285  13.2978458  25.3832188   3.8899863
  72.8899307  47.3618469  39.8848495  72.5049744  48.0118294  40.4727020
  73.2700424  47.8774986  39.1736221  16.7087345  30.9268360   0.9041566
  17.1897907  30.4208603   0.2493255  16.1179390  30.2926140   1.3103019
  25.8322430  69.6159134  31.9199982  26.2229061  70.4838028  31.8181305
  24.9958096  69.7794037  32.3557549  48.9827423  17.8125515  55.7442665
  49.1068878  17.1815681  55.0352669  49.0024529  18.6660862  55.3114624
  10.4871311   3.0050476  69.5318985  11.4264565   3.0207932  69.3484497
  10.4090662   3.3702097  70.4132614  21.1687412  63.9306679  69.5419769
  21.0567570  64.8783875  69.6162643  21.3525639  63.7832031  68.6142426
  44.3728638  21.9486752  63.8963890  44.0064812  22.7114201  64.3438416
  45.2498436  21.8516464  64.2675095  53.9288864   6.4340596  77.4584198
  53.2452507   7.0368986  77.7507477  53.5341835   5.9615693  76.7254791
   8.4770555   3.4855764  80.6316147   7.7840791   3.3853629  79.9789505
   8.5185175   4.4279623  80.7941589  14.5647039  65.1140060  14.1169481
  14.6720695  64.2228622  14.4494562  13.6252775  65.2839890  14.1863527
  59.1881943  15.7494907  28.7601643  58.2443275  15.6044836  28.8259010
  59.5769196  14.9071407  28.9958992  32.2695847  49.6578522  45.1564751
  32.2053375  50.6095467  45.0766296  32.3790665  49.5030632  46.0947113
  49.7289963  29.0733681  53.7416420  49.9239578  29.0212021  54.6773262
  50.4773827  29.5375519  53.3665657  62.2138367  14.4815502  42.4852142
  62.0986023  14.6652393  41.5528984  61.5882034  13.7811918  42.6704597
  31.2083874  15.6211491  83.4646072  30.7422199  15.4659557  82.6431198
  32.0934830  15.8664827  83.1950760  69.5167160  71.2208786  30.6910934
  69.4240646  70.4956512  30.0732765  70.4424133  71.2114105  30.9344597
  56.2184219  69.2268829   0.4687737  55.9150696  70.1139908   0.6617658
  57.1622543  69.3194351   0.3389750  61.5671654  25.3555584   4.7762146
  61.2728271  25.6690655   5.6313825  61.0032272  24.6050835   4.5891523
   9.9106102  63.4599380  29.4068565   9.8035631  64.0479431  28.6591797
   9.0207186  63.1790504  29.6199951  70.9865036   6.5157619  76.0767441
  71.8457260   6.9331803  76.0155945  70.3806076   7.1600924  75.7107391
   6.3973713   0.9414046  39.2146873   6.8763046   0.1128318  39.2326393
   5.4849405   0.6939403  39.3645630  49.4251328  49.6313286  51.1682014
  50.1998253  49.3221169  51.6377487  48.6981010  49.1488152  51.5616989
   4.8300338  66.6321716  62.7400208   4.3550577  65.8019638  62.7027359
   4.6951180  66.9453354  63.6344223  63.6625023  44.9903336   5.5052929
  63.8233528  45.8311386   5.9335542  62.8969498  45.1458626   4.9521461
  62.9945412  46.9272308  72.4666748  62.3260956  46.3843918  72.8846970
  62.7039604  47.0078163  71.5582123  48.9376144  34.6067047  87.5919189
  48.3985863  34.2824173  88.3133850  48.6219368  35.4972458  87.4385757
  81.4431000  55.8958244  44.1446075  82.0284195  56.6284637  43.9525871
  81.9920425  55.1180916  44.0444641   0.3391263  14.4088192  14.0673361
   0.6788008  14.1596651  13.2078152   0.1553191  13.5764208  14.5027199
  49.7121468  21.4816990  16.1702003  49.0860977  21.0486393  16.7505074
  49.9090004  20.8277588  15.4994974   6.8697233  10.9397106   0.8272473
   6.2526641  11.0740585   1.5465668   7.6416044  10.5550327   1.2425234
  66.0620270  69.9893570  18.9080982  66.8701706  69.9097824  19.4148617
  65.6606445  69.1219025  18.9595718  57.2818260  24.9469547   9.9586334
  56.6929436  24.6534004  10.6538105  57.4729538  25.8593369  10.1760263
  59.3046112  54.0865173  54.3164635  59.2728767  53.3792992  54.9607201
  59.1220093  53.6573944  53.4805527  74.5437546  17.1936626  67.6906204
  75.3664398  17.2094135  68.1796799  73.8902435  17.5170975  68.3107300
  86.0630569  40.9237862   2.2364416  85.1586533  40.8808365   2.5469944
  86.2948456  41.8502274   2.3013439  73.0224533  71.0204926  73.2745819
  73.1618576  71.3408813  72.3834305  72.4653625  70.2495117  73.1675110
  39.6763611  29.1343422  71.2686234  39.3197250  28.2622871  71.0996170
  38.9064217  29.6990147  71.3362198  41.8443375  28.5958309  11.2505388
  41.6098099  27.7510948  10.8662872  42.5431557  28.9292164  10.6877413
   4.5333967   6.6949477  86.3782425   4.0400586   7.3651404  86.8512039
   4.8607764   7.1438990  85.5988159  76.7681961  12.5433178  43.2993927
  76.8794785  13.2716951  43.9103889  77.2334824  12.8197575  42.5098801
  49.5868416  62.4230804  57.6695747  49.9317474  63.0784645  57.0631523
  49.5353279  61.6203270  57.1507607  55.0723572  18.4869785   4.9428873
  55.4730301  19.1805649   4.4188333  55.8135338  17.9912205   5.2909026
   3.3736088  38.6178093   3.4992888   4.2891641  38.7004623   3.2325327
   3.0083716  39.4940491   3.3766737  64.5567245  68.0223465  27.1576023
  64.9916611  68.4740982  26.4344311  63.6231384  68.0975952  26.9601460
  55.2870064  54.2629547   1.3452898  55.0320549  54.4616013   2.2462730
  55.7877960  53.4499245   1.4117976  70.9141998  40.1962318  65.6681671
  71.7020645  40.6841202  65.4284363  70.7873306  39.5777092  64.9487457
  48.2992325  41.5804443  28.4369907  48.0424500  40.7594643  28.8568535
  49.2557144  41.5498581  28.4161129  75.8440628  40.7948265  67.3858032
  76.1150970  41.6701889  67.1091919  75.4450302  40.9281616  68.2455902
  65.1712875  33.6001205  75.6817780  64.8684616  34.1222305  76.4246979
  65.8259964  34.1511040  75.2528305  70.5096359  12.2860250  43.0294838
  71.2782593  11.8239441  42.6949081  69.8054047  11.6388988  42.9906158
   5.4349413  37.0646935  54.6692963   5.9941244  36.3011742  54.5258369
   4.5661640  36.7824249  54.3833199  10.5044565  36.2865524  40.0485611
  11.0661993  36.5694504  39.3270035   9.6707258  36.0687218  39.6318169
  22.9645252  43.3547745  84.9157104  22.9963341  42.4904289  85.3257446
  23.8266602  43.4610023  84.5136261  39.7309647  28.8592548  82.8839493
  39.1115990  28.1298790  82.9089890  40.3721848  28.6062698  82.2198181
  62.9831238   6.2373309  39.5572052  63.3815651   7.0653343  39.8253250
  62.7278671   5.8173056  40.3785782  51.5312958   5.0264540  66.6224976
  51.4612885   5.8595815  66.1564178  50.6864700   4.9256239  67.0610504
   5.9576383  71.4494553  48.0104561   5.6438141  70.7069321  47.4943123
   6.6256971  71.8583374  47.4602318  37.5502167  47.0202255  61.8996391
  37.4216652  47.3227501  61.0006523  36.8879433  47.4892693  62.4072075
  51.0270386  23.0341263  50.5520248  50.8498535  22.8297729  49.6338310
  50.6635323  22.2931061  51.0367775  73.8766403  57.9397888  30.0743580
  73.0007324  58.3136063  29.9779987  73.7254715  57.0637856  30.4293156
  28.9084072  59.0352554  44.8923874  28.6956806  58.1115875  45.0258827
  29.2753391  59.3199234  45.7293816  46.8601837  41.6984673   9.1370783
  46.7562180  40.9562798   9.7325439  47.7983246  41.8879433   9.1520243
  83.9048996  25.9796867  51.6771088  83.4142609  25.2591324  52.0724716
  84.0930099  26.5700798  52.4066849  43.3051491   8.2402983   9.5056515
  42.7413521   8.5117445   8.7813034  44.1036263   8.7562466   9.3940077
  36.0141678  45.8315239   2.0903506  36.4098854  45.3754311   2.8330610
  36.7254868  45.9178314   1.4556786  26.0366058  55.8641663  75.6563873
  25.8848724  55.4875793  76.5232162  25.5607281  56.6945877  75.6693802
  79.2208939  54.2430573  82.8229904  79.3326721  53.2973976  82.9202881
  78.3017502  54.3517303  82.5788727  86.5664368  60.7910767  78.2532349
  86.7998734  60.0902443  78.8619843  86.0725098  61.4153709  78.7847672
  21.4328842  60.3908882   0.4120288  20.5813828  59.9536476   0.4127851
  21.3339500  61.1089783   1.0371603   6.5706682   7.5986953   2.8630881
   6.0443082   7.7151055   2.0721233   7.2328506   8.2881231   2.8137445
  78.7049255  27.2416763  38.1425591  78.0173721  26.6991844  37.7562943
  78.5731125  27.1588745  39.0870171  52.3442764  61.3647957  19.8235836
  52.1308441  60.8300972  20.5882912  52.1137619  60.8147812  19.0748653
  46.4731026  69.4413528  80.8793716  47.4166794  69.3345490  80.9997253
  46.2229958  68.7232132  80.2980270   8.6080751  45.0834198  24.0771599
   7.7796679  44.7359695  23.7466278   8.3569374  45.6427879  24.8121910
  37.6771698  33.9004021  88.2834015  37.3242912  34.6415176  87.7910080
  38.0724564  33.3371773  87.6180038  49.1834984  22.0844250  29.4682865
  49.2383842  21.8207436  28.5497589  48.2600899  22.2986259  29.6012135
   5.4249878  48.7644310  10.6180553   5.2009115  48.4748611   9.7336502
   6.3071156  49.1266632  10.5351801  35.5743942  29.8630695  80.1101456
  35.9995689  29.6618004  79.2765121  35.6680107  30.8110428  80.2040329
   3.4590406   2.5885994  51.0684471   3.8399682   1.8254004  50.6341057
   2.6225784   2.2755427  51.4127693  56.6206665  59.1600914  74.3636169
  57.2074165  59.9070816  74.4817963  56.7688637  58.8796501  73.4605026
  80.1648712  42.4733047  77.8644028  80.2794724  41.5656662  77.5828171
  79.4337845  42.7968864  77.3380585  33.7308426  42.7590790  22.2223911
  34.6456451  42.5163918  22.0793076  33.2715569  41.9234047  22.3056679
  13.5312004   4.2961664  74.9249039  13.9781513   3.9263964  74.1634979
  13.9413948   3.8664823  75.6754684  66.3798523  20.6601467   7.0981808
  67.3204651  20.5163689   6.9942446  65.9757080  19.8700523   6.7394991
  15.2585144  42.1928864  44.0311813  16.1333046  42.4230957  43.7181664
  14.7041578  42.9206276  43.7495575  36.3639297  50.3769150  57.8097878
  36.9817085  50.2623711  58.5319099  35.6509285  49.7691193  58.0058746
  18.9381256  44.6562843  71.9165726  18.9146671  44.9877548  71.0189056
  19.7009907  44.0785484  71.9386978  79.3982468  40.5152740  28.5173454
  78.5942459  40.4352150  28.0041199  79.2666016  41.3011780  29.0476837
  64.6032257  49.5296516  80.7786789  65.0946350  49.3286705  79.9822159
  64.8322220  48.8256569  81.3854599  41.5394630  65.4169846   8.5011930
  42.4020309  65.4413147   8.9154558  41.7252464  65.3358383   7.5657082
  35.5082436  43.9660034  69.5686798  35.2943153  43.1281929  69.9792175
  35.9673729  43.7277527  68.7632751  12.3011265  43.8453140  21.6653671
  12.5847301  44.5404434  22.2591667  13.1062813  43.3790131  21.4406013
  13.8350658  64.9177170  84.1726303  14.4717722  64.2047501  84.2227249
  13.2734547  64.6857758  83.4330215  62.2852325  41.9455757  43.9170761
  62.4499245  41.2045860  43.3339424  62.3688736  42.7158699  43.3550377
  28.0401058  60.9436913  82.8771973  28.4250584  61.7320328  82.4943695
  28.7011261  60.6297264  83.4942169  85.0040894  24.5305767  53.9610710
  85.4201355  24.0733643  54.6918907  84.1317062  24.7553177  54.2846069
  31.9995842  32.6218185   2.7589855  32.6373940  32.7224693   2.0523736
  32.1366081  33.3879242   3.3162446  17.5670662  60.0026665   6.5787673
  17.2205715  59.1400414   6.8069091  17.3335476  60.1186523   5.6577630
  50.1879807  60.1777802  33.7000046  49.9109993  59.5762939  34.3911781
  49.5856209  60.0048981  32.9764671  23.7252750  68.6537476  11.3621416
  23.2450905  69.4737091  11.2467489  23.2351303  68.1818619  12.0354261
  11.5929518  58.9008980  53.0573006  11.6817522  58.5149498  52.1858711
  12.4623299  59.2494392  53.2546120  23.2766953  54.0137367  54.2615013
  23.8458004  53.7094421  53.5545692  23.6299629  53.5991859  55.0486374
  25.6916313  46.6465797  78.5213776  26.4803467  47.1466675  78.7313156
  25.2216949  46.5803337  79.3526459  76.7060242   3.3521786  81.9140167
  76.1056519   4.0642734  82.1347122  77.4793167   3.7917724  81.5604401
  48.6124268  42.3337135  34.6325378  48.9539261  43.1804276  34.3449974
  49.3737411  41.8777275  34.9913063  80.6872253  62.9782906   2.5601017
  80.9676208  63.8893471   2.6472120  80.4508057  62.7143936   3.4493108
  18.4182549  63.9879723  86.8200378  18.2102337  63.1981468  86.3209076
  18.6041698  64.6500473  86.1542130  50.9114761  60.5206757  81.0884933
  51.1984329  61.4307251  81.0130310  51.4205475  60.1687889  81.8187408
  85.3803635  31.3995819   5.3117690  84.6670074  30.9610634   4.8480210
  85.8754044  31.8445454   4.6238918  28.9890671  66.3237076  56.1955681
  28.4613457  67.0438385  55.8503914  28.3886452  65.8353119  56.7587662
  20.1041622  52.2887383   5.6366663  20.7442760  52.9988518   5.5895185
  20.3247280  51.7181816   4.9004264  48.8129311  45.9045944  43.4604340
  49.4211540  46.4157791  43.9942741  48.8206177  46.3381386  42.6070786
  48.9461784  58.3340492  18.7425575  48.5776215  57.8677216  17.9922695
  49.5015640  57.6870232  19.1774540  80.4924622  45.4167023  15.2600145
  80.6820831  45.8415794  16.0965290  79.5791321  45.1398697  15.3335857
  75.7115479  54.1110573  55.2348442  75.6022797  53.5595856  56.0095520
  76.3874054  54.7417450  55.4831963  17.3913193  11.1479816  88.8534393
  17.3913612  10.4243259  89.4799805  18.2577572  11.1138420  88.4480362
  53.7818756  22.9863453  55.3636856  53.7583389  22.4936962  56.1840363
  53.1074600  23.6575565  55.4679565  83.0901108  67.4508362  74.6842270
  83.2005463  67.3118744  73.7436295  83.9658127  67.3243790  75.0494614
  24.9608784  67.9153595  83.6243668  24.6531296  67.0248108  83.7930145
  24.1857967  68.3812256  83.3106003  49.8391190  24.7086048  25.4055843
  49.9212837  23.9222698  24.8659916  49.7158661  25.4191761  24.7761955
  71.0793381  55.2395744  22.6811485  70.3832932  54.8519096  22.1506062
  71.8471527  54.6965790  22.5027084   9.7221346  65.9428864  24.5914116
   9.6872072  65.4105988  23.7966290   9.2897568  66.7621002  24.3502216
  20.1187840  60.3383331  24.3848248  19.2160549  60.3324547  24.7030659
  20.6444340  60.5389709  25.1592064  68.6615829  19.8736248  32.1539040
  69.2734833  20.5135765  32.5175934  69.2110977  19.2822723  31.6395378
  36.0360260  66.7546921  36.9266930  36.5695381  67.5214005  36.7175255
  35.3930321  66.7100372  36.2190247  68.7395248  53.9701843  17.6769543
  69.4666901  53.3653069  17.8238678  69.1597366  54.8139801  17.5106468
  47.4462051   6.9440427  44.3600540  48.1123543   7.6312947  44.3472672
  46.7682991   7.2784686  44.9472771  81.0307617  49.2991562  72.7830200
  81.5238571  48.4793053  72.7525101  80.1193085  49.0266609  72.8889542
  59.9133492  58.2672501  57.2033691  59.2556992  58.0215836  57.8540421
  60.3409996  57.4427490  56.9719658  70.3239975  57.1804047  88.7698593
  70.5031891  57.9091454  89.3640518  69.5894623  57.4821854  88.2354202
  53.8839951   2.3144615  18.8606396  53.1491928   2.7132442  18.3945179
  53.6134987   1.4073530  19.0028362  72.6040039  69.9688492  47.1131172
  72.4221725  70.1999969  46.2022171  72.5826645  70.8036880  47.5809097
  64.7099228  25.7539234  75.5950165  64.3516312  26.3359604  76.2651596
  65.6433105  25.6987133  75.7999039  10.1920376  28.7197781  75.5722198
  10.9537821  28.8747139  76.1307602   9.4791651  29.1912766  76.0031891
  47.9152946  41.9474678  62.0700417  47.9877434  41.1562576  62.6038666
  48.5466499  41.8175964  61.3624001  29.2975140  48.6651344  85.9922867
  29.6477375  48.7853928  85.1096115  29.5783634  49.4457283  86.4698029
  84.5085068  67.7689133  42.2963715  84.0416870  66.9714050  42.0468025
  84.3876801  67.8305969  43.2439079  78.7707443  69.4342880  65.5484695
  79.5778732  69.3265381  66.0516357  78.9298172  68.9553680  64.7351074
  67.2945480  51.0970383  42.9289742  66.9474182  51.9890289  42.9195404
  68.2355804  51.2047691  42.7908363  16.9278450  58.0127602  52.8586006
  17.2253418  57.6364822  52.0302620  17.6636772  57.8855476  53.4574318
  31.3817005   0.8881888  17.3340912  30.7067680   1.5407672  17.5207386
  30.9044991   0.1537887  16.9478703  79.6935730  54.8034363  62.2868576
  80.4282913  54.7445602  61.6761551  80.0449371  54.4794693  63.1162071
  62.6951561  48.1333313  64.6753693  63.0568008  49.0130615  64.7827072
  61.8870850  48.2654076  64.1795807  78.0605392  51.7236710  73.1292419
  78.6507568  51.0279884  72.8395844  78.2217636  51.7983856  74.0698013
  48.4055939   1.9277967  16.1537590  48.0819054   2.7734950  16.4640045
  48.6447525   2.0834281  15.2400780   8.2758512  71.1124268   1.7299737
   9.0880671  70.6543884   1.9461626   7.7964334  70.4996490   1.1723896
  34.5333557  64.2791595  36.9501915  35.1316605  63.9139862  36.2983360
  33.7686920  64.5556564  36.4451523  64.9850540  38.1206284  83.3388596
  64.3004684  38.1000938  82.6701736  64.6116486  38.6441040  84.0479279
  72.1174316  15.6960135  52.1552925  71.2149200  15.7177773  52.4734459
  72.0753250  15.1793823  51.3505859  20.6369667  10.7629566   8.5813303
  19.8020611  10.5407047   8.1693020  20.5340385  10.4906664   9.4931936
  78.0488739  57.7408981  70.3450089  78.2010422  58.6496048  70.6044769
  78.4690247  57.6628189  69.4884949  77.1011581  26.3236313  40.6666527
  76.1630478  26.1397114  40.7152672  77.2132645  27.1309700  41.1685181
  51.1074219  49.2752190   0.3576313  51.1686134  50.1224022   0.7989551
  50.1994438  49.2259216   0.0586743  46.9192696   5.2000189  19.7882023
  46.8966293   4.4355497  20.3637943  47.1744270   4.8497429  18.9347191
  71.9110947  30.7531090  77.6668243  72.2990723  31.3848400  77.0613327
  72.3154221  30.9514427  78.5114670  83.9396210  25.7159081  39.4961739
  83.9116669  26.1961079  38.6686134  83.5994568  24.8474998  39.2807922
   5.8449726  33.4068413  86.5078735   6.7480602  33.6322174  86.7311935
   5.5909748  32.7575378  87.1637115  61.5843582  57.4706383  49.8361664
  61.0406227  57.7536774  49.1010017  62.4154701  57.9282837  49.7095146
  80.5504227  10.2784586  37.9549484  79.9448776   9.7139082  38.4353943
  80.1072693  11.1259623  37.9150925  75.3808594  58.2874641   6.2211251
  74.7385864  58.9785805   6.3826108  75.0165176  57.7878876   5.4904313
  27.7758904  38.0737190  40.4797096  28.3992596  37.7139740  41.1107597
  28.2497120  38.0731125  39.6480064  73.2590408  70.6592026  34.1577301
  73.0646362  69.9727097  34.7958221  74.1982574  70.8167419  34.2540703
  75.2406235  21.6078434  80.3001328  74.8030548  22.3689232  80.6816101
  75.5157776  21.9003181  79.4312363  53.6473007  68.5592804  60.0115852
  53.0392570  68.2002869  60.6578407  54.0907440  69.2727737  60.4704018
   4.5509028  50.9519730  44.3850288   4.1507668  50.0846367  44.3229637
   5.4396191  50.7838821  44.6983337  56.7466240  40.1476364  71.0740662
  56.2658844  40.8672409  71.4830780  56.0903206  39.6884689  70.5499878
  19.5011921   2.5621569  66.0821762  19.7377377   2.5292759  67.0091095
  20.1354179   3.1651545  65.6943817  53.6522331  22.6902294  51.0875397
  54.2076225  22.5570335  50.3194046  52.7921257  22.9054356  50.7268028
  10.5873804  31.5682983  60.1963844  11.1826725  32.0721703  60.7513351
  11.1529083  30.9404755  59.7466660   0.8195720  48.2692032  27.5593662
   1.3576579  48.1904106  28.3470764   1.1494207  47.5868187  26.9747448
  65.5622940  47.9484673   9.5494413  66.4721603  47.7071724   9.3757896
  65.5622864  48.9056168   9.5396357  28.1793690  67.3635712  74.8291168
  28.4553909  68.2799911  74.8436584  27.2229366  67.4015503  74.8242340
  65.7622910  20.4381847  88.0228500  65.0071182  20.2461090  88.5787735
  65.5237656  21.2441769  87.5649109  35.1672440  67.4951477  24.9358444
  34.5385437  67.7026825  25.6271420  35.7849121  66.8907166  25.3474045
  31.8439960  27.8117237  73.1559982  32.3638611  28.5677872  73.4286499
  32.4716949  27.2329388  72.7232895  63.7266159  67.6551743  48.0192604
  64.2511063  67.7886047  48.8087730  64.0258331  66.8148193  47.6721268
  44.5305901  28.9034386  86.6955872  45.0153389  28.1531086  87.0394669
  44.2245369  28.6168880  85.8350906  -0.0930692  16.3896332   2.1463351
  -0.4233947  15.5620937   1.7966301   0.8590696  16.3122082   2.0857656
  64.0559387  71.7318115  11.5714579  63.9116211  71.6905212  12.5168152
  64.7838135  71.1305008  11.4137993   9.1713009  70.8113556  39.5012054
   9.5283279  70.9544449  38.6246834   8.3265781  70.3874969  39.3494949
  37.7633514  47.9283485  15.9816208  38.1965790  48.5802078  16.5326405
  38.3242760  47.8566895  15.2093124  85.3646698  32.7684937  26.6745281
  85.1664581  33.2130051  27.4987564  84.5152435  32.4612389  26.3578148
  39.3752480  56.3485718   0.8712997  39.6421242  55.7540703   0.1701733
  40.1172829  56.3542366   1.4759357  75.2392197  22.6335258   0.8197865
  75.5128403  22.7267342  -0.0927255  75.8683777  23.1595764   1.3134127
  33.0421066  32.7237358  10.1108761  32.3646126  33.0490570   9.5180874
  32.6905136  32.8829155  10.9868183  36.5052109  71.3236923  83.7830963
  36.2993202  72.2584839  83.7839203  35.9916878  70.9646988  84.5067291
  84.9245987  46.6584015  50.0314064  84.6554031  46.2874031  50.8717194
  85.8808517  46.6188049  50.0474358  53.9489021   2.0058734  10.0424023
  53.3899269   1.2592731  10.2577343  53.7245674   2.2197018   9.1367626
  74.2319031  48.1719398  24.9967747  74.7545547  47.7145653  25.6554642
  73.3618546  48.2441864  25.3892460  81.1572418  48.4821167  47.5924301
  81.1693726  47.5685654  47.8779335  80.3628082  48.5573158  47.0637970
  34.8849411  40.6982880  76.6320801  34.4039154  40.0380440  76.1331635
  34.3534889  40.8408546  77.4153214  51.5497360  67.5568237   2.3229589
  52.1898384  68.1968460   2.0117161  51.8310204  66.7284241   1.9345562
  25.4753227   9.8983154   9.6430483  25.9490833  10.7300444   9.6400356
  26.1610699   9.2322378   9.6912661  67.4684830  39.2165489  51.0994873
  68.2553406  39.4241257  51.6034698  66.7441788  39.4256668  51.6893005
  66.6948166  57.5403709  13.8723879  65.7553329  57.7128258  13.9346304
  66.9854431  58.0637894  13.1255293   3.0710859  70.2052307  30.8629837
   2.8193040  70.4097519  29.9624233   2.7996969  70.9720154  31.3675766
  12.4350405   1.8856239  63.3140259  12.4830647   2.8411791  63.3430023
  12.9963112   1.5956837  64.0331497  82.1109085  29.5368347  31.9869919
  82.7268982  29.6622601  31.2651463  81.3049240  29.9593792  31.6902256
  23.2619400  14.0128393   1.6235585  22.9940815  13.6018543   0.8016253
  22.5012817  14.5276794   1.8929459  82.0968018  32.0604210  26.3051929
  82.4840469  31.2418385  25.9950390  81.6621094  32.4266586  25.5350342
  80.7821960  49.2041931   3.1058261  81.5902481  48.9739113   2.6472886
  80.5432205  50.0617256   2.7540302  72.5033798  37.9758377   9.2167339
  73.2765656  37.4328613   9.3703098  71.9936676  37.9004135  10.0234175
  14.2723742  18.6921825  63.9939461  14.5455475  18.2433128  64.7940216
  14.0683966  17.9859772  63.3808403  10.5373211  38.7783966  82.2475662
  11.0700626  38.0022545  82.0742950  11.1139002  39.5149231  82.0442963
  53.2069359   8.7062140  11.3618011  52.4389381   8.3646193  10.9038382
  53.9153748   8.1100473  11.1190491  66.6681213  46.9445000  41.2386360
  66.4065781  47.4986038  41.9740257  66.3551025  46.0710106  41.4737206
  17.8210773  44.9988289  48.0159454  18.2235184  45.5803528  48.6610069
  17.1723995  44.5012474  48.5138054  83.9322510  43.2500000  53.9409828
  83.6515808  43.5938530  54.7890511  84.1923294  42.3469467  54.1228714
  14.1221828  56.5518188  15.7183514  14.9351463  57.0423889  15.8394384
  14.2060699  55.8005371  16.3055210  68.3466873  70.4304276  33.1106949
  68.7887039  70.8695679  32.3840599  67.6946716  71.0631485  33.4119682
  79.0315781  33.6396446  12.9188347  78.8482437  32.8725128  12.3764963
  79.9810562  33.7488861  12.8660755  30.0361595  56.7110023  64.7855453
  30.1741657  55.9030609  64.2911606  29.1673794  56.6086082  65.1740875
  38.3087387  65.0540161  76.3370056  38.0180817  65.9078751  76.6574249
  39.2584686  65.1398926  76.2541656  54.8160439  49.3317223  49.5136719
  54.8764801  49.1308441  48.5797386  54.0791664  48.8058167  49.8245811
   7.1089644  42.9144707  23.2294922   6.5426407  42.7038231  23.9718781
   7.2564492  42.0744934  22.7948437   4.2485671  19.1042595  58.7536621
   3.9841447  18.6316814  59.5429535   3.5342665  18.9546089  58.1342964
  72.5367889   9.9431677  55.2945862  72.3556213   9.3433933  54.5709305
  72.0495071   9.5802050  56.0342140  64.0008545  46.8235664  76.1281662
  64.3213577  46.7588310  77.0277939  63.1273003  47.2057915  76.2120438
  29.0588970  49.8023224  30.5266781  29.9582806  50.0085449  30.7812614
  28.8093204  50.5110741  29.9337101  83.5117645  66.5696106  83.4526596
  82.6716537  66.3319321  83.0603027  83.2872009  67.2035141  84.1338120
   3.7828515   1.3248262  17.8551292   3.6228354   0.3981051  18.0334969
   3.5329297   1.4388868  16.9382000  55.1060295  30.4507179  75.7217789
  55.9386559  30.0147438  75.9031525  54.9164772  30.2347240  74.8087387
  64.6177979   0.9856200  61.3425369  64.2905960   0.1939014  61.7695618
  64.8281403   1.5777237  62.0646210  50.2738037  21.8327732  20.4292316
  50.3130989  22.7510166  20.1618023  50.8297806  21.3755550  19.7983017
   3.0199795  31.3835926  31.7946339   2.7015412  30.8595753  32.5296402
   3.7048523  30.8463669  31.3964252  41.7021370  44.1463966  73.3462219
  41.4607430  43.7363968  74.1767960  42.6591568  44.1290970  73.3397980
  13.6094170  57.0389557   3.0817530  13.0637531  56.2597427   3.1881084
  12.9897785  57.7684593   3.0917699  26.1334534  26.5642090   8.2559404
  26.1709385  26.3747158   9.1934471  26.8938999  26.1127186   7.8897338
  47.8301315  46.6606293  19.3988228  48.3403320  46.0380363  19.9168034
  48.0194283  46.4277763  18.4898796   3.0797741  42.5419044  63.2021294
   2.4952447  42.8480339  62.5087051   3.1109214  43.2667618  63.8265038
  22.2221546  66.2106323  57.1098709  21.5901394  65.5960770  57.4828377
  22.2583199  66.9294586  57.7409134  44.4704094   3.9122598  31.6357555
  44.8183289   4.2344799  30.8042755  45.0998421   4.2127585  32.2913055
  59.3133049  41.8094444  83.5517120  59.6650658  41.0469933  84.0112381
  58.3979950  41.8544540  83.8281479  41.2893944  34.8995934  18.5109634
  40.4107170  34.5891113  18.7295017  41.6704750  35.1515808  19.3521023
  57.4282303   0.4286549  64.0276260  56.6640015  -0.1361965  63.9130402
  57.0732117   1.3174894  64.0146713  18.1469231  40.4304733  79.7856216
  17.5229130  40.6179428  80.4868317  17.6573792  40.5935974  78.9794083
  45.1537819  46.9203148  22.3290520  45.3877792  47.7428169  21.8989677
  44.9154320  46.3339310  21.6110172  79.6083298  15.0009708  10.8871317
  78.6835098  14.8460875  10.6948938  80.0488968  14.8973799  10.0436869
  40.1476097  66.6045990  16.2038689  40.6950264  66.0130768  15.6874714
  39.8492393  66.0722580  16.9413147  67.2008057  13.6179371  24.4412556
  67.9264755  13.6061401  25.0653553  66.4151154  13.5817957  24.9867897
  68.9759750  37.4066925  28.9641209  68.0934372  37.3820648  28.5943241
  68.9274292  36.8445930  29.7373714  27.1107063  31.6108456  76.2435989
  26.4441128  32.1165619  75.7786942  26.8098278  31.5961475  77.1521606
  26.2520370  34.8195229  84.9088211  26.0523720  33.9695969  84.5164032
  26.2368774  34.6573219  85.8520584  46.2223511  39.0445900  35.2480202
  45.6440887  39.8073692  35.2437477  45.6285210  38.2938766  35.2531738
  34.0171013  47.0730629  73.4078903  33.3140144  46.6250916  73.8782349
  33.8179398  48.0038147  73.5092239  69.2436829  54.6990967  43.0687485
  69.1799545  55.4573135  43.6495018  70.0812073  54.8115005  42.6191406
  32.9036827   2.4104655  15.5993376  32.6791801   2.1584151  14.7036257
  32.3235931   1.8835455  16.1489601  63.0576515  57.4658089  17.5073605
  62.7016373  58.1346970  18.0922337  63.5010300  56.8494148  18.0902023
  10.5502939  69.5920944  43.6953354  10.7073603  70.3733826  43.1651039
  10.3019609  69.9319992  44.5550003  71.8596420  53.6855125  17.1509590
  71.6213150  52.8709984  17.5936794  72.7884445  53.8034363  17.3500671
  26.4945183  38.1015625  64.0308990  26.7631893  38.7357826  64.6955872
  25.5418091  38.0580139  64.1126251  12.4932537  13.2440853   7.9451694
  13.1988268  13.2099533   8.5911055  11.9915876  12.4429331   8.0958910
  82.8927536  46.6518860  60.2949524  83.0444946  47.5485229  60.5937004
  83.1182098  46.1068535  61.0488358  43.1351433  34.2742348   1.1533813
  42.3342972  33.7729340   0.9998475  42.8288383  35.1560287   1.3651644
  66.3160400  34.5529671  56.3706779  66.4791946  34.1969719  57.2441101
  67.0017776  35.2093582  56.2476349  36.6209831  44.0000648  19.7035046
  36.5606041  43.5544662  20.5485058  36.1317406  43.4392815  19.1015110
  27.5366497  43.2056274  22.8185062  27.1896744  43.3550606  21.9390125
  28.4283028  43.5522499  22.7863026  68.1166458  27.9909401  46.7457733
  68.2061005  28.0761185  47.6949692  67.5958862  27.1969948  46.6245728
  75.1184006  25.4095039  83.5078506  75.5856552  24.5909557  83.3408585
  74.1936874  25.1622505  83.5053101  75.9284134   7.6024776  53.4942093
  75.7891464   6.6661477  53.6360664  76.8553543   7.6749992  53.2667274
  15.6274738  41.0814362  15.1848402  16.0284863  40.5072556  14.5323563
  16.1788177  40.9835930  15.9611626  43.9068832  65.5798798   9.3727579
  44.7650871  65.2401505   9.6263380  43.8557854  66.4387436   9.7922373
  21.7028198  11.9982243  19.8889427  21.5130596  11.3157854  19.2451267
  20.9362984  12.0065041  20.4621868  14.8368559  54.4476547  83.3663940
  14.1547880  54.9953423  82.9777374  15.2011671  54.9829941  84.0713196
  47.1477127  38.1708412  68.7742386  46.4200706  38.1643562  68.1523666
  47.7952995  38.7545471  68.3790817  23.4968662  67.3979416  14.2720947
  24.1285915  67.1853485  13.5851002  22.6654224  67.0511475  13.9485731
  50.2366219  24.6263542  70.2252274  50.6929169  23.8228588  70.4750671
  50.9287643  25.2842503  70.1593170  58.6470680  25.0998173  44.8774490
  59.1917915  24.3127842  44.8869591  59.1259384  25.7158489  44.3229904
  77.7586746  55.4440727  42.5022392  77.7609177  55.8443222  41.6327438
  78.3156509  56.0158348  43.0305405  73.5524673  41.2756233  65.4656067
  73.9324875  41.3868141  64.5941391  74.2045517  40.7675781  65.9482117
  48.4169960   2.1861596  31.1934433  48.1328392   2.9250779  30.6554031
  49.1550484   2.5274401  31.6984577  52.2064247  42.3720665  54.4343910
  53.1620865  42.3916626  54.4850044  51.9414902  41.7784157  55.1369743
  57.0639915   8.5215778  70.8530579  57.7218361   8.9964190  70.3451233
  56.7274628   9.1683865  71.4732361  36.7393417  54.8931618  70.6088867
  36.8441391  54.0644875  71.0763779  37.1178474  54.7302895  69.7449265
  65.4051132   4.2900558  41.4826164  66.2171783   4.4082747  41.9753647
  64.7353592   4.7136192  42.0195084  63.1827393   4.9231625   0.3125255
  62.7569008   4.1674833  -0.0922502  63.4291077   4.6196933   1.1862769
  54.1889877  59.8433533  62.8577919  53.7261696  59.1501923  63.3284950
  55.0965385  59.5415878  62.8187027  18.9771919  54.8883591   3.8505123
  18.0653534  55.1493301   3.9796462  19.1035748  54.9206772   2.9022429
  54.1158943  54.5375290  29.9916000  54.9341240  54.8092651  29.5757961
  53.9019852  53.7021675  29.5760956  43.8538284  50.1128387  27.8541393
  44.1434250  50.7082138  27.1628437  43.2972527  49.4767838  27.4048176
  58.7673836  26.0829239  19.2551155  58.1295204  26.4599419  19.8611050
  58.4379578  25.2017708  19.0782528   4.3888264  29.9031162   3.6319070
   4.4588671  29.1970520   4.2744026   4.3996596  30.7047615   4.1548581
  63.7746124  48.3687019  47.9893913  63.6622963  48.9524803  48.7396049
  63.6113358  47.4933281  48.3405228   9.0005817  63.3574295  57.5698357
   8.3469572  63.2295647  56.8823357   8.7886314  62.6954460  58.2279282
  77.9746094  18.2116585   2.2316449  77.5281219  17.3937645   2.0127196
  78.5979614  17.9684620   2.9161277  52.9671631  39.8766708  78.5955048
  53.3089142  40.4642220  77.9215469  53.7064476  39.3103790  78.8168640
   7.4875083   4.3847671   4.4391394   7.8180766   4.3342514   5.3360257
   6.5395031   4.4728894   4.5378938   0.5258389  54.5712814  11.6281872
   0.3203914  53.8087616  11.0872774   0.1117768  55.3053818  11.1744413
   4.1543064  50.9405670  49.0115700   4.4821944  51.3076172  49.8325424
   3.7492461  51.6824608  48.5624008  83.8979645  14.4598179  44.9632378
  84.0674210  15.3335190  45.3156052  82.9435043  14.3973293  44.9265556
  65.1224899  61.8291435  68.5636292  65.6898575  62.5235405  68.2287598
  64.3602524  62.2904892  68.9134674  66.4598083  17.6957607  11.2575054
  66.9455872  18.4357262  10.8932285  65.9349899  18.0769901  11.9613943
  46.7623024  34.6725807  15.8425694  46.1331291  34.6101303  15.1239100
  46.2374802  34.9372139  16.5980568  32.8386955  55.9318161   0.4130430
  32.6593323  56.7057533  -0.1208894  32.2802734  55.2493248   0.0407444
   5.1827259  43.6648674   6.5107131   5.6561012  43.7767982   7.3351030
   4.7822165  42.7982712   6.5802536   0.2410993  15.8830853  18.5860519
   0.5532382  16.6932564  18.9890709  -0.5001202  15.6154146  19.1293545
   0.5653996  47.7194252  61.5664062   0.2483171  47.1612511  60.8563843
   0.7891566  48.5463257  61.1393242  60.4945908  37.3344231   4.9268165
  60.4399223  36.3792458   4.9564114  61.0058594  37.5207825   4.1393480
  30.6578751  48.3939743  73.6376648  30.9366016  48.9582672  72.9164734
  30.1177254  48.9596748  74.1894379  10.5557995  55.2061043  87.8116455
  11.3639240  55.3676987  88.2985306   9.8588047  55.4879303  88.4040985
  66.5148239   6.3054323  26.6484127  65.9938126   5.6225929  27.0709095
  67.3477554   6.2974324  27.1200047  39.6289787  49.8557816   5.4301410
  38.7387161  49.5236893   5.3144722  40.0601921  49.1995010   5.9774866
  82.6653214  41.3915939  13.6536989  82.1676102  42.1980476  13.5189838
  83.5449524  41.6890144  13.8861361  46.2150002  16.5725288  55.7808037
  46.5689163  16.1498260  54.9983101  46.3813934  17.5053425  55.6451416
  29.8692036  42.9378929  84.0391388  29.1303406  42.3306236  83.9998856
  30.4551640  42.6476631  83.3401031  17.7325115  64.4915009  49.0442810
  17.2056313  64.5252533  48.2458496  17.5227833  63.6427307  49.4339409
   4.7728105  24.7991428  62.5008850   5.2883625  25.5828094  62.6914215
   5.2478023  24.3666439  61.7912674  45.6121635   9.2722816  15.1643677
  46.3431549   9.2613516  15.7822371  44.8452339   9.0614948  15.6969290
  20.3175888  47.6081200  79.1917419  20.8247700  47.1327629  78.5336914
  20.0006599  48.3865051  78.7335892  27.1392956  41.3616524  25.1464405
  26.1842785  41.3660126  25.2108879  27.3185005  41.5734825  24.2303371
  73.6140747  35.9746475  11.2570381  72.7829361  36.4416008  11.3430357
  73.9526215  35.9216652  12.1507998  60.4195404  34.4144287  37.2354050
  60.9055176  33.9682770  37.9289513  60.8224640  34.1056747  36.4238930
  46.3531075  59.2434235  33.4979477  45.9249992  59.3671799  34.3450851
  46.0226936  58.4019775  33.1832657   3.5637283  67.7302551  51.3102646
   4.1284885  68.5030594  51.3171768   2.7399709  68.0321655  51.6930237
  86.1461563  69.2885590  84.7776718  86.8707657  68.9019547  85.2693024
  85.3834915  69.1727982  85.3443985  34.1381531  10.9829321  67.8381729
  34.5346603  11.7057266  68.3245697  33.3353691  10.7823305  68.3193436
   9.9427586  51.4908867  39.6003151   9.5155840  51.1586838  38.8107643
  10.7429790  51.9086533  39.2819633  23.5802212  57.7603149  50.2968063
  23.3217278  58.3751755  49.6102524  23.0291195  57.9908714  51.0447121
  47.4128647  29.7280750  23.5694237  46.5171738  29.7626667  23.2336025
  47.9519958  29.5590897  22.7967567  62.4334297  58.1411018   9.7333479
  61.5921288  58.1193008   9.2773056  63.0335464  57.6749916   9.1512575
  84.6902390  27.6063766  10.0707531  85.2212677  28.3339825  10.3945351
  85.2825928  27.1104774   9.5055695  81.7199020  66.8469925  44.1395721
  81.5798340  66.7153549  45.0772743  81.3113480  67.6922150  43.9527016
  40.7058182  16.2711201  12.7716618  40.6198158  15.3211555  12.8516817
  41.3478699  16.5106258  13.4399729  86.1807709   4.8265529   8.8819818
  86.3298492   4.3793683   8.0488939  86.9993973   4.7126508   9.3648005
  68.4972382  29.6234455  12.5732136  69.1777954  29.9139042  11.9659996
  68.4500656  28.6760807  12.4447365  13.1541147  16.6328888  70.6103516
  12.8193073  16.8663101  71.4761734  12.3880577  16.6750183  70.0379791
  85.4666672  65.4727707   2.1053977  85.1044769  65.2310410   1.2529804
  85.2621460  66.4033279   2.1973681  23.6006508  30.2436981  88.8118134
  24.0874729  29.4949036  88.4675217  22.7209167  29.9032345  88.9742508
  73.2509842  43.5951843  11.1933155  73.2095108  42.6394730  11.1598158
  73.1884079  43.8698502  10.2785072  65.7241058   3.9698107  75.1085129
  66.1392899   4.0998616  74.2559052  64.8630371   4.3785009  75.0204468
  58.8452301   2.7195885  62.2608223  59.7183037   2.6183119  61.8817215
  58.8237190   2.0923891  62.9835892  31.0983086   1.6153858  13.4301014
  31.1334000   0.6978909  13.7006636  30.9681587   1.5808214  12.4824209
  30.8888721  52.2066574  54.6861916  30.0784569  52.7010155  54.5634384
  31.5745411  52.7832260  54.3490562  60.9895248  68.1272583  40.4627495
  60.7222786  67.4733200  39.8168564  60.2981911  68.1067886  41.1244698
  53.0303955  44.4746933  76.5119781  52.7032700  44.8603745  75.6992874
  53.9533615  44.7266006  76.5421143  40.6382256  49.4869728  32.7515488
  41.5416527  49.6355667  32.4723167  40.1599464  50.2522392  32.4324112
  74.1687698  18.1759548  15.4952269  73.2233353  18.0366859  15.5498314
  74.5438843  17.2969990  15.5496588  46.1878281  46.3954048  31.8812637
  46.4006805  47.3049583  32.0901604  46.8417511  46.1397324  31.2306881
  61.7305984  37.7892761  18.2838993  62.1831169  37.2329292  18.9178829
  62.4253883  38.3154030  17.8880577  68.5194321  52.9934845  51.5857811
  67.7409973  52.9400139  51.0313377  68.4431152  53.8406830  52.0247192
  35.6644669  42.8344116  83.6685181  36.1192780  43.6726685  83.7504044
  35.7897072  42.5823326  82.7536469  20.5942860   0.2594529  63.4988861
  20.9352551   1.0823665  63.1484795  20.9574699  -0.4143537  62.9241562
  28.6714764   7.3297763   4.4244485  28.3377190   8.1605091   4.7631512
  27.9056625   6.7560430   4.4001269  84.9068680  15.3835144  20.3317680
  84.5019760  14.8632669  21.0257721  84.9918671  16.2596493  20.7077923
  81.0627518  45.5551414  27.4672737  81.2164459  45.7338371  26.5395470
  81.8991547  45.7492256  27.8903446  19.2765312   4.0302758  62.5744858
  20.1462936   3.9804518  62.9710503  19.4377785   3.9585192  61.6336975
  24.7679081  70.5949478  57.6316452  25.0387974  69.7053375  57.4048462
  23.9616756  70.7338409  57.1347275  22.2015171  61.5671463  79.7250290
  22.1604309  62.3222847  79.1382523  22.9359226  61.0484009  79.3967285
  42.7523956  54.9925117   0.3374875  43.6591034  55.2379723   0.5215008
  42.7783241  54.6250229  -0.5459787  56.2212143  25.7878990  49.2909775
  56.2221985  25.1885090  48.5446777  56.0617905  25.2259579  50.0492897
  44.4705353  21.3902073  11.5954828  44.8323402  22.2194481  11.2829266
  43.9227104  21.6339817  12.3415995  52.5762520  51.2491913  20.2079525
  53.0072823  50.8093872  20.9407692  52.6815147  52.1823692  20.3932400
  12.4965639  64.8231659  73.0583344  11.9871311  65.0870209  73.8245544
  12.8629761  63.9714203  73.2960434  34.1003647  53.6976433  79.1125412
  34.9762688  54.0579758  79.2510376  34.1836433  52.7715683  79.3398743
  50.3854408  26.2692623  38.7995186  49.7900047  26.3891735  39.5393181
  50.7144852  25.3759441  38.8992500  77.2029037  26.0217571  20.4625568
  77.5877762  25.2101898  20.1316986  76.2976379  25.7902756  20.6702385
  20.3939877  27.0957699   9.7338085  19.5024757  26.7665291   9.6196165
  20.6482563  27.4051380   8.8643999  63.4606133  54.1203270  46.6384964
  64.1242218  54.2773170  45.9667778  62.6982841  54.6180992  46.3430138
  27.6987553  46.9129066  70.1100845  28.0148201  46.7089348  69.2299042
  27.9762650  47.8165131  70.2608032  55.2103119   1.7470773  38.8837662
  55.1647453   2.6262105  38.5078926  54.3158150   1.4124507  38.8194847
  67.7935104  51.8408852   7.1648126  67.9401932  52.6223068   6.6318049
  68.6290131  51.6928177   7.6077924  42.8944283  53.0115585  47.1753731
  43.8423996  52.9843292  47.0456009  42.5343132  53.0998116  46.2928963
  37.6943665  15.7991085  85.8181229  36.8828468  15.2949400  85.8771210
  37.4250565  16.6456051  85.4615555  55.3227615  21.8835106  69.6761398
  56.1052933  21.5025921  70.0746078  55.2044487  22.7176342  70.1305313
   2.0133820  18.5876617  26.3455658   1.4232842  17.9945450  25.8805618
   2.8149142  18.5869637  25.8223286  86.9918213  55.8564606  18.2508793
  87.0089340  55.1342621  18.8788700  86.1228790  55.8069038  17.8524895
  36.4320831  69.6984329  81.5695114  36.5124741  70.5135956  81.0742569
  36.5834389  69.9549408  82.4791946  86.4728622  66.3003540  87.4865036
  85.6296921  66.5345459  87.8743744  86.2489166  65.9269867  86.6340485
  69.3443756  61.6628265  72.9268036  68.9535904  62.3023491  73.5222321
  70.0227127  61.2334824  73.4481125  30.5193119  18.0388680  85.1797104
  30.1815968  17.6069393  85.9643250  30.6507664  17.3277378  84.5526199
  60.9817123  28.9897594  13.1254215  61.4972572  29.3513184  12.4045057
  60.8103828  28.0842342  12.8667669  15.7948074   8.8170376  62.0468903
  16.4732857   8.3591146  61.5507011  15.9082489   8.5108089  62.9466591
  51.3177795  28.4433193  79.9652710  51.4210358  29.3884869  79.8546906
  51.8916245  28.0604343  79.3016891  34.4716721   8.9017849  11.7103519
  34.3016472   7.9642730  11.8019772  33.7420959   9.2270966  11.1829739
  54.7544594  15.9833202  63.4569664  54.6424904  15.5840530  62.5942497
  54.9977264  16.8902988  63.2713852  66.5511017  36.6816902  22.3023491
  65.7281418  36.1931000  22.3181496  66.7421799  36.8588600  23.2233963
  56.4704208  61.2522202  77.7639389  56.8907661  61.4179993  78.6077728
  57.1857948  60.9792175  77.1895294  56.4723358  62.5236473  88.2721558
  56.3363724  61.6834984  88.7102203  56.9401817  62.3011398  87.4672699
  74.2301254  13.9583817  72.3527222  75.0323715  14.4046402  72.6238098
  74.2373276  14.0122337  71.3970642  27.4523487  64.4372940   2.9834597
  27.5020027  63.8326569   2.2430680  27.9947929  64.0323257   3.6602046
  34.6752396  57.4378128   2.2637470  35.1418076  56.7835884   2.7838826
  34.8814621  57.2138214   1.3562599   8.1790314  62.8475037  73.1068344
   8.4989948  63.6683540  72.7325974   7.7743130  62.3899727  72.3698807
   7.2969928  66.9654312   7.0809870   7.8350854  66.2512054   7.4224067
   7.1149673  66.7161560   6.1749167  48.2996941  17.4225941  15.0652342
  48.9089317  17.6310596  15.7734728  47.4539375  17.7483177  15.3731861
   3.4586759  69.6530991  79.5204468   2.7776237  69.0249405  79.2799988
   3.6080441  69.4990540  80.4532852  53.3564224  65.8465271  10.9076691
  54.2787666  66.0694809  10.7819691  52.8847046  66.4405518  10.3238468
  35.2715530  48.9712677  16.2503414  36.1779060  48.7338753  16.0543709
  34.8994637  48.1856270  16.6510277  45.4924660  49.8824463  72.6799545
  45.1086388  50.5850868  73.2045441  46.3269806  50.2391701  72.3757095
  47.1700439  60.4376526  54.2542534  46.4727859  60.8493462  53.7437897
  47.9481354  60.9612694  54.0628586  56.4646759  31.1271629  40.0386581
  55.8085556  30.5808029  40.4713631  56.2841606  32.0128975  40.3534966
   6.2305894  62.0441208  33.5815010   6.3400612  61.1150322  33.3789101
   6.2293415  62.4769020  32.7277260  53.8086739   0.1899128  70.6392899
  54.6483498  -0.2508392  70.7693405  54.0393333   1.1084164  70.5000763
  57.0522537  49.2128601  85.8142624  56.2880554  48.7799606  86.1948242
  57.4130478  49.7352791  86.5306015  74.5420609  58.4509392  63.9805183
  73.7793884  58.8641815  63.5758057  75.0592041  59.1819229  64.3188400
  39.9764328  66.7197571  44.5923729  39.1747894  66.4568710  44.1401672
  39.8868790  67.6656876  44.7082100  17.2123013  11.7166538   3.9460926
  16.9554539  12.1967468   3.1588368  18.1046314  11.4208889   3.7658122
  10.2771168  17.5785427  71.4232101   9.6081476  18.2445068  71.5819626
   9.8031559  16.8565845  71.0104523  59.0397491   9.4278765  48.0476151
  58.2673073   9.9806833  48.1658020  59.2849236   9.5517797  47.1306801
  12.2618542  44.6641769  73.4590836  12.6907787  44.3697052  72.6556244
  12.7311268  45.4621544  73.7024841  71.9980392  36.2404518  60.9399452
  72.5300217  35.5546761  61.3436012  72.5020523  36.5148010  60.1738319
  75.4993286   7.9838176  27.0449581  74.5733185   7.8502822  26.8427200
  75.6803131   8.8791084  26.7587261  10.2416153  68.4769287   5.0785666
  10.1595507  67.9960709   5.9021387  10.4108944  69.3806610   5.3447242
  44.4384384  63.5402031   6.4997983  44.5156708  63.1946335   5.6105022
  43.6627502  64.1003799   6.4725518  82.9788208   2.0934315  25.3574238
  83.3453598   2.3443196  26.2053223  82.4378281   2.8399572  25.1000118
  69.3285599  20.1743565   4.5705757  70.1992493  20.1821194   4.1729903
  69.4494934  20.5980949   5.4203129  74.2167892  60.7225800  78.0948410
  74.0899353  60.0101700  78.7214279  74.1314087  61.5196571  78.6179276
  49.5297661  69.1738205  26.1691036  50.4632797  69.1623688  25.9577885
  49.1479874  69.7803574  25.5345974  16.0838737  35.7468834  72.2977676
  16.4678440  36.4427109  72.8312683  16.3831139  34.9363747  72.7097931
  27.8101883  49.2696075  11.2232924  27.1033421  49.1180267  11.8506842
  27.3631992  49.5202789  10.4148397  38.9071350  34.2340088  64.6311340
  39.7011795  33.9827881  64.1593170  38.4887199  33.4028358  64.8554306
  19.1560249  44.3852463   4.5502567  19.5243721  43.5814056   4.1836610
  19.7012711  45.0846176   4.1899571  60.1057358   0.5343207  48.0932159
  59.8797188   0.8140335  48.9802971  59.2623215   0.3668808  47.6726799
  32.2718925  51.0979156  19.5499821  32.6453819  50.4647255  18.9369488
  32.0606003  50.5820236  20.3280849  40.6923141  67.1481628  84.3999557
  41.0222855  68.0150833  84.1637344  40.3378906  67.2590103  85.2821884
  64.8845291  56.0583572  42.9375267  64.3103485  56.4708099  42.2922134
  65.6575546  56.6221733  42.9653473  39.9540253  36.9974861  86.3719254
  39.7693634  36.6962547  85.4823227  40.3815804  36.2519417  86.7933350
  49.4630928  40.5093956  69.7705612  49.5042572  39.5531349  69.7604904
  49.8738861  40.7754898  68.9479523  77.8137817  63.9450073  38.7193260
  77.3603821  64.5968475  39.2538948  77.6312332  64.2064667  37.8168030
  61.7214775  30.1330338  63.3065300  61.1586609  30.2137318  62.5364914
  61.1418953  29.8034458  63.9933281  78.7848282  26.8022423  44.6978149
  79.4093857  26.1538582  45.0230217  77.9363785  26.3614731  44.7435074
  82.3384018  32.8031578  23.5255260  82.2681427  32.9709396  22.5857697
  82.5859451  31.8805141  23.5862503  15.3658171  57.7126160  28.8289719
  14.4836235  57.4829826  29.1209221  15.9165936  57.5748215  29.5996151
  71.8660660   8.3060541  21.4707222  72.1445389   9.2192488  21.4017525
  72.2697906   7.8749928  20.7174473  31.0256271  59.8111725  49.6816940
  31.3725529  60.6373138  50.0183907  31.7452564  59.4393120  49.1717110
  60.2831078  56.1263428  26.4233074  59.7700768  55.8380203  25.6683884
  61.0970879  55.6260872  26.3648853  41.7896881  60.9307976  69.8169098
  41.4414864  61.1934967  70.6689529  42.6690102  60.6043396  70.0078430
  78.6178436  13.9457750  54.2543602  77.7697754  14.2174883  53.9033890
  78.5506821  14.1078501  55.1953468  76.0310974  67.2405167  80.6750107
  75.5902634  67.6626663  79.9376526  75.3202896  66.9718475  81.2570724
  69.2001648  32.1611061  56.6635246  69.8090286  31.4466133  56.8506546
  69.4948196  32.8796310  57.2231064   8.1699343  68.7391281  20.5146370
   7.5763516  69.4163742  20.1902351   7.8919945  67.9413986  20.0645275
  68.5627594  42.5174484  16.6892300  68.6992035  41.7052879  17.1770935
  68.7106171  42.2754059  15.7750158  85.7031250  17.7201462  69.8213272
  85.0454788  18.3396358  69.5051575  85.9583969  18.0589905  70.6793823
  78.9854431  53.7654724  88.0738068  79.1668091  53.5689926  87.1547165
  78.1913452  54.2994957  88.0523834  55.1666298  59.6165581  23.1218815
  55.1109848  59.6887741  24.0747299  54.2562065  59.6337318  22.8268070
   2.6568608   5.0515437  78.8688889   2.5385373   5.8808594  78.4057846
   1.8383900   4.5770421  78.7233353  69.2643433  33.7389336  22.1821461
  68.4146957  33.4998589  21.8117733  69.5307312  32.9701195  22.6863232
  35.7853241  54.6372070  24.1981602  35.5315247  55.5477562  24.0474339
  36.7301254  54.6734695  24.3473759  66.1415787  68.2133026  35.1949196
  65.5299606  67.6518021  35.6712265  66.9603806  68.1464310  35.6861725
  57.6264191  13.9316750  38.2392120  56.7354050  13.7633190  37.9326439
  58.1828613  13.4238920  37.6486511  48.5913620  65.9107590  43.1810646
  48.6675110  64.9567184  43.1965790  48.4573517  66.1552582  44.0967560
  56.2166824  49.3805923  59.7416763  56.2947884  48.4472389  59.9391174
  55.4923820  49.4337082  59.1181335  62.7520065  67.5946426   1.8339649
  63.4002266  67.0043564   1.4497745  62.2483788  67.0413742   2.4310272
  66.7094193  69.1675110  28.6123543  66.5841217  68.6280899  29.3930988
  65.9513168  68.9716797  28.0617504  37.0086327  38.4003258  18.6528969
  37.0408783  37.8137703  19.4086380  36.0991974  38.3600006  18.3570404
  66.5752792  66.1813049  30.1526318  65.7165680  66.5940552  30.0605545
  66.7217026  66.1413116  31.0977211  14.4680223   0.4129095  83.2665710
  13.8388042   1.1040921  83.0602112  13.9524908  -0.3934053  83.2487946
  62.9669571  18.9606476  71.5593338  62.9763145  18.0167675  71.4004822
  63.2863541  19.0556850  72.4566574  62.4243355  48.6721687  40.8524170
  62.4336891  49.6122742  41.0322647  63.3057861  48.3760757  41.0795784
  78.1322556   5.1278281  63.5571022  78.7659073   4.9895368  62.8531151
  78.4350204   4.5611129  64.2666092   0.5774196  54.4278717  58.8936195
   0.6476060  53.9029388  58.0962830   1.0324366  55.2435532  58.6841965
  86.5322418  34.3297882  88.1452484  86.7768631  33.4048386  88.1158676
  85.7081604  34.3442459  88.6319733  18.1788425   9.6036243  64.6963196
  18.8645687   9.8895788  64.0927963  17.7196445  10.4086046  64.9358521
  36.4698563  66.0382233  54.2470932  36.5969162  65.0921021  54.3173141
  36.0490685  66.1608734  53.3961372  19.3459625  60.6068878  37.1186981
  19.6014938  60.7263222  38.0333939  19.9471912  61.1663818  36.6270409
  18.9748993  52.1735725  37.0328407  18.7347317  52.8968048  36.4536285
  19.2158432  52.5966187  37.8569832  51.0738029  51.8133965  29.6954288
  50.4197578  52.0655937  30.3472366  50.6488609  51.1251488  29.1835957
  35.5457153  32.1897430   6.3689089  36.1113930  32.4130974   5.6297522
  34.8375549  31.6751957   5.9816337   1.0262796  44.0028839  72.2348862
   1.1825249  44.6120834  71.5132904   0.6313135  44.5407257  72.9211502
  18.7094059  46.3008728  74.2976456  18.3296852  47.0756302  73.8831711
  18.9475651  45.7306290  73.5666656  46.6044426  56.5339775  75.0465317
  46.4563293  56.7695236  74.1306686  47.2680969  57.1539192  75.3489685
  69.0496216   4.9464045  87.6356125  69.6941681   5.5407109  87.2514267
  68.5876846   4.5755816  86.8837204  77.9225616  46.1356850  36.8638954
  77.4758072  45.2910080  36.8076706  77.2235336  46.7649956  37.0415421
  14.9291611  -0.3325422  14.7333651  14.8710108   0.1177524  13.8906994
  15.2412434   0.3372540  15.3418131  42.7114487  23.2302933   6.5816679
  42.5419769  23.6786041   7.4102392  42.1954727  22.4258137   6.6347165
  41.2271843   9.1311522  71.1759186  41.2667503   8.4558792  70.4986649
  41.5986671   9.9092798  70.7602844  25.0299721  10.3018513  67.5772781
  24.1250038  10.5663824  67.7424698  25.5484295  11.0792723  67.7847672
  74.9376984  46.8357048  52.7462807  74.2612915  46.2898254  52.3453712
  74.8087234  47.7009087  52.3576736  14.7491884  51.5520859  32.6661034
  15.4616423  51.6880760  33.2907219  14.9225264  50.6894760  32.2891541
  50.3119965  53.8813095  51.1295853  50.8506622  53.2142830  51.5551910
  50.9208298  54.3551826  50.5630188  72.8884277  22.1393929   2.1034961
  72.3640442  22.5420380   1.4113045  73.7917099  22.2197208   1.7971284
  80.7151718  60.4354630  23.6201229  80.5942688  60.9927788  24.3888988
  81.6169510  60.5999374  23.3444939  74.7393188  35.6753998  48.4547462
  75.3617706  36.4015236  48.4938622  73.9776077  35.9862671  48.9440231
  61.9757233  17.9603386  33.7450256  61.8909264  17.0135860  33.6323318
  61.2176094  18.2073517  34.2746315  48.3734245  49.5529022  37.8094940
  47.4418335  49.6392593  37.6072350  48.5386162  50.2261238  38.4695816
  40.6040688  32.1911736  17.1279202  40.9845848  31.6606789  17.8279305
  40.6245270  31.6224346  16.3582764  33.5017776  71.8306198  81.3235626
  33.5726013  71.2333450  80.5789337  33.4437790  71.2559586  82.0868683
  59.9515533  53.1067352   5.1875162  59.5364952  53.3933411   6.0010381
  59.9417534  52.1508904   5.2374473  83.6031570  13.7386360  12.0364628
  83.2555847  14.5304861  11.6260996  83.7378616  13.1312542  11.3090200
  76.7601089  17.0827770  39.3949509  77.2857895  16.2830715  39.4139252
  77.3750763  17.7674656  39.1318130  53.6350784  53.7397537  11.7023220
  53.2530136  53.5632668  10.8426056  53.0529022  53.2957115  12.3188696
  20.8777905  70.8583755   8.9419670  21.5927410  71.1038895   9.5291615
  21.2895050  70.7848892   8.0809650  51.9491653  67.5774689  80.4902496
  51.6283302  67.6657104  79.5927505  51.4325371  66.8614883  80.8599854
  83.5061951  67.7253113  57.0086746  83.1642685  68.1331558  57.8042717
  83.3806534  66.7866287  57.1477547  46.1656494  60.2596817  43.2668381
  46.6011276  59.6123924  42.7122154  45.3212204  59.8627510  43.4804153
  48.1963387  16.8623943  62.9296265  48.7709694  16.9482803  62.1689301
  48.6535797  16.2514057  63.5074272  25.3551083  51.8627968  48.5332794
  26.1425858  52.1377563  49.0028610  24.9198513  51.2548637  49.1309395
  34.8756943  32.5148468  87.5824738  34.9029274  31.8965092  86.8523026
  35.7725563  32.5305901  87.9165802   1.4835165  52.9125252  32.7068977
   1.9171240  52.4856110  33.4457893   0.5944034  53.0837975  33.0173416
  27.0322838  51.7494392  60.9993591  26.2393494  51.9203072  61.5075874
  27.5008888  52.5840874  60.9987679   2.0198605   0.2743775   6.1732998
   2.6652479  -0.0709103   5.5564666   1.3454193   0.6673902   5.6193128
  44.9628944  27.2686749  61.1136971  45.8791847  27.5089512  61.2512016
  44.4659119  28.0003433  61.4796219  24.7369614  15.2356701  12.4018698
  24.6295071  15.7185173  11.5823917  23.9123001  15.3699837  12.8689070
  31.8836765  48.8821869  84.4104004  32.6765862  48.6338654  83.9351501
  31.1759510  48.7546692  83.7786636  41.4529228  11.6172762  64.2255707
  41.0019608  12.0157337  63.4811974  40.7959480  11.0486841  64.6272125
  74.8692093  11.6220922  41.8590279  74.6194229  12.5107536  41.6058044
  75.5714417  11.7435760  42.4980392  48.9896927  26.7927608  55.4667854
  48.7987595  26.4708729  54.5857849  49.9388962  26.9158669  55.4763222
  80.1622238  31.3937702  76.7231827  79.7497635  32.2355690  76.5295868
  81.0983963  31.5522556  76.6019897  44.1291771  29.3134727  19.8561726
  43.7566681  28.8918724  20.6305904  44.4014931  28.5869541  19.2955971
  14.6899691  39.2018356  13.4687185  14.1501923  38.8811073  12.7462177
  14.2082415  39.9544601  13.8118305   0.9206844  69.5348282   7.4013696
   0.4369928  69.6802292   6.5882678   0.7823313  70.3346710   7.9086571
  79.7502975  29.2760544  65.6115570  80.4687576  29.4145393  64.9944153
  80.1778870  29.2057629  66.4650574  63.2019844  45.8548164  49.1723595
  62.9332962  44.9770889  48.9009972  63.6763573  45.7173080  49.9922943
  77.5339050  71.2454529  70.2694397  77.3329926  71.2563858  71.2052536
  76.7115326  70.9910049  69.8508759   2.7596850  25.1456718  47.9966164
   2.0797551  25.2086525  48.6674042   3.4533501  24.6288795  48.4064751
  15.2574825  70.9163208   1.1696730  15.0352192  70.5886002   0.2982189
  14.5620413  71.5411148   1.3751652   5.4792767  45.1888313  15.2846603
   5.0556474  46.0468597  15.3081942   5.2101874  44.7664070  16.1003704
  69.9890213  54.5903244  60.1904373  70.0845795  54.0977097  59.3753090
  70.0382538  53.9267197  60.8785057  74.0914764  33.2474861  13.5463343
  74.2016220  34.1972885  13.5907240  74.0541992  32.9676857  14.4609680
  37.6149712  38.0908356  71.1578445  37.4455414  38.1731567  70.2193604
  38.5609207  37.9582634  71.2197266  75.6325302   8.2200012  64.6038666
  74.9065704   8.8328533  64.7206268  76.0482407   8.1743155  65.4648743
  74.0232697  22.6004658  48.6648636  73.3623810  22.0063972  48.3091431
  73.5301590  23.1989574  49.2260056  42.8551102  55.7552185  51.3232727
  43.4167442  56.3313217  51.8418274  42.4087334  56.3419533  50.7127647
  76.5511703  60.2583466  53.7901230  76.8592453  61.1183968  54.0758362
  76.3785553  59.7835236  54.6031303  15.1919937   9.5742903  53.8279190
  14.5411558   8.8836803  53.7026215  15.1710243  10.0740824  53.0118294
   0.4093859  58.1781693  19.5883598  -0.0394980  58.7613487  18.9762859
   0.4020121  57.3246613  19.1551132  32.3517151  66.9378128  38.3409958
  33.2147484  66.5589294  38.1740952  32.4991760  67.8835297  38.3302460
  73.1186752  38.6267967  14.9883261  73.0967026  39.1793060  14.2069931
  72.1998978  38.4237938  15.1640339  59.5861664  47.9708176  81.6933899
  60.3510437  47.5745506  82.1107178  59.8794556  48.8450432  81.4365997
  59.6336174  29.9964771  21.1197224  58.8507233  30.5389385  21.2148151
  60.0529099  30.3188362  20.3219070  25.5285988  46.7364655  43.6519699
  25.3495350  45.8252106  43.4200592  24.6713276  47.1001396  43.8734627
  60.2077446  18.9790535   8.8506269  59.8434868  19.5877838   8.2079782
  60.5124741  18.2355824   8.3304148  43.3964882  15.0635967   8.7279844
  43.6181259  14.2678776   9.2116566  42.4396133  15.0705881   8.7039700
  63.4680824  60.3418274  13.4334335  63.8436241  59.6408920  13.9662437
  63.8376884  60.2039833  12.5612965  47.2542419  45.3379288  38.2319260
  46.8748283  44.5180283  37.9156303  47.8203697  45.6310234  37.5179024
  67.1609726  22.0136719  85.0766678  66.3466263  22.1993237  85.5442123
  67.0680618  21.1068802  84.7845612  23.8812904  24.4574509  13.4227209
  23.5556164  24.7723713  12.5795164  23.6988430  25.1726398  14.0321884
  43.7810059  58.3051033  40.8124695  44.0605965  58.4710846  41.7127533
  43.8918686  59.1457825  40.3683968  22.9204483  19.0022125  65.6208344
  22.9404144  18.1161938  65.2591705  23.7674980  19.1027699  66.0551529
   6.8893828  64.4669647  67.1366119   7.7629251  64.3560104  66.7613220
   7.0331969  64.9835358  67.9295197   2.3994436  29.7482128  82.5125427
   2.5158684  30.6055927  82.1031799   1.8768893  29.9252377  83.2947388
  38.2190933  41.7537651  79.1365738  37.9103928  42.5111504  78.6392822
  37.6849136  41.0253716  78.8198318  65.7892914  18.5600834  78.9825287
  65.6240158  19.2571068  79.6174088  64.9554443  18.4495869  78.5256577
  86.1682129  51.9058113  68.1131439  85.2572327  52.0590515  68.3638840
  86.3239059  52.5154991  67.3918457  17.7051373  68.3267517  12.7945995
  16.9986591  68.1546402  12.1721077  17.3342342  68.9605026  13.4086142
  62.9403534  35.2558327  44.8692589  63.3252640  34.6086693  45.4602394
  63.5018959  36.0258255  44.9587860  78.1871338  63.7974815  65.5100327
  78.5583420  64.5621719  65.0699234  77.3194962  64.0833664  65.7958603
  68.3479691  69.9222336   0.9915792  68.3545380  70.6406860   0.3591146
  68.9847565  70.1830444   1.6569481  51.6938438  68.5206223  44.0451813
  52.1291084  69.0238266  44.7333450  50.8201790  68.9066315  43.9823723
  23.3701954  39.2466736  19.4296818  22.9128990  39.6519928  20.1664524
  24.2158127  39.6940155  19.3972721  71.0817032   2.7285650  32.9978905
  71.3159332   3.5248730  32.5211716  70.9836273   3.0134261  33.9064445
   1.4729143   3.2664640  67.4661331   1.9586923   4.0708733  67.2839890
   2.1428699   2.6376059  67.7343292  72.7198029  28.2801723  88.9475250
  72.7481155  28.8109379  89.7435837  71.8070679  28.3243237  88.6625595
  11.8799505  27.0758648  59.6930847  12.6893673  26.5674534  59.6421585
  12.0506916  27.7308350  60.3699112  50.3604622  12.4839115  70.7803955
  49.7572021  11.9151478  71.2587509  51.1145134  11.9262381  70.5889969
  72.1190491  70.1791000  67.7425690  71.6720505  70.9343948  68.1246109
  72.4546051  70.4979477  66.9047318   2.0008082  60.2779236  64.3671570
   2.1386576  59.7705841  63.5672607   2.2362223  61.1738586  64.1260910
   0.1024938  56.9641533  48.8078041  -0.5248864  57.6551170  49.0203934
   0.5672792  57.2913246  48.0376358  77.8872757  29.7927380  33.1801147
  77.4136734  29.2474651  32.5519333  77.5827484  29.4915237  34.0361290
  48.7659492  15.1760397   4.1482778  49.0623703  15.4884100   5.0031414
  49.3470726  15.6065969   3.5212643  12.6119862  46.1193657  23.0854397
  12.3807726  46.3072472  23.9950924  12.2621841  46.8608170  22.5913525
   1.2732352  63.7496796  42.6342621   0.8651009  63.5242653  43.4702301
   0.9278833  63.1043549  42.0174026  63.5596695  64.1866150  80.0443802
  63.3657837  64.9269180  79.4694061  64.2336884  63.6916771  79.5785828
  17.8858433   1.3726751  53.2103577  17.6577377   0.4541907  53.3538361
  18.2602043   1.6594332  54.0433350  15.5467997  13.3290749  88.0213394
  16.2189884  12.7258263  88.3383331  14.8547392  13.2846680  88.6811218
  84.9045715  63.4725380  38.5669060  84.5372696  64.3482285  38.6872826
  85.2929459  63.4938622  37.6922913  24.0430698  37.6842384   0.7780113
  23.5198612  38.2936020   0.2572805  24.1033382  38.0962715   1.6398869
   5.8713899  68.7766113  85.5838165   6.7932119  68.8188629  85.8381577
   5.4985852  68.0977859  86.1463470   3.0770237   2.4800689  47.6425056
   2.4372411   1.7721204  47.5668831   3.5828688   2.2631142  48.4256287
  31.6643200  36.9366570  67.3850555  31.3943481  37.5106010  68.1019440
  31.9069042  36.1158981  67.8137054   5.7060566  55.5676422   6.2210608
   5.8520164  55.0228310   6.9944329   6.0901432  56.4143600   6.4486122
  37.2665863  27.2078438  15.2905607  38.0508652  27.3081512  15.8300743
  36.6852417  26.6556377  15.8133793   7.0444694  42.3734360  40.2962532
   7.2514882  42.7195282  41.1643524   7.4723134  42.9774399  39.6893272
  41.0690956  67.3554001  23.7886105  42.0251541  67.3100739  23.7999783
  40.8401337  67.7899780  24.6101627  25.7420273  13.5181923  78.6787338
  25.7159786  14.1136236  77.9297256  26.5463104  13.7515163  79.1423264
  15.0325298  62.5338326  84.6239548  14.5394011  61.9662628  84.0315704
  15.5770483  61.9333458  85.1330185  84.8826065  12.1393938  36.2656975
  85.5913925  12.7772055  36.3496361  84.7315521  12.0718842  35.3229065
  18.1910324  29.9351387  87.6699371  18.3324280  30.8165798  87.3245392
  17.3276520  29.6847076  87.3411636  42.3642845  23.6464863   3.6749299
  42.3918610  23.7009583   4.6301808  43.0388680  23.0050125   3.4520342
  59.3632164  21.8896770  86.6643982  59.8765259  22.6774559  86.4850922
  58.4866982  22.0958805  86.3396912  64.1877365  70.6704941  71.4562225
  64.9063568  70.3593750  72.0066986  63.4063110  70.5613251  71.9981537
  27.1722183  50.8944664   2.9879274  27.2562046  51.4552612   3.7590876
  26.2527351  50.9729385   2.7337096  77.5765381  60.2194214   4.1085958
  76.8695831  59.5774956   4.0424261  77.5774155  60.6630325   3.2603981
  70.7401505  35.5277328  13.8339472  71.3064728  34.9466133  14.3416996
  69.9880981  35.6875420  14.4041281  76.2814026  12.6407232   6.5215783
  76.4444809  13.5294600   6.8374615  75.7870560  12.2228413   7.2267246
  73.3622208  50.8557091  45.9464836  74.0400620  50.6739006  46.5974121
  72.8034210  51.5137367  46.3599739   3.0313354  35.1561012  37.6827850
   3.4262369  34.8720322  38.5071602   2.1304836  35.3822937  37.9141655
  65.2435913  11.0555964  77.9652328  65.5322495  11.9677038  77.9963837
  64.6563644  10.9644556  78.7156219  81.4783173  62.7740440  -0.1278196
  81.9916611  63.5623016   0.0492441  81.0662155  62.5633698   0.7100475
  33.9939384  22.5835533  80.2856598  33.5368996  23.2612705  79.7876129
  34.2852669  21.9557858  79.6243973  30.5541687  23.4546661  10.1826773
  31.2478199  23.6235485  10.8202972  29.7857513  23.8985271  10.5415020
  64.1896133  39.1100807  27.0696201  63.7055969  38.8255730  26.2943687
  63.5368576  39.5562134  27.6091595  24.3229847  65.1960449  39.7950516
  23.8203373  66.0105972  39.8039055  25.0215874  65.3525925  39.1596909
  43.6308174  70.4362869  12.4567604  43.9805870  71.1259384  13.0209131
  42.7019119  70.6488876  12.3663998  23.5742569   6.6399775   7.9235053
  22.9967289   6.3682470   7.2101636  23.5527134   7.5965934   7.8979363
  57.1739235  36.8639870   1.8898880  57.1228981  37.4505463   2.6445885
  57.8762932  36.2518272   2.1093726  49.3415260  10.1303368  72.1993713
  49.5541306   9.4415855  71.5695648  48.7245369   9.7191687  72.8047638
  64.6773834  68.4668961  50.6313820  65.4173203  68.9874725  50.3187599
  64.0466995  69.1133652  50.9484673  42.0524330  38.8955421  76.2980804
  42.4546509  38.1631012  76.7649612  42.1913719  39.6498718  76.8707199
  33.4981651  30.6600361   5.3536177  34.0074959  30.4688416   4.5660548
  32.5868454  30.5513725   5.0817299  11.3340111  38.4313889  16.2591991
  11.6155424  37.7280121  16.8442059  11.1212234  37.9888039  15.4375706
  69.2289124  63.9444351  79.0355988  69.5308304  63.4162254  79.7745590
  68.4599457  64.4063034  79.3696671  55.1870117   6.7346978  11.0024939
  54.9437370   5.8145466  10.9006615  55.3553429   6.8356676  11.9393511
  16.3985062  57.3991508  44.3233414  16.6773300  56.4856949  44.3872452
  15.7984552  57.5184708  45.0595055  66.8970566   0.2044203  42.6458397
  66.8530273  -0.4284698  41.9290810  67.6742325   0.7293867  42.4544182
  43.6566010  34.8716507   4.0880923  43.5808525  35.7086334   3.6298850
  43.1537476  34.9931259   4.8934574  12.6966543  23.8247280  48.3776627
  12.2560577  23.2134418  48.9679489  13.0039015  23.2791767  47.6536446
  51.8983688   6.4409537   7.5791245  51.1834869   6.9074340   7.1460257
  52.6544418   6.5782909   7.0084062  38.7179832  51.1145515  81.2595062
  38.1656761  51.0374451  80.4815292  39.1551781  50.2657814  81.3279419
  11.2294273  63.5714455  32.0950050  10.7216167  63.6487503  32.9027100
  10.8514233  62.8153877  31.6458702  41.7876511   7.6634870  18.8397865
  41.3145828   7.8536472  19.6498947  41.1687279   7.8838239  18.1436405
   8.1397324  43.4398232  28.6112919   8.5540714  42.5963402  28.7932053
   7.3940940  43.2245178  28.0510254  61.5043793   4.8184314  32.8380127
  62.3111763   4.5614657  32.3916016  61.5923882   5.7628055  32.9670258
  85.7023239  20.6289005  55.2264862  85.1735840  20.7033615  56.0209160
  85.5871277  19.7208920  54.9463387  50.2792397   2.3263087  73.7133636
  50.4863396   1.6388128  73.0803604  50.3589325   1.8987097  74.5660248
  49.7345200  55.3252449  74.9204254  50.2389297  55.4254990  74.1131134
  48.8739662  55.0237198  74.6292801  85.3246918  24.6107368  84.1168365
  85.6177750  24.6324444  85.0278015  85.2160950  23.6798286  83.9222870
  62.9884377  68.1372070   7.4068179  62.1390266  67.7085953   7.5118208
  63.6177254  67.5139160   7.7697668  49.5407333  50.7104492  16.3303375
  49.6111641  51.6536369  16.4775600  50.2885895  50.3385506  16.7979202
  38.6635094  45.8468094  70.6279526  38.0832634  45.1683121  70.2827148
  38.1552544  46.6549110  70.5580750  82.1262741  49.3125343  84.4297714
  81.9224701  49.8411942  85.2012711  83.0398026  49.5192070  84.2323151
  44.8014755  28.4315720  72.9849243  45.1441231  28.5593910  72.1003418
  43.9090767  28.1118183  72.8522186  15.0393486  49.4270592  29.7116966
  14.9689837  48.6059341  29.2248344  15.0722847  50.1041374  29.0358944
  54.2133827  33.7986946  21.8614864  53.3129044  34.1216888  21.8938389
  54.4191704  33.7561569  20.9276390  40.0901871  61.2457237  11.9221096
  40.9094353  61.1330910  11.4400511  40.3273354  61.0920143  12.8366394
  38.1782875  19.5152245  60.7873116  38.1164207  19.8521481  59.8935051
  39.1112785  19.5606327  60.9963493  70.2869873  14.6519842   8.2525921
  69.5092621  15.1387644   7.9797835  70.8629761  14.6729698   7.4883757
   7.0224094  34.4705086  32.3388062   6.9247503  34.2204323  31.4200287
   7.3402791  33.6774673  32.7704010  76.0592575  14.5949135  41.1091423
  76.8820496  15.0729227  41.2128410  75.3918457  15.2780437  41.0448647
  57.6284370  69.6096268   5.3890004  57.6154556  70.3997345   5.9291768
  57.1102142  68.9737244   5.8822579   8.1076002  36.9167061  22.4698315
   8.9649906  37.3203926  22.3351078   8.2512970  35.9861412  22.2976933
  53.3371353  55.0520668  17.2788162  53.6299744  55.9409218  17.4798584
  53.2906609  55.0256119  16.3231106  72.6529617  62.5986519  17.7877483
  72.0488739  63.3162193  17.5969467  72.4855423  62.3821068  18.7049789
  10.0759935  45.2739182  81.5580597  10.1323271  44.7006340  82.3225250
   9.1693850  45.5809784  81.5552368  25.6233521   4.3453217  25.3280449
  25.5168076   3.8579757  26.1449757  24.7601643   4.3131051  24.9156132
  17.5922012  51.0391960  44.9707489  17.0101070  51.5858650  44.4429665
  17.9306736  51.6298637  45.6436386  21.7561398  14.7347260  29.7992554
  22.2924919  13.9473209  29.7067795  21.9610195  15.2565613  29.0234051
  42.0330467  39.1820030  67.0502853  41.1986771  39.1618233  67.5189514
  42.2756805  40.1077766  67.0329361  22.6186581  38.7835464  75.4010620
  23.1028824  38.3207893  76.0848846  21.9923744  39.3282127  75.8778610
  51.6103706  34.5626373  26.6485958  50.9027290  33.9317474  26.7807083
  51.4276237  34.9519348  25.7934456  42.6706276  21.7280312   0.7681237
  42.1288376  22.0897179   1.4694645  42.0700912  21.6264477   0.0297022
  85.9018936  31.6156216  56.9838676  86.4517593  30.8328133  56.9508362
  86.3627930  32.2551460  56.4409027   2.4579277  38.6938896  76.5355682
   2.0764863  39.5216904  76.8279343   2.2802205  38.6671143  75.5953827
  57.2328758  49.3007317  55.3306541  57.1178474  50.2459068  55.4288330
  57.4553795  49.1811562  54.4073830  71.4867249  57.7078171  39.4911842
  71.5301895  57.0731125  38.7759972  71.9219513  57.2727165  40.2243271
  19.0077457  39.7406578  41.8908997  19.3512802  39.8533936  42.7771873
  19.3024769  38.8684578  41.6289253  17.8316517  63.2893715  76.8795624
  17.6623402  63.1166725  75.9534149  18.0180283  64.2274628  76.9181061
  11.7273760  41.8248672  49.8522224  11.0090046  41.2960472  50.1993866
  12.1455851  42.1992874  50.6275558  63.3863487  62.6017990  44.2931938
  63.8825607  62.6789513  43.4782982  62.6156006  63.1529236  44.1573830
  69.5557327  64.3012466   0.4323570  69.1347275  64.3194199  -0.4270946
  70.2448654  64.9631348   0.3755336  66.4446335  68.5234146  84.8180466
  66.6694946  69.4535675  84.7959900  66.2976837  68.3344421  85.7448349
  38.9459038  42.4313660  69.7718124  38.7811279  41.8545685  69.0259018
  38.1765175  42.3251419  70.3312683  54.0055504   2.7434652  31.5580978
  53.8805656   3.4540055  30.9290161  53.1190567   2.5044818  31.8287334
  54.2304306  17.5635796  26.6359692  53.8426208  17.2204342  27.4410057
  53.5008278  17.6060600  26.0178223  72.3939896  45.2741508  41.6514397
  71.4518738  45.3637123  41.7950592  72.6248627  46.0234528  41.1023712
  78.4159927  23.0992546  20.8800087  78.9958344  23.3255329  21.6072044
  77.8868637  22.3741035  21.2122955  77.0788956  19.9273014  66.6220016
  76.2385788  19.5897388  66.3119049  76.8488312  20.6844559  67.1605301
   5.8695073  34.1268959  14.7340450   5.0762401  34.1474419  14.1987534
   5.6609607  34.6725502  15.4923334  30.1706200  50.6974068  78.9947662
  30.1183987  51.6507301  78.9263687  29.3451576  50.4412193  79.4061203
  85.4803391  42.2685776  14.4685926  85.8934326  42.7963028  15.1520357
  86.0088882  41.4715157  14.4291286  83.0890656  13.0004292  66.7599106
  83.0634384  12.3158178  66.0914230  83.9682388  13.3721552  66.6884689
  73.6226273  50.2168617  37.6855354  73.6620026  50.0435448  36.7449799
  72.7692184  50.6297951  37.8174667  73.9651413  13.9927788  25.3167133
  74.0929337  14.2028656  24.3916378  73.0741501  13.6460075  25.3627014
  44.1158676  52.0849152   6.4702501  44.8487358  51.8243866   7.0281572
  44.3490791  51.7592430   5.6008930  78.7290344   1.0124317   4.3503604
  78.0622940   0.3510219   4.1653419  78.8808365   1.4415737   3.5083244
  31.4203949  26.0484734  85.5921097  32.1332283  25.4445534  85.3838348
  31.8135643  26.6869965  86.1870422   2.6474359  24.1801796  78.8110809
   2.6730506  23.3616314  78.3155441   1.7253238  24.4368153  78.8021469
  56.8561134  39.8959846  36.7423096  57.1658592  39.1514091  36.2266541
  55.9180794  39.7389145  36.8502464  42.7718544  27.3324375  75.5304184
  43.3358803  28.0845871  75.7103653  42.4255905  27.4971161  74.6533737
  82.9105759  43.0876617  78.0516205  81.9759445  42.9103088  77.9455490
  83.1832809  42.5146217  78.7682037   4.5950212  23.0640278  56.0877037
   5.2221942  23.7758141  55.9602394   3.7466071  23.5018368  56.1566200
   9.1674290  46.8292160  34.9155426   8.5715809  47.3482971  34.3754005
   8.5996113  46.4055519  35.5592232   8.1630440  19.9832649   5.4179654
   8.9640369  20.3661327   5.7758107   8.0489969  19.1674347   5.9054561
  80.0395584  21.4456787   2.9402187  80.7590485  20.8273716   3.0677497
  79.9632339  21.9006386   3.7789187  27.0421143  37.7065620  67.5454865
  27.3087940  37.5167313  68.4449768  27.7921200  37.4425888  67.0125351
  51.7853127  40.6403122  67.3981781  52.2389488  40.1228523  68.0635223
  52.3748169  41.3735657  67.2219543   5.6098466  47.5629387  24.4885025
   5.2036119  48.3485718  24.1224613   6.4264688  47.4652176  23.9987965
   8.2713509  15.2340727  73.2059860   8.5860987  14.8877087  72.3710022
   8.6941299  14.6861172  73.8672256  80.2044601  12.7326326  67.8855515
  80.7992249  12.0024834  67.7141876  80.7813797  13.4687824  68.0891953
   4.1244893  37.1587753  30.1039467   3.3245735  37.6779175  30.1867428
   4.3417230  36.9086571  31.0019913  26.4754086  69.6106567  11.2780838
  26.7032700  69.8105316  10.3701410  25.5683784  69.3077087  11.2362642
  54.5155220  39.0707169  27.8234005  53.6654205  38.6376381  27.9008770
  54.6525497  39.4836426  28.6760139  31.4994049  62.0400314  71.7034225
  32.0212593  62.1642761  72.4961777  32.0023994  61.4152603  71.1810379
  47.1767578  48.8492546  25.8667068  46.2962494  48.4762459  25.8242378
  47.1958199  49.4988937  25.1639709  13.3694420  25.9691582  57.0886040
  13.4668884  25.5312195  56.2430611  13.0317154  26.8379250  56.8708572
  63.9815369  52.6563911   9.8552513  63.6890793  52.1063995  10.5820332
  63.8288612  53.5521240  10.1562138  34.6380005  12.0698595  65.2740555
  33.9787788  12.7342043  65.0733032  34.3537216  11.6945095  66.1074371
  50.5461388  18.8609695  70.4274292  50.3224373  18.1330605  69.8474808
  49.9665527  19.5719585  70.1539154  23.4040737  62.8803253  77.4067917
  23.5730095  62.0894432  76.8947372  24.0655365  63.5046120  77.1085205
  58.3256226  48.1340332  46.0778694  57.7507210  48.1839523  45.3141747
  59.0447426  47.5668526  45.7996521  54.7788734  39.7221298  30.7087307
  55.1142273  40.5913620  30.9282837  55.4557495  39.1194496  31.0167084
  74.9084396  49.3615150  86.1350861  75.4219513  48.7048187  86.6054916
  75.5605164  49.9630280  85.7756195  80.7763824  15.3818521   3.1944962
  80.0570908  15.6664314   3.7582934  80.8600922  14.4442253   3.3679328
  82.9929504  35.3720398  44.7088051  83.3797607  35.9899673  44.0885086
  82.5791321  34.7073479  44.1581955  40.4673920  38.4015160  19.1243782
  39.9673424  37.7878113  18.5862789  39.8989716  39.1674156  19.2051468
   0.4914225  25.6766891  53.2981491   0.4503545  26.6327362  53.2754288
  -0.3572551  25.4088078  53.6505966  59.3013306  59.0510368   4.4757433
  60.2499580  59.0214043   4.3514204  59.1245232  59.9488220   4.7567272
  53.0124931  60.2004204  60.1795158  53.5849037  60.0392990  60.9295921
  53.4731026  60.8630028  59.6646843  31.2969284   6.6935172  65.3250656
  31.7240543   6.8722453  64.4873047  31.1169415   5.7535763  65.3064346
  50.9460068  69.9006195   4.6930532  50.2452087  70.5277557   4.5146866
  50.5249825  69.0440292   4.6207976  12.0134392   8.5777931   3.3911967
  11.8242521   8.8879175   4.2767830  12.2256260   9.3713274   2.8997579
  23.6947823  10.0702734  21.1058121  22.7888470  10.3676710  21.0217590
  24.1085262  10.7202549  21.6737652  63.1444206  62.6243134  32.6570969
  63.2812576  61.8341446  32.1344681  63.5274658  63.3275833  32.1327705
  17.4652424  57.8828163  40.0866013  17.6447964  57.0563049  40.5347900
  16.8869057  58.3580589  40.6831741  21.4304543  57.4167633  23.6677322
  20.6771259  57.9895706  23.5241470  21.0515747  56.5435600  23.7687378
  66.0294266  36.1066437  44.9979019  66.6828156  36.3414040  44.3389626
  66.1400757  36.7602463  45.6884041   9.7395840  46.7514381  60.9078217
  10.2792730  46.2248993  61.4975014   9.4627094  47.4980049  61.4390602
  32.1099739  51.9112892  74.5367813  32.0669250  51.0972519  75.0384979
  32.5227509  51.6615562  73.7100525  63.0033455   7.1584539  45.7260132
  62.6211205   7.6755075  46.4350891  62.9619675   6.2549033  46.0392456
  28.0546703  67.3806076  66.7268982  27.8661957  67.3278046  67.6638718
  28.4183998  68.2575531  66.6048050  32.2693024  68.7681274   9.8269615
  31.4545822  68.2684937   9.7738619  32.6881065  68.4587173  10.6301441
  46.6869507  48.7698288  76.2135544  45.7298164  48.7650299  76.2033463
  46.9165039  48.7828407  77.1427307  50.3808632  59.7796173  11.3330355
  50.4289131  60.5675850  11.8743563  50.2998009  60.1086121  10.4378128
  75.1469040   2.8728743  70.7423553  76.0568314   2.8155160  71.0338516
  74.8937149   3.7778769  70.9242783  82.4886169  14.5521584  86.5037384
  82.1903381  14.6329231  87.4096832  83.2677536  13.9986334  86.5565491
  53.0132027  40.2440109  73.2802505  52.4163895  40.5108795  73.9794159
  52.5384712  39.5598450  72.8082581  75.2670364  37.4048424   4.2408676
  75.6032562  37.3730011   5.1365089  74.3513489  37.6662445   4.3379335
  37.3349609   7.1721730  67.8254623  37.6632729   7.1071954  68.7222443
  36.4483833   7.5205240  67.9196320  30.2054920  32.7774811  74.9911194
  30.0527954  32.8129654  75.9353943  29.5118542  32.2084236  74.6575470
   1.8004041  41.2963066  20.5489254   1.9433095  42.0197754  21.1591759
   0.8621207  41.1159897  20.6067352   8.3465586  47.5620956   5.9987631
   8.1191387  48.4900513   6.0571275   7.8971472  47.1582031   6.7411456
   5.2761889  39.0945892  71.2806168   4.8068480  39.0468178  72.1134872
   6.1804576  39.2901535  71.5261459  45.9060745  64.9666138  26.5089207
  45.4967995  65.8004990  26.2779274  45.5323982  64.7445145  27.3617229
  57.2973824  47.1220894  34.9433632  56.4672928  47.5956306  34.8891373
  57.6406212  47.1373138  34.0499496  38.4444504  70.6304703  18.2969894
  38.4526291  70.1734695  19.1380100  39.3300514  70.9823914  18.2070045
  60.7756729  42.9893074  14.2040758  60.9280701  42.3222618  14.8734465
  59.8240242  43.0886612  14.1772461  85.5572357  54.9946289  56.0947151
  85.0444183  54.3576126  56.5921745  85.1481934  55.0080833  55.2294197
  26.0093861   6.0845833   4.6456933  25.8308506   6.9736233   4.9522290
  25.9302425   5.5406241   5.4293242  58.5643692  51.5284500  68.8276978
  58.1216011  51.6971893  67.9960022  59.0013504  50.6864586  68.6998825
   4.3222585  49.9847450  76.9758072   4.2302237  50.8915253  76.6833878
   4.0232630  49.9947853  77.8850555  24.6379128  63.1393814  83.3977280
  23.8124580  63.5998688  83.2467041  24.8376350  62.7243309  82.5586395
  72.8794937  64.8453064  40.6292305  73.4653320  64.6452789  41.3593102
  72.0001373  64.7628021  40.9982262  84.7358246  57.3142052  17.4187241
  84.4310837  57.8872070  18.1223106  83.9353485  56.9389000  17.0518246
  82.4125061  63.5101967  72.9014587  82.0755157  64.0772171  73.5951157
  82.8233719  62.7813072  73.3663712  35.6999474  48.4510269  63.3742828
  35.9715309  49.3673706  63.3214378  34.7489128  48.4885712  63.4760437
  25.7959480  45.2993660  53.8008385  26.2192879  45.1594353  54.6478500
  26.2791882  46.0267029  53.4088020  27.7552719   2.0144091  27.5822258
  26.8959141   2.4321206  27.6392384  27.8778591   1.8452562  26.6480999
  56.6851234  45.4555473  62.1093674  55.9171066  45.6794739  61.5837822
  56.9394188  44.5850487  61.8031044  54.6811295  51.3360901  88.1703796
  55.1133347  51.6036415  87.3593063  54.0209541  50.7013893  87.8918762
  49.0313988  35.7960930  37.8377304  49.3936348  35.3066177  37.0991974
  48.1257782  35.9755707  37.5850143  17.2488346  60.4944572  77.3004227
  17.6642494  60.1419029  78.0874176  17.7519360  61.2828979  77.0967484
  34.4610634  13.1957407  57.9917793  33.5392838  13.1182775  58.2378616
  34.9410286  12.8940115  58.7630272  31.5512562  58.9324074  25.4023418
  31.0139217  58.7787628  24.6252346  32.0219612  58.1094971  25.5345879
  41.5013657  64.9968643  14.3200197  41.4367447  64.7658386  13.3933678
  42.4402809  64.9820938  14.5056343  43.6585732  43.0954514  66.8096085
  43.5584488  43.9392586  67.2502899  43.8490562  43.3217850  65.8992691
  33.2041473  66.5894852  67.1145935  33.3094559  66.6491852  66.1650848
  32.4969254  67.2022247  67.3161316  41.1525002   7.0968580  69.2500916
  40.6610603   6.2849593  69.3747482  40.8337898   7.4442387  68.4170380
  61.0233040  15.4629669  59.6862183  60.8394547  16.3189259  59.2992210
  60.8570251  14.8396816  58.9790382  32.7514000  35.0567474  58.2700653
  32.8257561  34.1096649  58.3872871  33.4552803  35.2786369  57.6605225
  83.1748657  44.8662071  67.3448563  82.8966599  44.3808289  68.1215439
  82.3850708  45.3196449  67.0501404  26.7571220  57.8755836  78.8021088
  26.9465332  57.9626617  79.7363358  27.5718403  58.1285133  78.3679504
  17.5149860  35.9822311  16.7357731  16.7389469  35.4444542  16.5783310
  17.3047199  36.4808044  17.5253601  52.2777023  30.3673954   9.3920536
  53.1452560  30.7712631   9.4138041  52.2708092  29.8581905   8.5815639
  10.3893080  33.2261620   9.7187729  10.6290493  32.3193092   9.5280409
  10.7019377  33.7209244   8.9613400  66.1865997  16.7888317  52.8507195
  66.9041367  17.3525028  52.5614929  66.3991241  16.5780926  53.7599258
  25.6706295  57.3569412  41.7542686  25.3255672  56.7800903  42.4357414
  25.1975708  57.1016846  40.9622498  41.2166557  57.3525124   8.7126226
  41.8562965  57.7873802   9.2765198  40.5087852  57.9897842   8.6175575
  32.2012367  58.9903717   2.0282071  31.9390869  58.8875008   1.1133701
  33.0292053  58.5147324   2.0950375  42.6508026  54.9812584   8.6073704
  42.5808868  54.6557388   7.7099404  42.0753479  55.7458229   8.6303358
   7.3011570  11.1413403  16.0110264   7.0325055  10.5591650  16.7217503
   6.5469699  11.1641197  15.4220314  62.3119698  52.5349693  85.4409637
  62.7368889  51.7557144  85.0825729  62.9877892  53.2121048  85.4096146
  46.7797165  12.9561863  15.0806570  47.5338173  13.2599745  14.5754070
  46.2262115  12.5097799  14.4398851  25.7650070  44.0417099  43.0462418
  26.6659946  43.8813934  43.3268700  25.2278862  43.5793571  43.6896400
  71.2897568   8.1380577  10.8531933  70.7953262   8.5946827  11.5338306
  72.2056732   8.2452040  11.1098166  51.0220299  60.2173615  65.5771942
  50.7116280  60.7995567  66.2706833  51.7488861  60.6917801  65.1736526
  86.2170486  31.8125553   2.0057957  85.7291183  31.2854156   1.3731184
  86.9420776  32.1816597   1.5014805  33.6613159  41.6695633   6.0711193
  32.7335663  41.8037300   6.2648110  33.6654930  41.0960045   5.3048005
  34.4085045  63.7275314  67.1627808  34.0381927  64.5655823  66.8857117
  34.3358917  63.1665840  66.3905792  72.8997803  36.1530914   7.0921259
  73.0195007  36.7297516   6.3375649  72.3604660  36.6608200   7.6984115
  52.9587669  37.5971451  23.4085827  52.7914925  38.5369568  23.3378162
  52.2684975  37.1908798  22.8844547  75.1098785  14.6885242  49.5148201
  74.5109024  14.9145622  50.2264137  75.9692917  14.6353521  49.9329376
  27.7357788   3.3428957   0.9037763  26.8134518   3.0988514   0.8263966
  27.8327427   3.6277380   1.8124537  24.3496857   5.3250723  64.7971649
  23.8712215   5.4207973  63.9736748  24.5928211   4.3997388  64.8267365
  74.6213150  36.6873779  84.7581329  74.0405197  36.2610703  85.3883438
  74.0743103  36.8279266  83.9853058   0.3689660  54.1683311  48.8865623
   0.1085113  53.8018265  48.0415344   0.1558067  55.0991058  48.8198700
  26.4842014  53.6679764  39.7072258  26.5377254  52.8012428  39.3045616
  27.1444988  53.6514091  40.4000206  37.7267380  31.5836506  72.1987915
  38.0289955  32.4682465  71.9929733  37.7361984  31.5437508  73.1551132
  18.3694286  45.7635117  16.7528229  18.1814842  45.8847923  15.8221245
  18.6763859  46.6204720  17.0488415  72.0609818  60.1136971  57.0744171
  72.3138428  60.8330231  56.4957390  72.1689072  59.3270226  56.5398788
  36.8864517  63.2532272  54.0055008  36.5239449  62.5331879  54.5216026
  37.3852081  62.8227921  53.3110924  48.7700500  12.2268057  36.0931587
  48.7624435  12.5982780  36.9753036  47.9284325  12.4849615  35.7173004
  71.7068787  47.6296043  26.2130222  71.8603363  48.4517708  26.6785564
  70.8668365  47.3172264  26.5491467  37.6678772  15.0866718   2.7114582
  38.5863495  15.1582012   2.4516053  37.5854683  14.1981716   3.0578811
  78.9010010  27.3392296  58.3084221  79.7422714  27.0852833  58.6878967
  78.4335709  27.7662792  59.0263176  75.7780609  69.3021164  41.6373024
  76.5093079  68.8528671  41.2134094  75.6138840  70.0664062  41.0849152
  84.1794968  18.8784637  24.0239639  84.0247192  17.9722996  23.7572346
  84.0502014  19.3888493  23.2245750  85.1167831  48.5195312  46.6495628
  84.4359894  49.0298729  47.0880928  84.7811813  47.6230927  46.6490135
  46.3019180   7.5029526  72.9597778  45.4543953   7.4571033  72.5172501
  46.9191475   7.7478657  72.2703705  19.5577278  17.3994083  27.8993454
  19.0769787  16.5717735  27.9107971  20.3233356  17.2241249  27.3522148
   1.7954569  22.5389118  32.3876038   1.9279869  21.9823475  31.6202030
   1.6606865  21.9242325  33.1088791  38.5603905  61.9342804  79.4056625
  38.3880768  61.0736046  79.0238495  38.7202492  61.7574005  80.3326950
  67.1539230  66.5947800  76.3355789  67.6832199  65.7996902  76.2731247
  67.1362991  66.9414673  75.4435425  80.0332565  40.3895378  45.2565651
  79.6480103  40.9435806  45.9354248  80.9608994  40.6255379  45.2526665
   7.6832070  12.4200869   4.4522963   7.4584522  13.2740507   4.8217044
   8.3129091  12.0497856   5.0708308  33.0079231  58.2698975  56.5330162
  32.9846573  59.0010872  55.9157219  33.9121361  57.9575424  56.5003433
  12.3116026  35.7222214   0.3545252  12.6267443  35.1560593  -0.3500159
  11.3676319  35.5662155   0.3830538  73.3337860   3.0614264  26.1785297
  73.8159485   3.4235711  26.9219017  72.9794464   3.8273487  25.7268219
  16.4860191  23.7530365   6.9896517  17.1664963  23.2228260   7.4044538
  16.1537056  24.3098068   7.6937866  51.8705139  40.0147476  46.5862694
  52.4978180  39.3011742  46.7026329  52.3498535  40.6760139  46.0870781
  56.6121826  10.4665174  87.2394714  56.5976791   9.9231815  88.0273895
  56.8646889  11.3352346  87.5522079  72.1880569  14.8016777  49.6783066
  71.2550888  14.5941877  49.6259422  72.3628387  15.3190994  48.8922005
  39.8166275  13.5071058  73.0371704  39.7326355  12.8639145  72.3332672
  39.2744293  13.1594296  73.7452545  13.8665791  41.7056618  66.7868881
  14.4531202  41.1728287  66.2499695  13.3626442  41.0696259  67.2945709
  55.0961380  16.8414059  14.5172567  55.4687881  17.3795357  13.8188448
  55.8434677  16.6178360  15.0720072  38.2040176  45.5933990  83.5259094
  38.7074394  45.8823204  84.2870483  38.6171989  44.7707520  83.2636871
  79.8303604  16.1615028  72.0765152  79.3341370  16.4162674  71.2986374
  79.6169968  15.2372217  72.2046356  74.8078156  13.9559479  30.2930679
  74.0849838  14.4306707  30.7034225  75.4349747  13.8148794  31.0022964
  32.7045937  56.8215714  33.5634537  32.4427032  56.6799622  34.4731712
  33.6336517  57.0463943  33.6138954  16.7741947  23.1030178  27.0235825
  16.0901241  23.4378147  26.4437675  16.3934536  23.1582203  27.9000645
  46.5964317  21.8634949  30.2973137  46.4315109  22.6672916  30.7902069
  46.9667511  21.2595406  30.9410019   5.3104653  65.5810699  27.0446701
   5.2834034  64.8870239  27.7033043   4.3984575  65.8551407  26.9479160
  78.1523132  71.4285126  39.3464508  78.3365326  70.7486496  38.6983185
  78.6609955  72.1840820  39.0521965   3.4208307  25.7525177  56.7360039
   4.3741717  25.7327690  56.6524467   3.2639732  25.7988148  57.6791306
   3.5216126  54.9436378  14.8284588   2.9092596  55.6762848  14.7614985
   3.4974356  54.6949615  15.7524748  76.6112137  68.1214676   7.6870098
  76.9322205  68.9490433   7.3288002  76.1279984  68.3726044   8.4741983
  31.4468517  48.8149223  51.1010475  30.8487415  49.2108612  51.7348709
  31.3564835  49.3555603  50.3163338  86.1016083  19.6816959  47.8829002
  85.6681747  20.5153675  47.7002525  86.0359268  19.1928253  47.0625801
  40.8163071  31.6061764  70.2926178  40.4597549  30.7208366  70.3652344
  41.5793495  31.6052322  70.8705444  56.9536057  30.8871937  20.7026405
  56.5980949  31.7696915  20.8077126  57.1294746  30.8099041  19.7649155
  62.0600700  39.5532532  72.4912643  62.9828148  39.3943291  72.2924652
  61.5842438  38.9593315  71.9106750  35.1804886  40.7786751  30.8776474
  35.6403465  40.0109482  31.2172890  35.4933434  40.8663712  29.9772797
  39.2868805  47.4552422  88.0371094  38.5979271  48.0578499  87.7570419
  38.8923607  46.9561272  88.7522812  41.8868065   5.6652846  73.6067047
  42.6184311   5.9030304  74.1763000  41.1504593   5.5352583  74.2042923
  34.9384766   1.0386754  13.2954493  34.7192421   0.2676307  12.7723274
  34.7373962   0.7825081  14.1955471  41.6452293  70.8823166  65.7084808
  40.7501030  70.5439758  65.7309418  42.0301476  70.4895477  64.9250259
  46.0335808  27.5289345  44.4439468  45.6315193  27.5994644  45.3097420
  46.8838501  27.1207619  44.6072502  61.7812119  70.6152115  78.7886810
  62.6064339  70.1958389  79.0323334  61.9962692  71.5454483  78.7205048
  45.4696312  66.9713669  15.2981234  45.0615578  67.7656555  15.6428289
  46.1982269  67.2886276  14.7645245  72.9860840  34.0493202  62.1627350
  72.6510162  33.2541199  62.5769997  73.2518005  34.6066971  62.8941422
  11.5038157  29.6252098  73.2213821  11.0847349  28.9049625  73.6923904
  12.4418793  29.4677372  73.3284836  80.6259003   5.4261131  71.5984344
  80.9637146   6.3136187  71.4782333  80.0163116   5.3013167  70.8710709
  24.5308189  34.1168022  78.0103912  25.2535629  33.8530235  77.4409256
  24.8494949  34.9033775  78.4530869  66.1187515  21.8768291  17.7299309
  66.0803604  21.3867836  18.5512791  65.4362717  21.4849281  17.1850815
  20.5719109  64.6584167  58.4037895  20.0579910  63.8578300  58.5095367
  20.9615345  64.8084412  59.2651367  46.0806313  51.4694023  20.1013355
  46.5639153  50.6451225  20.1581326  45.2513123  51.2918777  20.5451221
  80.6736603  17.0002384  15.7287664  80.8072357  17.8560619  16.1361408
  80.3998413  17.2010860  14.8338270  11.9820375  50.1342621  12.6129446
  12.7732515  49.5966377  12.6471682  11.2645693  49.5126076  12.7354937
  22.8638611  29.9639683  80.3937454  21.9103546  30.0355453  80.3497543
  23.1396656  30.7373943  80.8856506  43.6075974  56.5072098  81.0009384
  42.7038879  56.6150284  80.7044220  44.1139755  57.1010513  80.4467163
  56.0637856   8.9281969  22.2541733  55.3151817   8.4448576  21.9045925
  55.7127876   9.7932682  22.4655571  25.7962818  57.1856651  45.9603882
  26.6898823  56.8627663  46.0763550  25.2507362  56.5544090  46.4295616
  74.7011414  17.0207329  52.6981735  74.9460297  17.6125355  51.9868126
  73.7455673  17.0667076  52.7297554  32.8471413  67.4013672   3.9953375
  31.9166355  67.6005173   3.8917325  32.9297485  66.4900360   3.7144895
  46.5176086   0.6967035  82.3415070  46.6524506  -0.1999263  82.0347443
  46.5452995   0.6300054  83.2959747   6.4870892  14.7777882  68.0158463
   5.7827439  14.1385107  68.1228714   6.1080017  15.6041908  68.3151550
  48.5424957  12.8150873  57.2370338  49.1109924  13.3070707  57.8294868
  47.6806793  13.2180758  57.3423843  13.0021133  29.6345730  84.6345062
  12.5659084  29.0163403  85.2208099  13.0390825  29.1808109  83.7925110
  14.1594687  22.2683010  78.8161621  13.7612686  21.6839371  78.1710358
  15.0477877  22.4143696  78.4909134  78.4530716  13.6282415  77.0089645
  78.8671722  13.1543665  76.2877197  77.9465942  12.9621115  77.4737015
  16.7528877  67.9076996  62.9215965  17.1884384  68.5561447  63.4748077
  16.8358879  68.2557983  62.0338097  19.0609741  48.8525848  77.0131531
  19.2065735  48.3409233  76.2173920  18.1086140  48.8972855  77.0982590
  57.6114464   2.7082167  59.7981300  57.9264679   1.8154503  59.6568413
  57.9213791   2.9356422  60.6747437  70.8350372  30.2176952   4.8425736
  69.9895325  29.7832928   4.7300968  71.2384186  30.1849384   3.9751377
  51.7188454  17.9484749  38.6232834  50.8789062  17.5478897  38.3990974
  52.1267815  18.1382713  37.7784195  70.0527725  64.5561295  10.7908030
  69.2048340  64.3166275  11.1647949  70.5934982  64.7812042  11.5478964
  79.1924820  24.1197510   0.9634118  78.5492249  23.7424850   1.5635190
  79.8632584  23.4426804   0.8747348  18.1420460  55.9136429  61.5309639
  18.7309208  56.6143990  61.2509651  17.4708767  55.8781700  60.8494186
  75.9835434  28.8758411  24.9458485  76.4091187  28.6801529  24.1110878
  76.2078705  28.1347370  25.5085869   1.5395494   2.3400197  35.2941704
   0.8163272   2.5602522  34.7070770   1.1898280   2.4913538  36.1722527
  50.8430023  48.2093735  37.3329163  49.9346581  48.3285217  37.6103058
  51.0887146  49.0512657  36.9494095   0.9025816   1.6770413  55.9876404
   1.7257081   1.2469844  56.2194710   0.6908485   2.2158191  56.7499542
  24.8783607  50.5311737  77.7846451  24.5910015  51.3843613  77.4594879
  24.4028397  50.4158363  78.6073303  78.3061295   1.6848037  26.3166409
  78.3598328   0.7440745  26.1481895  79.0466461   2.0565937  25.8374424
  82.1355515   5.1335845  23.5009174  82.0099106   5.1142650  24.4496403
  83.0847168   5.0924997  23.3841286  69.3773041  23.0753403  28.3799114
  69.2048721  23.2737179  27.4595051  68.8511276  23.7112770  28.8646336
  59.0250092  51.8913231  12.6862011  59.5747414  51.5329704  13.3830566
  58.3579407  52.4013252  13.1457090  36.7322845  43.9917488   7.6031795
  36.1423149  44.3682976   6.9502020  36.2987862  44.1559677   8.4406433
  76.2460403  44.1102753   4.7797189  76.1933212  43.5890198   5.5808082
  76.7182770  44.9013596   5.0393548  32.2240601  65.1727982  26.8160515
  31.6261101  65.9185104  26.7650604  33.0594482  65.5537186  27.0867119
  18.8610458  13.3195591  73.1692657  18.0364647  12.8445578  73.2725677
  18.6301785  14.2360086  73.3210907  40.6636848  11.0470133  85.8232269
  40.3990364  11.5360832  86.6023254  41.2929153  10.4025650  86.1472473
  81.3635406  50.4685860  44.0933266  81.8882141  50.9739189  44.7142868
  81.6080551  50.8153648  43.2353134   0.3290201  25.9050770  78.8208771
  -0.4300272  26.1364212  79.3561935   0.9967954  26.5470695  79.0620346
  84.4342499  37.0585632  36.4068222  84.1598358  36.2381401  35.9971466
  83.7467422  37.6832619  36.1759262  64.3944931  50.9501610  68.0959167
  63.7399139  51.1088486  68.7760468  63.9120407  51.0384178  67.2739182
  60.5373192  54.8382683  87.7391586  60.5898323  55.6823463  88.1874924
  61.0663719  54.2484665  88.2762527  28.5344677  64.7272720   9.1210938
  27.9999199  65.3085403   8.5801516  27.9585285  64.4748001   9.8427467
   9.2304983  12.9950657  16.0201607   9.9436102  12.4649496  15.6642380
   8.4685640  12.4160261  16.0001411  63.3266068   4.6924677  77.6980209
  63.4847374   4.2867098  78.5504227  62.6058693   4.1870027  77.3221512
  82.4107895  10.0376987  35.9075584  81.7580719   9.9274120  36.5989532
  82.8997955  10.8201027  36.1624184   6.1431780  43.7507744  59.4850807
   5.7153459  42.9191132  59.2812920   6.3738151  43.6808014  60.4114380
  48.7497215   5.2746983  78.7271805  49.2518005   4.9862547  77.9649811
  48.1999359   4.5235119  78.9500885  60.8205032  34.3833275  61.8593750
  61.4564705  33.9532318  62.4310379  59.9881439  34.3051872  62.3255348
  82.6095200  16.7996864  13.1213932  82.8745728  16.4154835  12.2857094
  81.6559448  16.8609886  13.0651102   9.7667761  18.4176769  80.3606949
  10.6840839  18.4166222  80.6341476   9.8007641  18.3318005  79.4079590
  48.6746254  17.7616005  37.7850761  47.9510193  17.3702164  38.2744064
  48.5337105  18.7051697  37.8628769  69.0326385   4.0964956  57.6897926
  68.3442993   3.4443233  57.8205070  69.6255417   3.6949327  57.0546188
  53.1395378   9.8733301  81.2758560  54.0230789   9.8619776  81.6439056
  52.6362419  10.4212847  81.8780746  40.9456482  11.0040340  42.9342957
  41.8897209  10.8650007  43.0093193  40.8511353  11.9497089  42.8202896
  48.2661285  42.0016098  80.3643265  48.8807602  42.5579567  79.8858566
  48.5965309  41.9971161  81.2626801   7.0546618  65.1573792  39.7546463
   7.0742426  66.0763474  39.4875336   6.2984405  64.7908173  39.2963943
  35.3505554  44.7478256   9.9678001  35.7315369  45.5306320  10.3656654
  35.2980499  44.1160202  10.6849451  45.4501801  22.0373249  23.0113926
  44.7759552  22.3557682  23.6115990  45.7814941  22.8265266  22.5828800
   9.3722572  50.2588272  74.3091812   8.6687632  50.6361008  73.7809830
   8.9972649  50.1799545  75.1863251  41.8684883  47.7462082  67.5197220
  41.0946693  48.0185242  68.0129623  42.5859108  47.7992516  68.1511688
  18.9855385   5.6734686   1.7842755  18.4250088   5.2895145   1.1100228
  18.3835621   5.9106255   2.4896924  60.1010971  45.7690811  49.8811493
  60.6966553  46.3649597  50.3355408  59.8464622  45.1307564  50.5474319
  66.2840347  50.4932289  88.4742203  66.8447647  49.7500038  88.2519073
  66.6889725  50.8741226  89.2534409  30.0281067  19.7144775  68.7023239
  29.7240582  19.5027561  67.8197327  30.6567707  20.4249840  68.5750656
  27.3492489  10.0094299  70.0982666  26.5522728   9.5382147  70.3412018
  27.2290287  10.8867102  70.4618073  71.5009384  11.8467579  76.7866669
  71.8802567  11.1341839  77.3010483  71.9353409  11.7856083  75.9359131
  33.5650978  34.3904495   1.1989169  34.0307922  33.6371765   0.8356849
  34.0297737  34.5902176   2.0115662  70.7333527  65.3404465  49.7744255
  71.0111694  66.2444077  49.9224167  70.0103073  65.4110794  49.1511688
  70.1388168  49.3567963   6.1373711  70.4841003  50.1030731   6.6273513
  70.9166718  48.8985901   5.8192148  24.9752254  51.8462067  24.1696796
  24.8193951  50.9031334  24.2202988  25.9042969  51.9241562  23.9529266
  31.5932159  42.5163765  35.0293503  31.1000328  43.3343277  35.0922394
  31.1753674  42.0392761  34.3124046  62.9803886  33.8085442  79.2420807
  63.9323845  33.7847900  79.1452866  62.7799568  33.0722885  79.8199997
  71.7347946  45.1649399  29.1795044  72.0934753  45.7690506  29.8296070
  72.4463730  45.0383186  28.5519238  21.2955437  46.5366325  55.0008812
  20.4460621  46.7142029  55.4047165  21.4281464  47.2635918  54.3924599
  79.6551819  66.0690079  61.5195427  79.6409836  66.5929947  60.7186241
  80.5830154  65.8900070  61.6722260  35.5875244   4.6582618  58.9230003
  34.9397163   4.7766781  59.6176605  35.8413239   5.5480795  58.6779633
  75.4889908  17.8197441  78.5503311  76.3262482  18.2829208  78.5238190
  75.7011414  16.9258938  78.2815247  35.7784462  50.9674644  19.3036270
  35.0662575  51.4002686  18.8327751  35.5608635  51.0856285  20.2282505
  20.1260242  60.0382042  21.5959988  20.3141499  60.2563019  22.5088387
  19.1933327  59.8231277  21.5884514  58.0360870  44.8372154  52.4752274
  58.0801926  45.6406250  51.9567528  57.2981682  44.3531570  52.1045570
  69.9799423  28.0009785  71.5633621  69.4723129  27.1894798  71.5670929
  70.4115906  28.0095482  70.7090607  49.4403343  40.6389313  22.3125782
  48.7445374  40.8350449  22.9399853  50.1304169  41.2706223  22.5150127
  59.4338150   0.4590023   1.0296491  60.2120590   0.8311071   1.4445083
  58.7047119   0.9596326   1.3957260  76.7149811  22.4227028  49.3195953
  76.8266144  23.1578674  48.7168465  75.7679214  22.2909908  49.3639030
  56.7312775   2.9648676  28.1845379  57.4520760   3.5254173  27.8973770
  56.9435959   2.7479055  29.0923271  40.0696754  51.6951752  77.9319839
  39.2307243  52.1542397  77.9726410  40.4777985  51.8664627  78.7807083
  47.6155434  54.7695541  72.7462692  46.7027054  54.7013817  73.0261078
  47.6071930  55.4399338  72.0630722  26.9096355  44.4863663  19.9721451
  26.1931667  45.0714302  20.2183247  27.3714485  44.9531136  19.2756481
  28.5493870  47.5138092  41.3075752  29.3545895  47.0065880  41.2045746
  27.8502426  46.8604012  41.2855301  33.8704910  71.1146469  64.8753052
  33.0801086  71.6536102  64.8429260  34.5734978  71.7037888  64.6015854
  49.8888893   8.0369673  60.7906532  50.2699165   7.2637038  61.2067223
  49.1062622   8.2262993  61.3082199  51.8100510  20.7927284  39.9228592
  52.6793785  20.8653660  40.3168411  51.7492027  19.8791809  39.6436462
  81.1243973  37.5018692  66.0206223  80.5641098  36.7985649  65.6924896
  80.7656555  38.2972603  65.6270599  11.1278858  29.3460770  28.9979572
  10.6791162  28.5698147  28.6629124  11.8183889  28.9985733  29.5624714
  64.9171906  63.7563477  12.5101805  65.4072800  62.9649010  12.2873316
  64.0018158  63.4766502  12.5192060  31.6876221   9.7126389  80.9572372
  30.9229221   9.8934860  80.4106445  32.3938293  10.2193623  80.5563202
  28.4715958  13.3938599  69.3198166  28.9171734  13.2136526  70.1475983
  29.1777859  13.6015549  68.7079468  80.7213440  21.4677219  87.4122696
  79.8457489  21.7482910  87.1461105  80.6355820  20.5264473  87.5635300
  50.7574005  60.3214455  39.0692902  49.8194237  60.2318230  39.2378006
  50.8171463  60.4842262  38.1279259  61.8683510  22.8242092  53.0404472
  61.7297020  21.9812241  52.6087227  61.2765121  23.4252357  52.5879822
   7.1882100  45.9606438  73.4582901   7.3839431  46.8322182  73.1143723
   6.9737520  46.1091690  74.3792572  35.9103050  38.1394958  65.7701340
  35.2790947  38.7425995  66.1626511  36.7575798  38.5686760  65.8891220
  84.5047760  59.0856209  62.8739510  83.6546936  58.6497192  62.9337997
  84.9845734  58.7816620  63.6444283  15.1501074  51.6730499  52.5836563
  14.6223974  51.5632210  53.3746605  15.9315414  52.1397476  52.8799438
  62.6915436   8.6537170  59.3570747  61.9769592   8.0644522  59.5986633
  63.4381065   8.3488674  59.8727684  50.9888763   8.2915850  70.2580948
  51.9451866   8.2733202  70.2951279  50.7364235   7.3764915  70.1351929
  17.6141434  63.2423859  36.5397606  18.5104866  63.4555016  36.7993431
  17.3195553  62.6087837  37.1939774  61.6910248  28.4164371  22.3067017
  61.3291245  27.5726452  22.0360126  60.9922600  29.0454731  22.1270428
   0.0577071   1.6791235  69.6379471   0.5244054   1.5494297  68.8123550
  -0.4994417   0.9053590  69.7222366  10.1900892  55.7466087  80.3728867
  10.2054558  56.6406403  80.0312653   9.2798805  55.4676895  80.2731094
  36.3778763  44.4165497  59.0153885  36.0725899  45.2827415  58.7456818
  37.3266830  44.4481392  58.8929024  78.9168320  59.0974426  83.6292419
  79.7519760  59.3077011  83.2114410  78.2703400  59.1825066  82.9284973
  37.2191200  25.1493683  40.3023338  37.4767685  26.0273743  40.0213432
  36.3078728  25.2443714  40.5795326  52.9676094  11.3669109  66.7048111
  53.2718468  11.2816753  67.6083603  53.7639160  11.3057461  66.1771851
  35.2032471  26.1877918  80.2724915  34.4509544  26.4475441  79.7406921
  34.8189774  25.7681980  81.0422363  48.4531631  56.8014069  47.8279190
  48.2413597  56.6621361  48.7509460  49.3092613  56.3887482  47.7137222
  83.6055450  59.4066658  33.2064552  83.5138016  59.0797424  34.1014061
  84.5413666  59.5836983  33.1108856  57.4501305  53.8579750   8.7563848
  56.5737228  54.2280121   8.6505108  57.4312019  53.4398842   9.6172419
  52.3394394  18.8654385  73.9069443  52.8702545  18.5799484  73.1633301
  52.1990623  19.8002071  73.7561722  44.3878975  15.4081898  37.0695610
  44.5044708  14.4679966  37.2062302  43.4898872  15.5817251  37.3518562
  63.2376480  34.1237373  48.9639664  64.0880051  34.5515404  49.0645294
  63.2801056  33.7056046  48.1039696   6.1982989  40.8624611  35.4152641
   5.9491396  40.2719879  36.1262436   5.8850121  41.7219887  35.6968575
  38.0748253   0.8206901  13.7651615  38.0965958   1.1984409  12.8859215
  37.2151222   0.4041874  13.8256817  59.1657982  46.9341698   8.2407112
  59.5330086  47.5656929   8.8592300  59.8774223  46.3144035   8.0803576
   0.7165109  56.9585915  74.4417038   0.7713671  56.0047340  74.3835678
   1.0426463  57.2691765  73.5970764  60.5973587  37.0454254  60.8217468
  59.9610710  36.9640846  60.1112862  60.3944588  36.3176689  61.4094810
  84.4219131  25.5111256  76.2894592  83.8545761  25.3416500  77.0415421
  84.2538376  26.4260883  76.0640106  50.8716965  15.3850641  86.4240417
  50.7938843  15.1943417  87.3588181  50.9661674  16.3366089  86.3807983
  11.3176250  71.1449051  85.1191635  11.9593649  71.8496704  85.0313110
  10.4772758  71.5953445  85.2037048  81.7094421  66.5458221  27.4251156
  80.8162918  66.6292648  27.7591057  81.6905975  65.7552490  26.8857956
  21.5567551  68.4109116  44.0773354  21.9727478  69.1972122  43.7238960
  22.1168346  68.1519623  44.8091049  64.7396317  66.1626205  36.1168823
  63.9196968  65.6901169  35.9730949  65.2929001  65.5430069  36.5925026
  67.0096588  66.9318619  61.9954300  67.4837494  66.1041183  61.9159966
  66.5277634  66.8538208  62.8187904  48.0311623  50.6407242  30.9560947
  48.1262131  49.7726173  30.5641956  47.0957336  50.8324661  30.8894768
  47.3004570  19.8857708  70.0103607  46.8372345  19.5982533  70.7971191
  47.7846756  19.1122990  69.7213898  41.5918503  50.6887321  80.2918396
  41.8332748  50.3058205  79.4484406  41.3585739  49.9378929  80.8377838
  38.4761238  60.4244003  29.5570221  37.6675758  60.4174385  29.0447407
  39.1705437  60.5319633  28.9070663   8.6559286  71.2569199  54.0214767
   8.7732620  70.3088760  53.9608459   8.0255785  71.3752899  54.7320251
  21.6735802  43.0824623  68.2544479  22.3833351  43.7225914  68.2023468
  21.2576542  43.1153679  67.3929596  29.9317627  48.9691849  38.0172501
  29.9824066  49.9170227  37.8936691  29.1034851  48.8314857  38.4768486
  55.5598831  39.0738335  42.3703918  56.2347031  38.6728363  42.9181595
  55.5197601  38.5164566  41.5932503  57.6450310  59.2872276  27.9295883
  58.5007858  59.4951782  27.5545273  57.7716904  58.4424286  28.3614483
  85.7826996  62.4354820  13.9067631  86.7206421  62.3149757  13.7585659
  85.5617447  63.2252464  13.4131241  81.2487946  11.1588917  10.3693285
  81.7183151  10.3265209  10.3150845  81.7408447  11.7490749   9.7985411
  56.3154526  20.5124969  10.6344414  56.1803360  21.3580914  10.2067194
  56.7537689  19.9769268   9.9731741   5.2860670  28.7311611  71.7277756
   5.7855444  28.9534264  70.9420547   4.8209786  27.9271584  71.4964676
  56.5981331  60.1515732  56.5210953  57.0874557  60.1618118  57.3437080
  55.7379570  60.5038223  56.7496796  69.9851837  22.4387703  32.7321358
  69.5640182  22.7165985  33.5455627  70.3546371  23.2427578  32.3669739
  49.3201828  50.0816689  55.9301872  49.7213554  50.6598053  56.5790710
  48.9136391  50.6755409  55.2990990  46.1419525  27.9658756  27.5549927
  46.2612000  27.2969513  28.2291985  45.4318695  28.5157585  27.8861141
  29.0206108  45.2624359  62.0164909  29.5657978  44.7688789  62.6291924
  28.2589474  44.7019005  61.8685074  48.4692535  51.4558182  11.7902842
  48.6060486  51.0686798  12.6549463  47.6941833  51.0102615  11.4482670
  56.6211929  55.0980644  53.5143127  57.5018845  55.4722137  53.4892960
  56.5616035  54.6831131  54.3748322  60.2067871  56.1188850  64.7391281
  59.5341721  55.4378853  64.7467422  60.5536385  56.1229248  65.6312714
  26.1356506  63.5232506  22.5293407  26.7079773  64.0277557  23.1073990
  26.1285591  62.6438446  22.9072685  74.1929398  59.1974869   9.2346907
  74.4182739  59.5514565  10.0950146  74.9482193  58.6625633   8.9904709
  40.0511398  68.3954697  75.3086929  40.8087311  68.9134750  75.5806427
  40.0621338  67.6330338  75.8873062  13.0665503  70.0231934  16.1786766
  13.6068478  70.4683456  15.5258770  13.0840158  70.6032639  16.9398899
  20.6189651  33.2507706  13.7013445  21.0535736  32.5172997  13.2661800
  20.3540344  32.9015121  14.5522623  56.8108101  19.0247746  26.8183384
  56.6965904  19.8539715  27.2826843  55.9203606  18.6988277  26.6876297
  70.3237915  22.6994667  14.9438429  71.2119904  23.0194664  14.7859344
  70.3969345  21.7473621  14.8776484  10.5743113  42.7501030  14.6132326
  10.8819494  43.1122017  13.7822838   9.6315031  42.9154625  14.6121416
  44.3632126  66.2961807  39.1646843  44.8005905  67.1475449  39.1753082
  44.9029121  65.7425919  39.7290382  57.6665764  69.7427292  80.0413361
  57.2434998  70.6013260  80.0492325  57.0478249  69.1666870  80.4902802
   2.8920562  39.3097153  79.6121063   2.1327844  39.8742294  79.7572174
   2.6930342  38.8448334  78.7993851  48.7964973  57.3327942   6.9132342
  48.3770752  56.5968933   6.4674034  48.1913986  57.5618362   7.6186619
  33.0973740  24.3231030  11.8894901  33.5788155  25.1500969  11.8665590
  33.7618332  23.6544533  11.7232533   5.5234046  53.1268311  23.6335354
   6.3653846  53.5760574  23.5593987   4.9782271  53.5264587  22.9558105
   4.4178767  34.6344337  60.0310059   4.2740374  33.8088112  60.4934845
   3.5418429  35.0052910  59.9248772  63.8636398  30.6742039  53.4779358
  63.5393257  31.0270252  54.3065300  64.7450562  31.0373631  53.3916016
  81.6797638   9.6500835  19.6749535  81.5431442   8.7202778  19.4932137
  82.1789398   9.6636906  20.4915733  47.8335342  43.0853691  57.2248459
  47.7198906  43.2079506  58.1673393  47.4793167  42.2130127  57.0523453
  27.8123150  52.0171013  28.8016815  26.8617001  52.0145683  28.9137383
  27.9851837  52.7721443  28.2393131  82.7305832  54.7390404  62.2368393
  82.7339020  55.4664650  61.6146889  83.4805069  54.2018852  61.9812927
  70.1302490  13.6206427  57.8008804  69.4272003  14.1274452  58.2072144
  70.7050400  14.2788506  57.4102287  62.6721992  56.6864510  12.8478994
  62.3188896  57.4454117  12.3838034  61.9297066  56.3423576  13.3444233
  32.8349457  43.3454514  37.1669502  32.3429604  43.0805244  36.3897781
  33.3920364  44.0627785  36.8647537  36.6204453  54.7557907  35.0384369
  36.1644402  53.9238052  35.1652870  37.5474930  54.5380173  35.1353264
  13.0270262  67.4633636  84.6170425  13.6240892  67.5866089  85.3549805
  13.1490746  66.5493622  84.3602676  85.8384399  41.4956131  85.3364182
  85.6423416  42.0276260  86.1076126  85.4583969  41.9835777  84.6058807
  33.4893227  11.8013935  82.9918289  33.3262444  11.3183136  83.8019333
  33.4992332  12.7205229  83.2589111  68.8404770   8.9205465  -0.1640749
  67.9930038   8.4780302  -0.1171726  69.4328079   8.3570051   0.3337183
  48.6497345  34.5935364  59.1036186  48.0270691  34.1466942  59.6770706
  48.9366112  33.9181099  58.4890175  40.0906944  55.5305023  51.2959785
  41.0339851  55.4056129  51.4001007  39.9259148  56.4084282  51.6399651
  15.9049644  63.5924149  70.2104111  15.1306419  64.1519699  70.2699814
  15.8380623  63.0095978  70.9667664  18.0420074  52.3768501  57.7514458
  17.1847706  52.2369423  57.3491974  17.8875523  52.2650032  58.6894569
  61.1543274  52.3454857  18.1561108  60.4669724  52.6186867  17.5485458
  61.7300758  51.7888527  17.6317959  50.5515938  12.1187143  25.3182106
  49.6642609  11.7684975  25.3970566  51.0157394  11.4764624  24.7812614
   2.4665239  59.9941368  33.7498894   2.9535315  59.2033539  33.9816589
   2.2164102  59.8620033  32.8354416  26.5694733  52.1040840  11.4574156
  26.3279858  51.6522446  12.2659674  26.1752911  51.5776215  10.7619390
  35.5723114  36.0860519   8.7579432  35.6701927  36.8686905   9.3002739
  35.6966743  35.3567200   9.3652678  58.0355225  45.3397942  36.6909866
  57.2928276  45.3918114  37.2925987  57.7774200  45.8805428  35.9445267
  69.9015350  10.0429249  79.7071533  70.7809753  10.0089388  79.3307877
  69.3187561   9.8545704  78.9715424  59.3689880  69.6763840  77.9150848
  58.7724113  69.6777954  78.6636353  60.2097549  69.9545441  78.2783585
  15.4536972   9.9918308  18.7036495  16.2631493  10.5021601  18.6794853
  14.7829609  10.5909510  18.3759308  67.6583862  49.1007614  44.6851807
  66.8459244  49.1796150  45.1851006  67.6408081  49.8429489  44.0809593
  49.1753273  52.8647118  86.0822906  49.7933693  52.9387703  86.8094635
  48.3516808  53.2041321  86.4324875  53.4572754  32.6538200  16.6379280
  53.9428558  31.8294163  16.6662197  53.2929001  32.8031425  15.7068434
  63.4064560  17.3552246  37.0919075  63.0961266  17.4449043  37.9929543
  63.0489578  18.1185932  36.6383705  48.7733192   1.8354862  68.7985001
  47.9573708   1.6725299  68.3253098  48.5046539   2.3187373  69.5798569
  40.5392799  47.6865005  62.3614922  40.9889450  47.0006523  62.8550911
  39.6678429  47.3281326  62.1929474  76.2410660   7.4499006  36.8286705
  76.0431290   8.3828201  36.7467232  76.8008881   7.2568727  36.0766258
  29.4847260  42.6054077  33.1615791  28.8197289  42.4988594  32.4813919
  29.7041645  41.7114601  33.4241333  68.0407715  14.5957203  83.5906754
  67.6915741  13.8773212  84.1181183  68.8522339  14.8451023  84.0329132
  11.8168173  53.3804092  71.7969055  11.4666634  53.8285408  72.5668411
  12.7207184  53.1709633  72.0321274  66.1404953   2.8040361  25.3348370
  66.9063797   2.2591062  25.1540089  65.4859619   2.5159600  24.6985703
  16.4955292   9.4843988  22.0094032  16.8563843  10.3669853  21.9253979
  17.0389233   8.9475603  21.4325504  39.5691185  28.3841000  88.9920654
  39.4648590  29.0874805  88.3512726  39.2897720  28.7721825  89.8212814
  53.8080330  47.5559845  16.0615253  54.6209564  47.9482307  15.7428885
  53.9081764  47.5371017  17.0132847  66.2243423  65.0685806   4.9572096
  66.5275345  65.9009323   5.3198462  65.2694473  65.1292038   4.9842362
  82.8773575  57.2104759  13.5553980  82.8539200  56.3492584  13.1382732
  83.7209625  57.2349815  14.0070219  83.1871490  38.4205399  38.7760620
  83.2661591  37.5730095  38.3382454  83.6848679  38.3183899  39.5872765
  79.5881271  11.9814043  59.4293747  79.4690781  12.7070036  60.0422096
  79.3900986  11.1986885  59.9435463  40.5685272  66.3486176  77.0955963
  41.4032631  66.0356750  76.7470093  40.8087654  66.8652420  77.8647690
  16.9466705  48.6689072  87.7895813  17.2496090  48.8814697  86.9068146
  16.5471439  47.8033180  87.7037582  12.3949270  43.0945129  62.2387161
  12.3831730  42.8858032  63.1728134  13.2939768  43.3747368  62.0672073
  46.5569153  35.6041718  36.9440041  46.9787140  34.9729233  36.3610458
  45.6275940  35.5527954  36.7204933  62.7274551   0.7718824  46.6991119
  61.8394852   0.7455516  47.0555534  62.7353249   1.5433328  46.1325150
  14.6682577   9.5397491   1.2262057  14.1287432   8.7587776   1.1027589
  14.7169399   9.9371109   0.3567429  46.4066391  37.0303879  44.4075851
  46.1884651  37.3641319  43.5373878  45.8277512  36.2775536  44.5274506
  30.5513115  25.7960548  70.0598068  30.1651058  26.3017406  70.7749023
  29.8842468  25.1462345  69.8384628  59.0247154  41.1383209  64.8957138
  58.0842247  41.2578468  64.7637253  59.4250908  41.8920822  64.4623871
  63.4735794  62.8160095  10.3075676  62.7468948  62.3105469  10.6718025
  63.4228516  62.6626472   9.3640966  82.6818619  38.3489990  43.4490585
  82.8147964  39.0003662  44.1377373  81.7363052  38.3473511  43.3002396
  55.6234131  36.7717667  35.4955330  56.0397797  35.9167175  35.6040077
  54.7279930  36.6435852  35.8086205  52.1987228  38.6516762  31.8350658
  52.8731194  39.2176476  31.4594383  52.6842232  38.0210648  32.3669052
  44.0486908  33.0851669  79.3375778  43.9781952  34.0355415  79.2478714
  43.3433952  32.7399483  78.7902069  84.2043457  25.5992279  32.0910034
  84.3808441  26.3092880  31.4738369  85.0579376  25.1917038  32.2377281
   4.6036124  57.3892708  12.0671463   4.9343061  57.6044769  12.9392462
   3.9609463  58.0732841  11.8791637  32.6642990  27.8568325   7.0176654
  32.6685715  28.2346897   6.1382132  33.4520378  27.3139496   7.0489287
  86.0373688  70.3931274  44.2572365  85.2907410  69.8912811  44.5842361
  85.6580124  71.0004883  43.6220703   9.7204065  56.9757805  27.5816059
   9.5428505  56.3868103  26.8482437   9.4041815  56.5022888  28.3510475
  68.0083313   7.3316989  34.8436127  67.7852249   6.5316024  34.3678970
  67.9701462   7.0802231  35.7663994  33.1557503  32.1830902  54.7092819
  33.5694771  32.2236710  53.8470650  33.7542915  32.6592903  55.2847939
  55.6643372   6.8505912  47.1190834  55.2101936   7.6931734  47.1253586
  56.1383057   6.8277702  47.9503860   5.2735844  50.3880005  24.2266769
   5.3123279  51.3441963  24.2471619   5.0649376  50.1761818  23.3168259
   2.3482285   4.6192145  87.0417099   3.2477353   4.7954350  87.3175049
   2.4302783   3.9283805  86.3842545  50.4039345  44.8682022  26.6412144
  50.1020508  45.3612862  25.8783474  50.1268272  43.9681931  26.4696712
  55.9458961   8.0217209   3.5086744  56.1063499   7.9402561   2.5685418
  56.7883759   8.2935534   3.8727686  53.8371391  18.2823772  40.5598640
  53.1319580  17.8330975  40.0939255  54.1522827  18.9404984  39.9403534
  66.6242218  66.9723892  82.7047195  66.5128174  67.7241516  83.2866745
  66.0844116  66.2851181  83.0952301  35.1813927  30.2676907  74.1408844
  34.2741089  30.5132732  74.3218918  35.7036972  30.8998661  74.6346283
  30.5153294   9.3759737  14.0466118  30.9992962   8.5514107  14.0007582
  30.5765648   9.6388845  14.9649582  38.4549637  44.2171364  27.0331478
  39.1672325  44.5812149  26.5074577  38.8503227  44.0490456  27.8885250
  38.5242462   2.0633423  17.5128899  38.4889641   2.4840055  16.6538029
  38.3315506   1.1424352  17.3367348  19.2531567   6.9316874  22.4095783
  19.6980629   6.0907240  22.5147972  19.9446545   7.5365043  22.1407719
  36.3223228  56.1558266  21.0660915  36.6717072  55.2667847  21.1274891
  36.8873444  56.5916901  20.4281216   1.9693327  51.2054329  28.3029137
   1.1157322  50.7725067  28.2898197   2.0264852  51.6479187  27.4560547
  29.8064995  44.3842812  14.4910316  29.8339310  45.3399811  14.4450684
  29.3231964  44.1969681  15.2957439  61.6492271  27.8957233  73.9635544
  62.0564651  27.3666878  73.2776108  62.3182449  28.5384369  74.1992722
  54.8245926  39.8968506  86.8596725  54.4041443  39.2572327  87.4344254
  54.1375847  40.5355072  86.6689606   1.3741893  61.5887718  10.2558060
   0.8449609  60.7976456  10.3571367   1.0281938  62.1940269  10.9116917
  20.9705601  55.2923737  39.8211479  20.3336220  54.5844307  39.7244186
  21.7581387  54.8621368  40.1540909  54.1267776  30.4459610  41.3994293
  53.5162277  31.1305256  41.1258774  53.7119751  29.6296463  41.1204948
  47.6952515  53.3154221  38.4780464  47.4916039  53.9294205  37.7725258
  47.0413551  53.4999046  39.1522980  15.6964931  13.8538866  69.3105927
  16.0780048  14.3679667  68.5989761  16.2648811  13.0871830  69.3836136
   1.7334765  56.2065964  54.3016205   2.5353193  56.4017067  53.8166351
   1.1101093  56.8725967  54.0116348   8.4881344  61.5204163  80.9811249
   8.7939005  61.7078514  80.0936584   8.4100142  62.3803749  81.3941650
  41.2799988  34.8202934  87.3711319  41.2060623  34.1005707  87.9978409
  41.6237907  34.4117470  86.5766983   3.5596523  10.1229696  25.7979050
   4.2348409   9.4498558  25.8831692   3.1350870   9.9317560  24.9615955
  12.9683647  49.9558907  56.9706192  13.6925840  49.4046173  56.6742516
  12.1821260  49.4525757  56.7591133  41.7964325  59.2176285   0.5391608
  41.3164368  59.6577530  -0.1623568  41.1206360  58.9574394   1.1651258
  66.1362991  43.7437439   4.2068772  65.6469727  43.0457115   4.6422420
  65.7435760  44.5524483   4.5355053  67.4765701  45.0259018   7.8127084
  67.5227661  44.6012917   6.9560847  68.2559967  45.5804443   7.8474984
  19.4692154  32.8014107   5.2666473  19.5193634  33.4110069   4.5303664
  20.0312843  32.0700722   5.0108042   7.2733502  68.9070816   8.8024273
   7.2331977  68.2468109   8.1105747   7.1257448  69.7375107   8.3498421
  65.5578537   2.1633503  13.8125877  64.9450836   1.4553647  14.0113249
  65.3962860   2.3685071  12.8916969  32.1888580  64.1833572  17.4414368
  31.4604721  64.0501862  16.8348446  32.9506340  64.3122559  16.8763599
  74.8728790  27.4094753  35.9846077  74.7762222  27.2583542  35.0443687
  74.2916260  26.7669506  36.3914680  18.1074867  49.5423851  34.5334244
  18.4671574  48.6650581  34.6644325  18.2466049  49.7218819  33.6035538
  16.9812279  68.7562866  60.4693756  17.4760780  69.5743408  60.4231949
  16.4532681  68.7503281  59.6709671  50.9096375  19.0493412   3.5014000
  50.0580063  19.3921986   3.7723308  51.4674377  19.1574841   4.2717209
  79.5411453  23.8277760  83.0085754  79.1361389  23.2510567  83.6563416
  80.4655457  23.8536510  83.2556458  10.9461460  69.4310303  87.4184036
  11.4249058  70.1436005  87.8418045  11.3334942  69.3677902  86.5453644
  54.0184860  44.9192123  56.9330254  54.6353683  45.5500336  56.5618706
  53.1947327  45.4018364  57.0018692  12.0824337  16.7167988  19.3890438
  11.3072634  16.9552174  19.8974724  12.2693691  17.4920273  18.8596020
  82.5959473   6.2548614   3.3562949  83.3598099   5.6928654   3.4863012
  82.1544189   6.2591424   4.2055707  57.2930641   9.2929544  43.5701485
  57.6188736   8.9562073  42.7354736  57.2488708   8.5236206  44.1379547
   0.4434868   2.8575156  61.8402557   0.1060595   3.7395549  61.9963989
   1.2480301   2.9939466  61.3399277  46.3478661   7.2915316   6.6826582
  46.4991150   8.2255220   6.5376801  45.6031647   7.0793204   6.1199703
  44.9220390   6.4264793  17.8704376  45.7502480   6.8682232  18.0579567
  44.5700302   6.2018318  18.7317467  45.7134628  27.5530987  65.7980270
  45.4585800  26.6689796  65.5342102  46.6613846  27.5781002  65.6674423
  47.6694374  69.7407913  47.5101547  47.0069466  69.5811615  46.8379517
  47.7233505  68.9165344  47.9938126  12.7089243  69.0638123  73.5526505
  12.7630882  69.9767227  73.2699966  12.2818317  69.1029739  74.4083939
  82.8242035  67.9897766  18.1069717  82.1057129  67.5970535  17.6112175
  82.3946991  68.4452972  18.8310318  66.1937485   9.7443247  20.8132000
  66.6711044   8.9468775  21.0422039  66.2435608  10.2875166  21.5997715
  14.5726547  19.3221817  79.5703201  14.1475372  19.7893410  78.8511047
  14.3751888  18.3999596  79.4067764  50.6602898   4.7906775   2.4409029
  50.7088089   4.9035006   3.3901913  50.8959160   5.6476488   2.0855000
  19.3542252  70.9690475  73.4697342  19.0321484  70.8137131  74.3576355
  20.1242580  70.4057617  73.3923035  64.0858154   5.9992166  72.2226715
  63.4443665   6.5781827  71.8108749  64.8107758   5.9626460  71.5987091
  77.2384720  22.3089790   9.7889128  76.9210663  22.2215500  10.6877146
  78.0151672  21.7506447   9.7538099  12.9228706  38.7409401  88.1369171
  12.2476997  39.2933273  87.7429123  12.4349661  38.0789528  88.6267700
  64.3383484  16.2596130  55.7642365  63.9846077  17.1474304  55.7105827
  65.2681046  16.3833752  55.9552193  84.4933319  58.0924911  26.9718857
  84.3304214  58.3200798  26.0565186  83.7824326  58.5150032  27.4539070
  65.6082993  13.1716433  37.5317421  65.8462753  13.9588289  38.0215797
  64.7381134  12.9410372  37.8570518  38.8421059  67.9967041  57.9807663
  38.8931656  67.0909195  57.6755104  38.4834976  68.4803696  57.2366524
  10.1104307  39.0415649  40.9522438  10.4340963  38.1489563  40.8309097
  10.5653543  39.3572350  41.7330322  76.3988724   5.9091544  84.9488144
  75.8641891   5.1339178  85.1201477  76.8377762   5.7189279  84.1197128
  64.6287842  43.2257729  86.5272369  65.5755920  43.2993431  86.4073410
  64.2714081  43.2630234  85.6400299  50.4205399  69.9540253  10.8894329
  50.2093964  69.7962112   9.9692469  49.5696487  70.0089874  11.3243990
  73.2764511  26.5415001  59.9657059  73.2918701  26.5313530  60.9227257
  72.4899368  26.0477810  59.7335892  57.2309494  40.8365364   5.8292799
  56.4318314  40.8959198   6.3528390  57.7960625  40.2410355   6.3214765
  84.8919067  13.6658497   0.5414276  84.4911346  14.4900379   0.2651447
  84.1510086  13.0824070   0.7054585  36.0056877  12.9121408  60.4895706
  36.7445335  12.3247309  60.3305473  36.1595116  13.2578831  61.3687935
  57.0762711  -0.0955798  84.9946671  57.4180450   0.5277150  84.3536301
  57.8449211  -0.3712567  85.4940720  20.4769077  48.7429619  68.9342651
  20.2887650  48.2285995  68.1492386  21.3296108  49.1417084  68.7606812
   4.9562912  55.8441086   3.6899381   5.0033469  55.6777840   4.6314025
   4.2804904  55.2442322   3.3742249  13.2782965   7.0847034  74.9097366
  13.3050308   7.2085199  75.8585205  13.7871408   6.2883430  74.7576904
  16.4616909   5.5741448  18.5306854  15.9285460   5.6115680  17.7365913
  15.9001999   5.9409065  19.2136555  12.0941191   3.8847835   3.2322502
  11.2409449   4.3160744   3.1841381  12.0713673   3.4002628   4.0574493
  38.6355629  20.6142979  58.6796684  38.1478577  21.4378891  58.6881256
  39.1732559  20.6624527  57.8892250   6.2950315  28.7829018  76.3188019
   7.2043996  29.0689240  76.2323608   6.2310586  28.4559479  77.2161560
  42.0867271  47.8560600  41.6754189  42.6972656  48.1110878  42.3671112
  42.5760994  47.2286491  41.1433449  83.4736786  30.0186005  17.7416115
  82.5180740  30.0710011  17.7588348  83.6594238  29.1368103  17.4188442
  14.7586679   3.8633833  58.0496597  15.1872425   3.0366600  58.2712059
  14.6528578   3.8310473  57.0988731  38.2146454   4.9701824  10.2847033
  38.2709198   5.7879715  10.7789564  39.0689583   4.5564728  10.4080992
  71.2627487  37.9376907  27.8230209  70.5152740  37.6351242  28.3387394
  70.8708801  38.3761177  27.0677338   2.6341016  34.4473724  79.2632751
   3.4189169  34.8753777  79.6054916   1.9085995  34.9746971  79.5976486
  70.8650055   4.8608937  79.2898941  70.2091904   5.5534182  79.2090073
  70.7567520   4.3347816  78.4976044  16.6643810  56.6735725   1.8983184
  17.5411491  56.4800148   1.5665885  16.2895927  55.8160133   2.0992167
  74.4142685  58.7793312  80.2721939  74.0027542  57.9890900  79.9223328
  73.9994125  58.9078369  81.1251907  86.5876999  62.6232338  29.8043385
  86.9496765  62.3358917  30.6425724  85.7182465  62.2243996  29.7695751
  72.8297653   5.5206943   5.2176380  72.0013428   5.7290163   5.6495447
  73.0729828   4.6633067   5.5668736  45.7857971  44.6599007  15.1718273
  45.1277161  45.0540504  14.5992842  45.3120346  43.9770546  15.6467047
  66.5106812  54.1328888   9.6432791  65.8141479  53.5425110   9.3559885
  67.2025909  53.5514565   9.9585915  57.5447044  68.2170944  25.5756187
  57.9646225  68.3835907  26.4195271  57.0123787  67.4353561  25.7230606
  78.1868896   4.6535072  18.3642941  78.0340881   4.4841723  19.2939224
  77.4448929   5.1945925  18.0942783  22.5595055  11.7515755   6.1326909
  22.3925915  10.9106016   5.7070913  22.5945225  11.5446100   7.0665917
  24.8848686  68.2723999   6.0221515  25.4308758  67.4938049   6.1312065
  25.1525688  68.6363907   5.1783023  34.5541306  66.8871536  40.8296089
  34.0554428  67.4930725  40.2815132  34.6625175  67.3496780  41.6606026
  36.4564972  44.9971123  52.5890465  35.9697952  45.1516113  51.7794266
  37.0737495  44.2996902  52.3680687  67.2165146  14.8206968  70.1917496
  67.7973404  14.2307682  69.7112732  66.5662537  15.0955725  69.5453415
  75.0971069  37.5449677  72.3944931  74.3256607  37.6645203  72.9483948
  74.7446060  37.2623634  71.5506287  75.7863541  57.1029434  62.0001488
  76.0425568  56.2512054  62.3538933  75.3122864  57.5266762  62.7156487
  17.6997070  42.4274216  42.6726685  17.4655647  41.6969643  42.1000938
  18.6472073  42.5174141  42.5708046  17.5067501  10.0707684  14.2568865
  17.6649399  10.6717091  13.5288219  17.1732635   9.2749767  13.8424778
  34.2767525   8.8894548  41.2532959  33.4690437   8.4242601  41.4710770
  34.2647820   8.9560709  40.2984924  14.6730127   1.5004593  65.1540680
  15.5839567   1.4253765  65.4382782  14.2329836   1.9488673  65.8762436
  64.0290070  26.5051155   5.1154957  63.1691246  26.0889053   5.1754866
  64.4991989  25.9900341   4.4598727  56.1934090  22.5983791   8.9739094
  56.5574837  23.4239368   9.2934980  55.8214417  22.8156204   8.1191120
  35.5324745  15.3040409  78.6799393  34.9760780  16.0656567  78.8430176
  36.0976944  15.2509251  79.4506073  41.4642906  14.4615259  69.1404495
  42.0891190  14.0623207  68.5350952  41.5598717  15.4030657  68.9969254
  11.6555958  71.3009186  19.8186588  12.5391560  70.9333038  19.7983837
  11.1987514  70.8662567  19.0985241   8.3539677  57.4296265  40.1497879
   8.0490866  56.5228577  40.1174088   9.3032284  57.3596764  40.2509995
  67.4348755  24.2096272  44.4189987  67.4283905  23.5888557  45.1475830
  67.6992111  23.6873188  43.6616669  69.8115387  26.1939163  84.1755066
  68.9574509  26.5024643  83.8728943  69.7508163  25.2396584  84.1315079
  77.5662537  39.6884651  19.4952812  77.1335144  40.4026871  19.0274563
  78.2973938  40.1076927  19.9490643   8.9507427  68.6525574  77.6253281
   8.8120632  68.9276810  78.5315857   8.1122580  68.8173294  77.1940231
  57.3745728  66.7091827  31.5009747  58.3061867  66.5222626  31.3852615
  57.2685814  66.8227158  32.4454880  46.4076347  40.1900368  82.2310486
  47.3152771  40.2510376  82.5288620  46.4351349  39.5667496  81.5051041
  81.9219131  14.5521193  55.8397141  82.4289474  13.8466711  55.4378510
  82.4279327  15.3441257  55.6583328  46.7397537  47.4288559  86.8938751
  46.2145729  48.1559334  86.5595474  46.2221413  47.0714073  87.6153564
  13.4195070  35.0262566  14.2948484  14.2489386  35.5003586  14.2356853
  13.2248125  34.7707825  13.3931503  84.0910492   3.4456360  53.3767090
  83.3577652   3.0123308  53.8134727  83.6789856   4.0411668  52.7507896
  75.0389404  21.4275169  52.5097580  75.2101669  22.3691826  52.5232353
  74.4363174  21.2831898  53.2393112  25.7751904  26.6190968  11.2046232
  25.4281788  27.4492207  11.5312872  25.0059643  26.1465855  10.8864155
  10.8411274  70.0921402  17.6375065  11.5148764  69.8340912  17.0084553
  10.4029350  70.8375168  17.2268677  57.0617371  30.9024334  32.6619682
  57.1893997  31.6836967  33.2000771  57.7496185  30.9536762  31.9983253
  29.8161449   8.8060980   9.1612768  29.7189693   8.7222776   8.2127190
  29.4351482   9.6598730   9.3665581  15.8722153  43.3829956  60.8118134
  15.2862749  43.9600754  61.3015900  16.7122459  43.8418694  60.8080139
   8.1055870  26.0913525   7.3677402   7.8640265  26.5663872   6.5726151
   8.0424032  25.1679688   7.1236086   2.1015158   2.6557517  71.3407135
   1.2886989   2.7747254  71.8320465   1.8360361   2.7070329  70.4225006
  82.7683868   8.1300306  71.0788269  83.0245209   8.7964115  70.4412003
  81.8124847   8.1746712  71.1010437  35.4206505   7.9023371  82.2959900
  34.9110107   7.0950251  82.3648834  34.8710213   8.4889450  81.7763443
  61.7521133   5.5159364  82.8533783  61.4704895   6.1370401  82.1817017
  62.6965408   5.4326172  82.7216721  54.9295540  64.1821747  36.6435928
  54.2506943  63.5222549  36.7846146  54.4688950  65.0183411  36.7132225
  82.5579758  48.3740234  14.5799332  81.7674713  48.5178146  15.1001816
  82.8193436  49.2494698  14.2944374  43.0504875  53.5932083   3.5538690
  42.5158424  53.1263657   2.9116507  42.4494591  54.2211227   3.9547632
   6.0845919  14.0224972  19.2670517   6.3580198  14.2015486  18.3673801
   6.8615184  14.2072420  19.7947693  31.6554070  57.2809944  40.3787613
  32.2507439  57.4030800  39.6392326  31.9494076  56.4688721  40.7913780
  41.4455948   6.8366942  81.6877670  41.7232056   7.3747530  82.4291534
  40.7433701   6.2891250  82.0388794  15.3194828  51.8941193  20.0417519
  16.1730518  52.3217201  19.9724064  15.2561913  51.3563080  19.2524586
  65.5616760  60.9165878  72.8994598  64.8893509  61.5866356  72.7759933
  66.2797241  61.1897011  72.3284607  76.3011932  11.5703449  64.0073547
  76.2042542  11.9631996  64.8748245  77.0795517  11.0180035  64.0801926
  56.9346657  30.0898380  18.0027637  57.5104218  30.5248814  17.3738976
  57.0211334  29.1579685  17.8018322  34.6536255  46.1899872  68.2845688
  35.0687180  46.8817863  68.7996826  34.7807236  45.3958435  68.8036270
  13.9099941  70.0100174  11.3687410  13.7757559  69.1027603  11.6427631
  14.8548861  70.1447906  11.4411898  55.3688240   7.0983796  56.1687851
  55.1805305   6.5837412  55.3839798  55.9799500   7.7727156  55.8720894
   3.2490621  67.3499603  28.8801689   2.3762200  67.5719910  28.5560093
   3.1683445  67.3912811  29.8330631  75.8213882  66.4212646  17.8614063
  75.3620834  65.5856247  17.7779217  75.2333679  66.9666138  18.3839493
   8.4507008  14.3883228  20.5161591   9.2074556  14.8621769  20.8611450
   7.8432164  14.3373909  21.2541294  53.7806206  15.1386919  70.7547150
  54.5712128  15.6684275  70.6518860  54.0788383  14.3481579  71.2045517
  12.3402386  31.6511078   6.1322246  12.7296772  31.4423370   6.9813323
  11.5599251  32.1626663   6.3458867  64.4595184  39.6684189  58.0712204
  64.5799789  40.6178894  58.0561676  63.5350571  39.5476837  58.2880669
  49.8032036  27.9013538  35.1614647  50.1522102  28.7204819  35.5128288
  50.4945259  27.2586956  35.3205185   7.1736937  71.0649261  19.0819359
   7.5280061  71.6911240  19.7132626   6.7624006  71.6088028  18.4101677
  72.2462997  61.1229134  23.2518826  72.5208282  60.8239899  24.1187782
  71.4353790  60.6445274  23.0792694  72.5074844  52.0958595  49.2156982
  73.3888168  51.9164085  48.8881531  71.9905930  52.2704048  48.4291954
  66.0395813   3.6840491  37.3613358  65.2344894   3.6628888  37.8786430
  66.3811493   2.7913721  37.4132271   5.5742602   0.8187808  11.2450819
   4.8012972   1.3123349  11.5192423   6.2205977   1.4893098  11.0240145
  13.2125673  30.4260807   3.8458772  12.9025860  30.7040539   4.7077789
  12.4597015  30.5523396   3.2683966  65.1679001  43.6122169  79.5310898
  65.9689941  43.5915222  80.0545883  65.3667908  43.0705299  78.7673798
  56.0187492  21.0264244   3.8990762  55.3790703  21.6105652   4.3062906
  56.7544098  21.5961437   3.6744556  51.9045410  47.6907616   7.9341636
  52.5104599  46.9636040   7.7915506  51.0854645  47.4025345   7.5313411
  38.2435684  36.6389923  41.0796738  37.7761497  36.0229187  41.6437721
  38.6156883  37.2817192  41.6835480  84.6260452  56.9371033   7.6320620
  84.3533325  57.8545380   7.6188774  85.4206390  56.9157448   7.0987711
  54.9416084  48.8459549  35.0184441  54.7232552  48.8185310  35.9500046
  54.5667458  48.0411034  34.6607819  17.0350094  19.5433922  80.5042114
  16.1049633  19.6876488  80.3297577  17.0507965  19.0412579  81.3189774
  60.3866348   8.0751162  17.4085808  60.4014511   8.8997688  16.9228230
  59.6170998   8.1438017  17.9736767  56.7146187  52.5488930  56.4511375
  57.6552696  52.4195518  56.5722847  56.5487480  52.2712708  55.5502243
  73.5554733  30.2146683  19.9457283  73.9354172  31.0874767  20.0461197
  74.2958984  29.6174412  20.0521221  72.6099243  27.3300457  22.9898434
  72.6181641  26.4983253  22.5161285  73.1220245  27.1604080  23.7805462
  61.0451012  13.6170788  57.5813637  60.7241745  12.7154045  57.5665283
  61.9695511  13.5462198  57.3434525  51.1823082  62.3122139   3.8384545
  51.0645485  62.9577484   4.5353432  50.3278236  62.2639694   3.4097779
  77.4549789  19.7515297  87.2577820  77.5711975  18.8142433  87.4134064
  77.8274689  20.1710835  88.0333176  78.4744644  64.8051987  84.9242783
  77.5474548  65.0131302  84.8074951  78.6541138  64.1338425  84.2660675
  22.6748905   0.2322408  60.2875710  22.9090843   1.1575073  60.3601456
  23.5135345  -0.2210343  60.2012520  86.3024750   7.5707498  48.0214996
  86.0932159   7.3539810  48.9300423  86.6891022   8.4452181  48.0668488
  59.5524368  59.1647530  54.4125633  59.7541199  59.2463264  55.3447113
  59.6216621  60.0572205  54.0735359  78.2416840  50.6604843  27.4379482
  78.4782257  49.7331696  27.4187222  78.8646164  51.0789299  26.8437386
  71.1428223  50.2691803  66.7304764  71.8990479  50.0386963  66.1908112
  70.5962601  50.8085747  66.1590347  56.1972198  61.5420723   8.4990063
  56.0854874  61.2703400   9.4100008  55.5807114  60.9976616   8.0093470
  69.3593063  47.3535118  76.3560715  68.8745270  48.0387764  75.8960342
  69.8858643  46.9344788  75.6753540  75.2339859   1.4998673  30.0055618
  76.0031586   1.0708675  29.6306324  75.4447556   2.4332626  29.9814205
  45.4258499  25.1761932  65.3422928  45.7473564  24.4285698  65.8462067
  45.1854858  24.8067684  64.4925995  13.2340412  24.8760414  65.3624191
  12.5188770  24.9453926  64.7299957  12.9253531  24.2360840  66.0038223
  64.8844681  21.8407745  65.7604446  64.8413544  21.2321587  65.0229111
  64.3575821  22.5903931  65.4835052  58.5650711  13.3089771  26.7625389
  58.4754219  13.7057762  25.8960838  59.4864616  13.4347324  26.9893894
  18.8188591  53.7091217  39.4838066  18.6995258  52.8765678  39.9408035
  17.9538593  53.9134293  39.1284714  68.5091705   9.7758675  17.9242344
  67.7094574  10.1945429  18.2426720  68.4004593   8.8512897  18.1468773
  84.1619415  60.9480095  67.8705826  85.0812531  60.7278748  68.0210114
  83.6911926  60.5067215  68.5776138  48.2666969  16.4542236  85.6243591
  49.0131721  16.0031872  86.0187912  48.2757492  17.3249950  86.0217285
  63.2255440  16.9929276  52.4022331  64.1209946  16.7745247  52.6604881
  62.6869507  16.3129559  52.8069382  57.7263107  71.5595856  12.7213135
  58.6523972  71.5258331  12.9610147  57.3632812  70.7378311  13.0517015
  58.8520164  49.5100021  73.1832123  59.4493904  49.9518471  72.5797653
  59.1545677  49.7703018  74.0532379  74.7473831  46.3923683  69.1971054
  75.6837082  46.5334740  69.3371735  74.3207016  46.9788361  69.8217850
   8.5422363  30.3216534  77.1139450   8.8554707  29.9470501  77.9372253
   9.0128241  31.1513386  77.0339432  18.6974411  51.8223495  75.2950668
  18.4255600  51.6159210  76.1893311  19.5949841  51.4949913  75.2360153
  58.5602455  62.8010254  29.9862499  58.0229950  62.5724564  30.7447681
  59.3804855  62.3266830  30.1220322  37.4514694  25.6956158  10.7709103
  38.1470718  26.1519260  10.2974682  36.9778900  25.2125187  10.0937300
  20.0816002  50.3558769  26.1942482  20.2682381  50.2266617  25.2643547
  20.8774643  50.7556496  26.5449791  73.6045837  17.1073208   9.6188965
  73.8234482  16.2998600   9.1537752  72.9757233  16.8356838  10.2874594
  13.9469023   0.5311196  56.2741928  14.0942564   1.2073988  55.6130066
  14.7096739  -0.0428678  56.2038383  24.6739426  53.4703064   0.5430962
  24.1927776  54.2944260   0.6175089  25.4384995  53.6866951   0.0093728
  50.4548950  60.3752480  60.9874268  50.6702271  59.7453613  61.6752510
  51.2910957  60.5564804  60.5582962  72.5139923  10.1970501  83.7270508
  73.0596848  10.3278236  84.5025177  72.4732742  11.0598507  83.3145599
  32.5569458  46.2421608  52.3956451  31.6338215  45.9891930  52.3868370
  32.5524368  47.1727104  52.1714020  63.1484642  19.4143715  65.0196152
  62.2574959  19.6501617  64.7611465  63.1245041  18.4628773  65.1211929
  14.1370745   7.8977003  70.1753998  13.3339777   7.8688602  70.6954346
  13.9725599   8.5736837  69.5179672  79.4978867  67.3793335  85.9623108
  80.0657806  66.6091537  85.9389191  78.8188705  67.1569901  86.5992813
  38.2842331  56.4921761  77.1511307  39.0362701  57.0591087  77.3221741
  37.7536888  56.5518570  77.9456024  33.1696548  44.7163773   8.5458488
  33.9998398  44.6967087   9.0219202  32.6569786  45.3941612   8.9863043
  56.9199409  16.1478329  71.0932007  56.9933815  15.9687490  70.1557693
  57.2768669  15.3662415  71.5150375  37.8476715   3.0608358  24.3489494
  37.4513588   2.9756548  23.4818211  38.2172852   2.1964960  24.5293179
  57.2535057  33.9519119  30.1897812  56.9541626  34.4422302  29.4241352
  57.4439011  34.6234207  30.8448086  18.4959869  35.4149704  60.0507202
  17.6101322  35.6412964  60.3340378  18.9116592  35.0506859  60.8322220
  38.0118866  32.0191307  11.9640617  38.2480659  32.1938171  12.8750696
  37.0858192  32.2545395  11.9073534  29.2359238  38.9770546  85.8469238
  29.0684872  38.6882782  86.7440338  28.5442295  39.6138535  85.6672516
  21.0862427  62.6044731   1.9534504  21.2614498  62.1990395   2.8026600
  20.5240402  63.3521118   2.1564164  55.0000877  70.1903305   9.4587746
  54.3586922  70.8154526   9.7965240  55.8182259  70.6854630   9.4172421
  62.6201019  19.7821503  36.0867500  63.3366585  20.4167805  36.0920105
  62.2917290  19.7991219  35.1877975   1.1004422  71.3759003   9.6100578
   0.8891805  71.1984711  10.5266371   1.9133573  70.8951492   9.4542351
  72.2575150  60.1400528  86.5721893  72.5236664  59.2587776  86.3099899
  72.5854492  60.7069359  85.8740997  64.8767014  42.5849762  12.1143217
  64.8908310  41.6573982  12.3501749  65.5108566  42.9919014  12.7046480
  34.1543732  69.1218872  46.8283691  34.3600426  69.7645874  46.1494942
  34.7318764  68.3819885  46.6405640  40.7925301  57.4502831  21.7217312
  41.6304436  57.4367790  22.1842785  40.1358223  57.3688354  22.4133472
  60.4483299  69.1680222  18.6757126  59.6049652  69.5176697  18.9633064
  60.5751381  68.3816223  19.2064953  34.5750389   9.6793299  79.6119995
  34.3724861  10.5598269  79.9281158  33.7390785   9.3423357  79.2897568
  84.6765137   5.0814762  15.8473005  83.9409027   5.6138854  16.1500397
  84.3035431   4.2096019  15.7170668  86.3281097  54.7052002  14.2591591
  86.5684891  54.6557083  13.3339558  87.0612335  55.1606636  14.6730614
  41.4994926  28.3581333   3.1664529  41.7259636  29.0926533   2.5959926
  42.0087547  27.6233559   2.8244209  57.0575981  67.8274689  54.7226334
  56.9316406  66.8945084  54.8957100  57.7885017  68.0792389  55.2870979
  85.6767349  38.6386948  48.1585083  84.9352417  38.1511574  47.7997246
  85.6204834  38.4988556  49.1037674  38.4711113  52.2931061  87.9434586
  38.9500046  51.6532555  88.4702301  37.5491714  52.0789261  88.0862198
  83.4073410  58.5752373  87.5467224  82.6559067  58.0627975  87.8450317
  83.1938553  58.8099632  86.6436386  32.9746666  14.1240091  65.3975830
  32.4128151  14.0948219  66.1719818  32.7251053  14.9330082  64.9509583
  17.2113934  43.4240761  74.0597382  17.3458176  43.7515678  73.1704025
  18.0915985  43.3756332  74.4327316   5.5735564  69.8495865  51.4641075
   6.4237971  70.1422119  51.1359406   5.6475639  69.9185486  52.4159508
  70.1116943  17.0838966  47.8145447  70.8492661  17.1884518  48.4156189
  69.4315720  16.6635284  48.3408127  85.4875717  32.6090012  78.2052612
  85.3664017  31.7186279  78.5350876  86.2871170  32.9160194  78.6326981
  47.2776413  38.9347534   6.9576950  47.5293388  38.0603333   6.6605911
  47.6852837  39.5285034   6.3272023  13.6458406  20.8017750   6.7623243
  13.8988981  20.3644009   5.9493685  12.7122755  20.6121445   6.8557539
  62.5161324  66.7412720  67.5449829  61.6283646  66.8843002  67.2168884
  63.0642624  67.3167267  67.0114746  -0.1205259  57.5279045   0.3608340
   0.1195012  58.2561035  -0.2121826   0.6673251  57.3603210   0.8779785
  53.8797607  32.0661964  11.1720018  54.3214722  31.8790054  10.3437014
  53.3146706  31.3076859  11.3188553  59.3832893  25.8430977  40.4086533
  59.3828506  25.9453678  41.3603745  59.7486839  26.6643734  40.0796776
  39.3425941  57.0289230  74.6660461  38.5387039  56.9653358  74.1503448
  39.0531197  56.9343300  75.5735092  28.7400227  68.7012787  63.5985641
  29.6691761  68.4795227  63.6596603  28.7144012  69.6535492  63.6921082
  20.7774353  50.4402771  23.5219688  21.3750038  51.1835670  23.6036072
  20.8592072  50.1664352  22.6084290  75.3857727  23.2508869  35.0005646
  75.9678497  22.5088940  34.8366470  74.9414978  23.0304794  35.8192635
   5.5705390  46.5801201  12.4399319   5.7559214  47.3238678  11.8666067
   6.0162444  46.7928429  13.2598867  75.9275055  63.2463036  78.7944489
  76.4304962  62.9666328  79.5593109  76.4686279  62.9935493  78.0464325
  68.9330215  50.9329910  71.6575546  69.7511292  50.5908699  72.0179520
  68.9859543  50.7429771  70.7208939   7.9011641  58.1526299   3.5551937
   8.3532391  58.0293503   4.3898563   8.0446291  57.3331604   3.0817797
  36.1187782  55.0804482  37.8314514  36.3690987  55.9984436  37.7272797
  36.3079147  54.6826973  36.9815941  24.3717804  45.5024033  36.8830299
  23.6920128  44.8616524  36.6742516  23.9379864  46.3506165  36.7903442
  76.7641754  11.8497086  70.6881332  77.2248383  11.5346012  69.9104843
  76.0584793  12.3967667  70.3432388  68.4501419  33.3746758  82.3949509
  69.1516495  33.5419350  81.7655487  67.7999573  32.8745575  81.9016190
  57.0574989  68.4336166  12.7986069  57.5507965  68.4183044  13.6187620
  56.1430969  68.3450241  13.0674057  49.2386894  12.6715965  86.9186707
  49.9361763  13.3269920  86.9044724  49.6656189  11.8614092  86.6401749
  74.9258957  17.0061264  36.8887482  75.1800461  17.0052567  37.8115883
  73.9724731  17.0898914  36.9029694  24.9856339  49.8071861  87.2047043
  25.5047951  50.5571671  86.9144745  24.3739872  50.1723213  87.8440704
  16.0711079  64.1085968   4.7783809  16.8496761  63.5899315   4.9809880
  15.7415295  64.3893661   5.6320667  67.3651047  46.7927704  86.3133545
  68.0967255  46.7343903  85.6988983  66.7172394  47.3351250  85.8635254
  81.7742157   6.3161864   9.9455986  82.2478256   5.9614334   9.1932192
  81.1350555   5.6390095  10.1672649  66.2547073   1.6998739   1.1243696
  65.6469269   1.0460296   1.4697932  66.8240967   1.2084491   0.5323153
  66.2407684  11.1064873  26.1998100  67.1364136  11.2713690  26.4945469
  65.8688202  10.5352421  26.8717976  75.1546021  39.6918526  33.8743248
  75.3971329  39.0596848  33.1977348  74.9498672  40.4926414  33.3915710
  37.0385094  43.1834984  44.4394073  37.6967850  43.6975479  44.9070168
  37.3890381  43.0948563  43.5531197  75.1175156  10.6560316  85.0965042
  75.1765823   9.8264141  85.5702972  75.2139053  11.3258514  85.7734680
  10.2543516  42.4960747  53.7286949   9.5815945  41.8158798  53.7597389
  10.9605646  42.1598206  54.2804413  52.2535439  47.0323486  82.8057175
  51.9479637  47.6001587  82.0982971  51.5447540  46.4010010  82.9292221
  77.4895096  19.1739559  77.4961700  78.3593750  18.7843876  77.4078598
  77.3415833  19.6210480  76.6628265  81.8901596  50.2966995  31.2189999
  82.7999115  50.0452309  31.3782005  81.5262604  50.4445190  32.0919037
  72.7082138  24.2673969  83.6204758  72.2579956  24.7464943  84.3161774
  72.5275345  23.3463573  83.8082886   6.1558743   6.9423079  74.2807541
   5.7405086   6.2947345  74.8502731   6.1217813   7.7578721  74.7806778
  40.8277168  49.5432930  73.2453842  40.4575615  49.4219627  74.1197357
  41.1133118  50.4567795  73.2308426  69.1541748  24.1655254  34.9532890
  68.7126999  24.9703808  34.6821175  70.0856857  24.3522987  34.8365440
  61.4709053   1.4613451  50.7818871  60.5166550   1.3870355  50.7925301
  61.7797012   0.5636153  50.6595840  82.0731354  61.8421135  79.2982178
  81.1763535  62.1612511  79.1973495  82.3193588  62.0966988  80.1874847
   3.0571561   7.9389920  16.9625072   3.7368100   7.4223680  17.3954067
   2.9715929   8.7237806  17.5038185  76.4288101  50.0702438  29.6287155
  75.8733597  50.7070007  30.0784340  76.8700180  50.5767059  28.9467583
  18.6867352   4.4233036  20.3937511  19.2167187   4.2506585  21.1719189
  17.7959747   4.5263228  20.7286587  78.8408966  61.1761475  74.7715149
  78.9744720  62.1229477  74.7272415  79.3942413  60.8899231  75.4982300
  81.2803421  65.0579681  30.2507877  82.1341171  64.8039780  29.9003696
  81.4636612  65.3408127  31.1466808   1.7929791  69.5538788  38.1735954
   2.2633872  70.1081543  37.5509262   2.4805844  69.0667648  38.6276398
  68.9143677  21.5977421  38.0712585  69.8281479  21.3812008  37.8859634
  68.8736725  22.5509453  37.9939308  24.9831371  64.5986023   6.1429372
  25.7575455  65.0492249   6.4797745  24.8029861  65.0255127   5.3053660
   8.0339689  42.4227982  80.6780014   8.3711939  41.8111420  81.3325119
   7.4702129  43.0169182  81.1734085  46.0351448  15.2676668  44.6048164
  45.7685280  14.9545879  45.4691811  46.6290283  14.5918579  44.2779808
  80.4475403  43.1816483  41.0928841  80.9889145  43.2892914  41.8749084
  79.5668182  43.4279861  41.3755074  38.6339760  45.7094193   1.1010928
  38.4871750  44.9091263   0.5968966  39.5089607  45.6006660   1.4736583
  63.9713249  29.2802887  37.8544617  63.2230186  29.8421288  37.6529617
  64.6637115  29.8877869  38.1148071  30.3098831  40.0247536   4.9275422
  30.6948586  40.8691902   4.6931095  29.3832378  40.2159500   5.0724707
  39.3443260  16.0521984  63.4738731  39.2831078  15.8777447  62.5346985
  38.4760475  16.3753052  63.7145615  36.8196411  65.4511185  88.4898682
  37.4733009  65.6853867  89.1487122  37.2478409  65.6313553  87.6529770
   6.9153876   2.6566536  53.2458611   7.2036147   2.1346257  52.4971008
   5.9938197   2.4241571  53.3593941   3.5634959   1.8286448  68.2876587
   4.3086967   2.3892128  68.5036926   3.8933926   0.9373081  68.4013214
  10.5994263  56.6076698  59.6145897  10.0602770  56.6378136  58.8242455
  10.1918116  55.9324684  60.1569786   5.1862111  15.8803520  61.4749069
   4.8991485  16.6350765  61.9889259   5.5186124  15.2607002  62.1243477
  66.8821106  37.1936951  85.1600494  66.1749344  37.3169289  84.5268478
  66.4382324  37.1320305  86.0058594  78.6518173  48.7872925  73.6171951
  78.1017838  48.0616913  73.3219147  78.1679840  49.1727715  74.3476334
   6.7070622  40.4641800  22.2246799   6.5827556  39.5752182  22.5571404
   7.4634581  40.3983154  21.6417923  43.4749908   7.7154908   1.8286234
  42.7108536   7.1404843   1.8697777  44.2024803   7.1319880   1.6129540
   0.5591627  55.9425087  65.9093399   0.0751462  55.1216736  65.8188477
  -0.1142092  56.5993500  66.0864334  75.9221191   9.4554396  50.1288605
  76.6015396   9.5291433  50.7990723  75.9153366   8.5270815  49.8957596
  33.2508774  66.4933014  21.6406441  32.7457237  65.8089981  21.2015781
  33.3391342  66.1845932  22.5423889   1.5775926  61.9892502  35.5275421
   1.7557265  61.3370438  34.8499489   2.3578146  61.9778900  36.0819359
  85.9053574  36.2643394  11.2717676  86.0135956  37.2143478  11.3165474
  86.4071121  36.0022316  10.4999037  75.0545120  32.4345360  59.4275093
  75.3816147  31.8768291  58.7216759  74.9978180  31.8529015  60.1856117
  51.9717903  60.2654762  36.7009735  52.8468704  59.8794708  36.7392769
  51.4007721  59.5398636  36.4486732  34.9087524   1.5117277  70.0406494
  35.3028259   0.7138367  70.3932190  35.5272484   1.8098148  69.3736877
  45.0454369   1.3614349  78.3887939  45.7996521   1.9499668  78.4207535
  44.3306046   1.9058754  78.0588989  48.8505249  66.4058762  64.2924423
  48.7794418  66.2582169  63.3493767  49.7914772  66.3890457  64.4672546
  27.8324833  43.4630585  16.1929893  26.9220314  43.3771210  16.4756947
  27.9160995  42.8479805  15.4643488  12.1069584  16.6643066  10.9448757
  12.7752218  17.2938900  10.6741724  11.5629683  17.1456203  11.5682878
  78.2922058  64.0481186  26.8991318  77.9696426  64.8440933  26.4765072
  77.6200867  63.8306618  27.5450382   2.5070388  33.6042366  67.9417648
   1.9849622  33.6830711  67.1433563   3.3822165  33.3692322  67.6334305
  84.3384552  19.6492138  60.1814270  83.4612579  19.9916630  60.0097237
  84.2109833  18.7065163  60.2877464  63.8234100  27.1234322  78.0735855
  64.4787292  26.4928856  78.3722382  63.0793800  26.9921341  78.6613007
  61.8909569   1.2245660   2.1848388  61.9340820   0.2721555   2.0994792
  62.3420601   1.4119303   3.0080242  45.0755692  60.4642067  63.3080368
  44.8257713  60.1389542  62.4431419  45.0594673  61.4171562  63.2193947
  53.7502708  46.8062515  53.3251419  53.8765717  47.1529999  52.4419403
  53.3910255  45.9295082  53.1891327  23.6550674  21.1063766  77.7957611
  22.7039871  21.1399879  77.6930542  23.7993584  21.2335510  78.7334366
  85.9229126   1.7169255  22.5982800  86.4593582   2.1904328  23.2340870
  86.0434494   2.1966069  21.7787628  54.4679413  26.9805679  34.7987442
  55.2136841  27.5130844  35.0753822  53.7360573  27.3011875  35.3257980
  82.2196503   6.5289507   6.1551437  82.5513000   5.8612323   6.7554708
  82.0195923   7.2778382   6.7167282  78.5447998  51.3239326  75.6612473
  79.3438034  51.1057587  76.1410675  77.8652420  50.7894211  76.0720139
   7.5783010   1.7820486  -0.1370446   7.6128359   0.9738612   0.3746902
   7.9718218   2.4431388   0.4324576  76.6059723  51.6923485  85.0846176
  77.5581589  51.7864761  85.1114655  76.3862610  51.7446175  84.1544418
  58.6363106  10.4070454  76.0245514  58.8512459  11.1296968  75.4347992
  57.8120308  10.0581398  75.6853561  50.1853180  52.7644348  22.2497883
  49.8110695  52.5765877  21.3890438  50.8349380  53.4477539  22.0845585
  59.1100655  30.7909622  39.0749588  58.2859154  30.7787666  39.5616379
  58.8567505  31.0195751  38.1806450  80.3738937  70.3457489  49.3808098
  81.0246735  69.7508545  49.0082245  79.8414536  70.6169968  48.6330376
  61.4057693  33.2245331  76.0732651  62.0496483  33.1608467  76.7786713
  61.0254745  34.0971298  76.1741638   1.1920840  54.4988785  87.3960419
   1.4751513  54.5456314  88.3092346   0.6021657  55.2451439  87.2896423
  28.7464943  19.1940632   6.5938058  29.0390339  18.3742027   6.1957097
  28.6292610  19.7907925   5.8546152  55.9979591  13.4072542  84.6936111
  56.4286194  14.2061129  84.3893280  55.2055321  13.3443546  84.1603851
  37.1719360  27.1932812  78.7455826  37.8131142  26.4954548  78.8803635
  36.5168457  27.0519085  79.4290314   7.2670169  64.5034561  60.7513275
   7.6667638  65.0604553  61.4193039   7.7956805  63.7055168  60.7571030
  65.4648972  32.9541321  51.4881477  65.4787292  33.6288261  52.1669884
  64.7919693  33.2466087  50.8734436  45.9248009   8.6762238  11.5995436
  45.0879440   8.3863640  11.9626970  45.6845970   9.2787895  10.8956623
  54.1342773  53.6962891   6.4945202  53.1793137  53.6430016   6.5323505
  54.4006195  52.8996544   6.0355310  53.9121666  10.3682451  44.1848869
  53.1954918  10.9868565  44.3260765  54.2428017  10.5799351  43.3119011
  36.8633347  47.4819984  50.0966530  36.3573647  46.6871872  49.9278107
  37.3180580  47.6560402  49.2725372  75.3283310  52.9814529  78.7698669
  75.2579498  52.0369492  78.9084091  74.4498901  53.2501869  78.5008698
   5.9714093  36.0221672  83.0786438   6.5174527  35.9885674  83.8640976
   6.0370340  35.1439629  82.7035751  52.3543320  11.0565825  69.9020386
  52.8930244  10.3302021  70.2157440  52.9849586  11.7316961  69.6515198
  61.3004837  62.1063919  39.7813911  60.3667793  62.2495537  39.9360847
  61.3300781  61.4443665  39.0906830  38.2456017  25.0339165  13.3981390
  38.0403175  25.2674141  12.4928389  37.8959923  25.7580338  13.9174252
  25.0257664  40.9246140  30.3770657  24.6725826  41.1731911  31.2312927
  24.7662315  41.6378517  29.7938290  79.1149521  13.7274218  57.0572166
  80.0506668  13.5892277  56.9103317  78.8160019  12.9192276  57.4739685
  54.2123528  33.4900017  19.0974407  53.4286423  33.1636963  18.6552315
  54.7631874  33.8271027  18.3909168   6.0895987  21.1814709  -0.1259537
   6.0775123  20.2243748  -0.1188793   5.4864163  21.4337940   0.5731432
  48.0583687  69.7003403  70.8928452  47.2475853  69.2312469  70.6958237
  48.5646286  69.6547089  70.0817719  56.5934753  41.5105705  50.6796074
  56.3503380  41.1139259  51.5161400  55.7648582  41.6061821  50.2100449
  50.0187149  53.4719276  10.1494951  49.7220306  54.2726402  10.5820074
  49.6029091  52.7649689  10.6429996  51.3555679  18.3614578  11.4344025
  51.8754730  18.3288841  12.2374401  51.7402458  17.6886978  10.8725748
  75.3309937  67.6544571  15.3360577  74.4280777  67.9051132  15.1407356
  75.2958450  67.3079987  16.2276649  18.4717865  58.5134354  35.5978317
  19.0628090  58.4544487  34.8472023  18.8275204  59.2271500  36.1272621
  29.6325684  11.5630388  12.5315638  29.5109386  12.2299623  13.2073240
  29.9651146  10.8003778  13.0048437  86.2690887  29.2345848   7.8430104
  85.3418274  29.4704838   7.8708105  86.6754913  29.7809258   8.5157490
  37.0449142  42.4928970  32.8023796  37.4451294  42.1806221  31.9908714
  36.2993011  41.9090767  32.9418335  46.1486397  58.1622849  15.7640705
  45.2155571  57.9625931  15.8396635  46.5692177  57.5871010  16.4032192
  25.2970009  63.2364006  55.7764206  24.4631004  63.2845879  55.3089600
  25.9210320  62.9236870  55.1214180  79.8632355  61.9153442  38.7881508
  79.8949585  61.8288651  39.7409096  79.3213806  62.6895714  38.6358414
   3.6656721  52.7960014  72.5860214   4.3371477  52.2967262  73.0508652
   4.1053276  53.6061096  72.3278503  82.8825226   2.1568415  82.3389587
  82.4339905   1.4002373  82.7165833  83.6194763   2.3171580  82.9283905
  67.3614349   6.7890863  44.4872284  67.5358734   6.9021425  45.4215851
  67.3303146   7.6804709  44.1398125  75.6908722   8.3594599  67.3634949
  74.8128204   8.4859295  67.7230301  76.1736984   9.1419077  67.6297455
  42.8115540   1.8252155  41.3086319  41.8878403   1.9627234  41.0986938
  43.2382011   1.7247972  40.4576797  84.8559723  11.8306932   5.6044874
  85.7855072  11.6118546   5.6701078  84.4474182  11.3609610   6.3315806
  35.2915726  60.7186470  67.9757080  35.7674446  61.5427208  68.0790863
  35.9469032  60.0411224  68.1422501  16.5402203   7.9085407  79.0370178
  17.1536198   8.3971224  79.5858917  16.5293541   8.3853073  78.2070770
  65.6715240  46.9426651  72.2427368  64.7225189  47.0501175  72.3065643
  65.9754257  47.7450943  71.8184967  23.7655716  32.8356285  58.3754082
  23.9340553  32.6009331  57.4628487  23.9826832  32.0453682  58.8699646
  40.8209114  71.0528488  12.1720858  40.1522522  71.7139053  12.3513451
  40.9397125  70.5998383  13.0068893  60.7370415  44.9534950  55.8730354
  60.9162674  45.7527046  56.3683891  59.7834053  44.9293938  55.7941360
  80.0746460  61.0455856  16.9436512  79.8762741  60.6336479  17.7845955
  79.9157028  60.3581657  16.2967987  10.3666124  41.7976532  39.3389969
  10.7913074  41.1705322  38.7536888   9.7665329  41.2674217  39.8633881
  64.0998840  12.6462116  26.9699039  63.8424416  13.5401917  27.1951847
  65.0270767  12.7141991  26.7420177  28.7102375  70.1628723  75.3033829
  28.2840843  70.7818146  75.8962860  29.6409454  70.2284622  75.5171967
  32.9740601  41.4016953  52.7161064  32.4056358  41.6788559  53.4346542
  33.0592537  42.1793137  52.1644936   3.5766845  30.4746799  10.8419886
   3.8744078  30.3518887   9.9405928   2.7701104  30.9836445  10.7605915
  25.2053661  45.9024467  70.4378052  24.6836739  45.9533310  69.6368790
  25.8773403  46.5754013  70.3291016  59.6159058  15.0270519   5.4284077
  59.4954491  14.0777740   5.4527826  59.6504364  15.2402363   4.4958887
  42.9526711  18.9292812  22.1798668  43.7139320  18.7037125  22.7145042
  43.3064842  19.4748707  21.4774551  22.1355896  45.8775330  13.0511799
  21.5166798  45.1551971  12.9443607  21.7133503  46.6204758  12.6199245
  64.4618988   7.4018455  80.0025482  64.9591293   6.5876074  79.9250641
  65.0078278   7.9645429  80.5516891  12.3841381  69.1832047  52.6901245
  12.7562218  68.3013840  52.6768303  12.4730873  69.4670105  53.5999451
  86.0868149  59.1227570   3.0930643  85.4232101  59.0231171   2.4104731
  86.9075394  59.2381897   2.6141875  22.3440285  63.3576431  32.8231812
  22.9779682  62.7336807  32.4695930  21.5477772  63.2043190  32.3145485
  54.1613197  14.3425512  32.2689171  54.2463913  15.2399778  32.5908203
  54.9405403  14.2065678  31.7298851  48.5111618  67.5021286  31.1937714
  49.1071777  67.7738266  30.4957886  48.9444427  66.7514877  31.6000214
   2.1747949  13.5718184  11.8311644   2.6115057  14.4228201  11.8673773
   2.8477221  12.9457188  12.0983725  30.0939903  30.8322201  43.3682327
  29.5951385  30.2363930  42.8093338  30.4408207  30.2738934  44.0640869
  25.8953705  70.2969437  81.0354004  25.3711853  70.3967209  81.8300781
  25.2576141  70.0903015  80.3521729  44.0190201  65.1989899  89.1954880
  44.4922333  65.6129608  88.4737320  44.4166451  64.3320694  89.2765884
  37.2465858   2.4263480  38.2207336  36.8289070   1.6427357  38.5781212
  36.5176697   3.0025833  37.9908142  42.6445274  66.0421906  44.2625999
  41.7864876  66.3929443  44.5012932  43.2207375  66.8064270  44.2504158
  63.2968063  37.5660591  50.2435036  63.2897758  38.3051376  49.6352730
  63.8788223  36.9252434  49.8350372  19.1560841  33.8294411  16.7127819
  18.4958496  34.4835739  16.9417686  18.8429565  33.4504166  15.8914881
  55.4769554  23.2136936  39.7732697  54.6508598  23.6532345  39.5717659
  55.6967850  22.7380352  38.9722366  67.9171906  62.6096268  59.3170586
  67.5631943  62.2655106  58.4969978  67.2885971  62.3332634  59.9839363
  22.9923954  65.2750549  75.5225601  23.2210560  64.3697052  75.3121185
  23.8251152  65.7460098  75.4906921  49.7649956  26.0570946  16.4596939
  50.1337471  25.6873894  17.2619247  50.2417412  26.8773651  16.3327961
  17.5868397  57.4041519  84.9384689  17.3605232  58.2260284  84.5031128
  17.1476574  56.7297630  84.4202576  35.6742859  39.1443863  41.5270691
  36.6011429  39.3184586  41.3631477  35.6737328  38.4262810  42.1599617
  39.3113136  48.2617073  43.6162872  39.5161667  48.4927902  42.7102699
  40.1309700  47.9116669  43.9653778  24.7816601  41.1490631   0.9455940
  24.4881287  42.0441208   1.1157291  25.3442059  40.9358864   1.6901273
  77.7037201  35.4446793  14.2916336  78.0693283  34.6915512  13.8275595
  78.3845673  35.6947136  14.9162645  16.9402962  67.5592270   0.9623148
  17.3281994  66.9170532   1.5567706  16.1116447  67.1644058   0.6908632
  82.6675797   3.9967518  17.9779377  81.9605026   3.6543174  17.4311180
  83.3521729   3.3294868  17.9298248  44.2473450  27.3430309  79.8502350
  44.5644760  27.1134129  78.9767685  44.2012825  26.5078106  80.3155441
  43.2085342  58.0153160  10.5754566  42.8918571  57.9701462  11.4776239
  43.9041367  57.3591576  10.5326529  16.1134586  18.1054459  75.2780533
  16.1368752  18.8343124  74.6580200  16.1800346  18.5203686  76.1380768
  79.8788528  61.9446793  55.9053459  80.6610336  61.6555214  56.3752556
  79.1490326  61.6348801  56.4416389  54.5960617  57.1030273  74.7992020
  55.2916527  57.7187195  74.5683136  54.2847481  57.4026756  75.6533203
  57.1665497  57.2432747  49.6889992  57.5256805  56.4155197  49.3695030
  57.3183479  57.2214127  50.6338348  71.8470459  10.6345901  15.0736246
  71.4882660   9.8227282  15.4319372  71.4813919  10.6888876  14.1906843
  57.3955612  53.3994980  19.4751606  57.8266678  53.3266068  18.6236553
  57.5240479  52.5430069  19.8827724  17.5206337  21.0674629  73.6996231
  17.9325314  21.6141396  74.3687439  18.2296429  20.8580990  73.0915909
  86.1254120  17.3353367  88.6637497  86.4338760  17.4058666  89.5671387
  85.3696289  16.7500801  88.7137299  65.2415771  25.5473461  54.9044952
  64.3089218  25.4320793  55.0864372  65.4599915  24.8299904  54.3095779
  64.3878937   3.4384732   2.0890176  64.1130447   2.7263033   2.6665175
  65.1200638   3.0743520   1.5914545  73.0197830  28.2802944  38.5934982
  72.8825760  27.3828068  38.2903137  73.9275513  28.2945023  38.8967972
  61.7476997  19.2713909  46.2082939  62.4818687  19.8326550  46.4577103
  61.8646851  18.4778061  46.7305641  24.0319195   8.4822760  65.2575531
  23.8184433   7.6155910  65.6032639  24.1187611   9.0351629  66.0340881
  44.9604187  59.7214890  30.1238174  44.1241150  59.5035057  29.7123470
  45.5685806  59.0590668  29.7958412  72.8480530  16.4333344  82.5650253
  73.2490921  17.1327667  83.0809631  73.5890198  15.9349241  82.2203827
  73.0929413  65.0774460  64.9440308  72.3211823  64.7808380  65.4263687
  73.1454315  66.0150757  65.1292877  47.8621712   4.4933605   1.3412933
  47.7087631   3.8329747   0.6655800  48.7021675   4.2483230   1.7293561
  48.3846169  49.0308266   5.1623783  48.0588951  49.4433060   4.3623810
  49.3189774  49.2382622   5.1754794  61.7327499  63.9901009  19.5026512
  61.6657562  64.9449158  19.5109310  62.5732536  63.8053284  19.9217510
  62.5934219  57.7663040  70.2041550  62.7047005  58.4915810  70.8188248
  62.1163406  58.1479111  69.4672699  83.2133789  46.3310242  28.7968769
  83.2297363  46.2024651  29.7452641  83.9950180  45.8782272  28.4802761
  40.1367722  64.6714554  24.4287624  40.3610725  65.5204468  24.0478058
  40.8208694  64.0799484  24.1151237  75.3766479  41.2497025  83.9646759
  75.7740555  40.5405006  84.4699783  76.0770340  41.5543633  83.3877258
  41.6913376   3.3368471  27.5722141  41.0470467   3.9658279  27.8970280
  41.4085732   3.1443737  26.6782188   5.5317292  11.2658491   3.1729245
   5.2256975  10.7355747   3.9087138   6.1992898  11.8380260   3.5513539
  22.7030659   4.5932398   9.8563290  23.2847900   5.0546298   9.2522202
  22.7784023   3.6726313   9.6052580  58.9636383  13.6475916  81.6768112
  58.8901367  12.6933336  81.6916809  58.1773186  13.9412422  81.2167053
  71.1564102  16.0431709  80.4965591  71.3588562  15.3154917  79.9085770
  71.7769699  15.9471302  81.2189941  32.3917542  43.6867332  30.2077713
  31.7185860  43.0168419  30.3274593  32.9144020  43.3719864  29.4702034
  26.5637379  42.1485519  77.8896408  25.6268673  41.9724197  77.8031235
  26.9490643  41.2977257  78.0990448  70.1818466  59.5370255  40.9496613
  70.7733994  59.0489540  40.3768692  70.3920364  60.4560356  40.7839050
   4.8099370  28.9458332  18.1954670   5.0725288  28.6600399  19.0704517
   3.8530612  28.9317322  18.2160130   6.3058252  51.7406158  14.3546448
   6.3575616  52.4369659  13.6999302   5.4070601  51.7849693  14.6809664
  34.6976776  26.2195873  68.2937622  33.7574806  26.3701267  68.3917236
  34.7719345  25.2845173  68.1030731  17.5981846  59.9457169  33.4168358
  17.1494045  59.2119598  32.9967995  18.0253944  59.5592690  34.1812859
   3.9401543  31.8392868  42.3833542   3.8876169  32.3903923  43.1642227
   3.7665975  30.9538746  42.7029724  49.4348488   7.5260601  51.3859825
  50.2540321   7.9550605  51.6332245  48.8975182   8.2286091  51.0200119
  77.5330734  68.2712479  75.4757690  76.7360535  68.7913437  75.5781937
  78.2054520  68.7692795  75.9406433  22.0366726  50.8115540  30.2664757
  22.5362816  51.4983978  30.7079144  21.5976543  51.2611656  29.5444355
  35.6923523  61.1353264  45.7030334  35.3039322  60.9969788  44.8391914
  34.9998016  61.5561905  46.2124252   2.0092454  68.3145676  56.4805679
   2.0452280  67.4421310  56.0883980   1.1101409  68.6072311  56.3316002
  80.1752930  15.3355322  27.7247066  79.4552994  14.7087173  27.6544018
  80.0114670  15.7972345  28.5470352   8.4248714  67.1949768   0.3464499
   7.5873704  67.6016617   0.1241149   8.2037039  66.2855988   0.5473089
  20.8898983  64.3337631   8.4490566  20.2977734  64.8947754   8.9499435
  21.1211185  64.8553619   7.6804814  75.6704559  68.1533051  22.2852097
  75.7404175  69.1064682  22.2320633  74.7475433  67.9914322  22.4808216
  52.7376900  25.7704296  26.9472771  52.3306122  24.9474564  27.2178955
  53.1287460  26.1190071  27.7484016  70.9439697  29.6886559  39.8488655
  71.5887909  29.2524567  39.2919388  71.2951050  29.6018066  40.7350883
  35.7800102  24.3550072  73.1437073  35.8106842  24.9511032  72.3954010
  35.0702133  24.6926746  73.6899719  67.7439346   4.8758807  42.6968422
  67.5391006   5.4403687  43.4422455  68.5973434   5.1831789  42.3910713
  20.4953289  66.3649216  33.7084122  19.7841873  65.9882126  33.1901436
  20.4733982  65.8799515  34.5333672  28.6469059  55.8215942  52.4987640
  28.4648056  55.9970016  53.4219666  28.7393856  56.6886520  52.1039352
   6.9674339  39.6296501  40.5594101   7.8814793  39.4983978  40.8114548
   6.8305416  40.5737534  40.6378937  59.8846397   8.9790297  78.4895477
  60.7407913   8.7692099  78.1164322  59.4718819   9.5459738  77.8380585
  86.5743256  60.9347954   7.6928687  86.1907578  61.7740250   7.9474192
  86.7751083  60.5017281   8.5225506  20.0720272  30.9890842  10.4931917
  20.8962841  31.1152172  10.9632187  20.2459106  30.2617798   9.8956776
  18.6383858  11.1754913  83.7182922  18.2986927  11.7180910  84.4299240
  18.3230820  10.2939939  83.9177322  68.3237076  36.5404243  53.8592300
  68.5154953  37.3993492  54.2356644  68.8281631  35.9268074  54.3933029
  33.5121269   4.5846434  72.8850403  33.3538933   4.4229240  71.9549637
  33.1226463   5.4436159  73.0484390  79.8520126  35.0309372   8.0073671
  80.5132294  34.4656563   7.6080294  79.7100830  35.7251320   7.3637986
  83.1378632  38.0848045  88.8626633  82.2141876  38.0797501  88.6115952
  83.6058578  38.2773323  88.0501709  54.1696625  32.8408623  51.1727448
  54.3211021  33.0467300  52.0951958  54.6696625  33.5023117  50.6945038
  50.7065201  60.6237411  15.5022097  50.5667725  61.1678963  14.7272272
  50.6595039  59.7252121  15.1756115  19.2218857  21.9301472  27.6524067
  18.9550076  21.1050396  27.2471828  18.5512867  22.5575275  27.3823643
  30.0924549  23.5371914  67.1154404  29.6477127  23.2568760  67.9153519
  29.9240036  22.8336506  66.4886322  13.8810425  67.9203110  81.6991882
  13.6730175  68.4439621  82.4729767  14.1916466  68.5570450  81.0555038
  14.0482006  62.0490646  24.7821999  13.3629942  62.7160492  24.8253002
  13.5725870  61.2208939  24.7177143  35.6603165  25.7032032  16.9857712
  36.2539444  25.8368816  17.7246647  35.7789116  24.7840061  16.7465134
  82.3141403   3.2195077  70.9803543  81.8355789   3.8780813  71.4838333
  82.7968140   3.7231917  70.3249435   0.7132392  63.7475090  23.8347149
   0.6331771  64.6874924  23.9967213   1.4740566  63.4795876  24.3500881
  73.4644470  53.2811470  73.6392822  73.6865005  53.4114914  72.7173615
  72.5120010  53.3709183  73.6712418  37.4953613   2.3842413  11.5025835
  37.1502724   1.9331638  10.7320824  37.6585579   3.2787127  11.2033854
  59.3960190   5.8916888  69.1802902  59.5080452   5.1415629  68.5963440
  58.5522995   5.7398391  69.6061020  42.6727180  60.7351418  10.8842001
  42.9759636  59.8687782  10.6127567  43.0555000  60.8617477  11.7523479
  59.1733322  12.3361969  36.2883530  59.9930305  11.8420248  36.2991867
  58.4896698  11.6663046  36.2972260  78.8273621  62.5974617  83.3466263
  79.7333603  62.3428268  83.1717834  78.4689331  61.8717041  83.8575439
   0.0011731  60.9511375  69.1828613   0.7088575  61.5377579  68.9158554
   0.3801495  60.0744209  69.1197815   3.8365095  12.7147636  17.1852798
   2.9071398  12.9393711  17.2306118   4.2573886  13.3104248  17.8051834
  64.5151138  26.6637897  31.5119610  64.3426819  25.7338505  31.6593037
  64.1138306  27.1034946  32.2615395  17.4730949   8.1881094  24.1326847
  18.2162571   7.7039437  23.7727871  16.9857407   8.4848528  23.3641396
  50.5289116  57.8874512  15.2744379  50.5723000  57.1276283  14.6939049
  49.9543114  57.6109428  15.9883080  48.2980232  61.2341423  44.7571335
  47.6183243  60.8054695  44.2370567  47.9684677  61.2018929  45.6552353
   0.9321203  42.7769356  24.1260738   1.4850566  42.8610764  23.3492756
   0.8222124  43.6744270  24.4401875  43.6267090  67.6784134  23.8723984
  44.5429153  67.4013824  23.8796730  43.6197090  68.4958878  24.3703156
  67.4210663  62.3819771  56.1856613  66.6192856  62.1799126  56.6678886
  67.1471329  62.4162102  55.2691345  64.7395630  18.2015400  46.3552246
  64.2366333  17.6797657  46.9805603  65.2707138  18.7821350  46.9002266
  79.2081909  17.9154530  55.5553894  78.3573761  17.6953907  55.1760254
  79.8412704  17.6769485  54.8782272  12.1981735  67.5744476  44.8021164
  13.0788841  67.8764725  45.0242920  11.7771339  68.3361893  44.4037361
  26.9286690  32.9561081  79.4205093  26.3245926  33.6859016  79.2836609
  27.5839977  33.2984009  80.0284653  51.6358109  50.2271118  17.9808884
  51.5995522  49.2717438  18.0277100  51.8618851  50.5020485  18.8694420
  29.3671951  19.2296753   0.6802924  29.0945148  18.7267323  -0.0871215
  28.6891747  19.8976078   0.7822085   0.5846852  27.4909706  84.2571716
   0.7150305  26.5478821  84.3562927   0.2654437  27.5957432  83.3608780
  44.8180389  62.1596146   9.2299995  43.9956627  61.7672310   9.5231943
  44.6241417  62.4967346   8.3553667  13.5125628   6.8168759  61.7964439
  13.8383522   5.9584785  61.5258026  13.9911718   7.0115542  62.6022148
  53.0665474  57.1881485   3.5615184  53.2709885  57.8986511   2.9535553
  53.9161453  56.7999954   3.7706909  34.8154488   0.8209094  77.9285278
  35.1925087   1.2854084  77.1813354  34.3892479   1.5046476  78.4453354
  44.9196968   3.3673925  65.3097992  44.8943939   2.4512975  65.0334625
  44.1451149   3.4723926  65.8622742  21.0314178  63.2241325   5.3355908
  21.1235561  64.1733780   5.2538714  21.9060726  62.8818321   5.1510887
  85.5830078  22.6710453  12.3872538  86.5175095  22.8778458  12.3739119
  85.5493469  21.7225952  12.5119276  10.8181372  45.0909157  44.1018372
  11.2198086  45.2543678  44.9551697  11.2370119  45.7208405  43.5153465
  12.4256172   9.0881548  73.2008057  12.8437014   8.3905392  73.7055511
  12.0655775   8.6451120  72.4324799   1.9786906   6.0472126  20.4196796
   2.9165156   5.9700303  20.2442970   1.6032008   6.3410873  19.5896950
  38.8248634  42.3582687   7.2667022  38.6145592  41.8652458   6.4736500
  38.1502304  43.0356979   7.3135490  38.2181931  16.2573013  68.0295563
  38.5454674  16.8105335  68.7388229  38.8560829  16.3691826  67.3247070
   2.9456666  15.7979736  16.2443447   2.0205743  15.5817957  16.1272831
   3.0323939  15.9807320  17.1799259   4.6930728  55.3282852   0.9657835
   3.9312196  54.7895889   1.1793624   5.0865216  55.5336761   1.8138666
  53.6212463  62.9630585  27.4103432  53.6682968  63.8152962  27.8435917
  54.4740028  62.5618248  27.5778313  82.7639542  44.7555275   2.5597439
  82.6173859  44.3159904   1.7221549  82.0172501  45.3470001   2.6537385
  42.7032776  33.3010788  65.6393738  43.5223389  32.8061981  65.6610031
  42.1891556  32.9451027  66.3640823  21.2412243  40.9025497  59.8380699
  20.8292713  41.5550957  59.2717552  21.8613377  41.4029655  60.3684235
  56.6224556  50.2327271  20.6810513  57.5717888  50.3431435  20.6280975
  56.3831329  50.6182404  21.5238647  17.5222073  58.4271011  63.7471390
  17.0842743  58.4952583  62.8987274  18.4531479  58.5187263  63.5441895
  80.8735580  49.7926483  50.2011528  81.6142273  50.3986244  50.1805611
  80.9246216  49.3235970  49.3683167  86.4467392  64.1657715  51.2634926
  86.7706451  63.7837982  52.0792236  85.6767883  64.6709137  51.5247116
  61.2164764  58.5410652  67.7716522  61.4953232  58.5455170  66.8559799
  61.2928925  59.4537849  68.0497360  43.7407227   1.9467459  23.6606236
  43.9144592   2.6737576  23.0627098  44.4754829   1.9602313  24.2739582
  77.8755417  27.9215221  18.6732655  77.4692764  27.2997093  19.2770290
  78.8141251  27.7488899  18.7473164  72.4398956  68.7033997  58.1199799
  71.8388596  68.0875778  58.5391998  72.9066391  69.1151886  58.8471756
  84.0198517  64.2779541  89.0356216  84.0241852  65.0151672  88.4250946
  84.6703339  63.6708755  88.6827011  18.3343334   7.6731563  18.0821342
  17.6918831   7.0153246  18.3481159  19.0777130   7.1646342  17.7580605
  11.2772493  58.3459816  40.5337524  11.3119087  59.2963295  40.6426849
  12.0457296  58.1376152  40.0024757  51.2984047  14.9412651  69.4042969
  50.7904053  14.3342495  69.9425354  52.1734695  14.9304800  69.7920914
  43.9584694  18.0929317  57.6943741  44.5610695  17.6654510  57.0858002
  43.9154892  18.9999142  57.3914452  57.6715508   8.0663166  36.9777870
  57.1173859   7.3906002  36.5872231  57.4530334   8.8636541  36.4953613
  71.6715240  39.4885674  59.0492172  71.2127686  39.5337601  58.2103310
  71.5231323  40.3451538  59.4498062  28.8422241   2.8743746  33.6293678
  29.1164684   2.1463978  33.0716324  27.9950104   3.1426322  33.2737045
  80.6185532  40.4547997  40.6515236  80.3947220  41.2904205  41.0612411
  80.4891129  39.8064003  41.3436623  20.0790081  43.7068253  23.4782448
  19.5367870  43.1592216  22.9104767  19.4517441  44.1777229  24.0269032
  29.1048374  58.5193176  51.1927109  28.5456944  58.6207733  50.4224510
  29.9422836  58.9033470  50.9330177  80.6696091  24.8046780  69.8601685
  80.0737686  24.9560051  69.1264725  80.1773148  25.0875664  70.6307831
  64.2871246  17.1017990  14.8676519  63.4909439  16.9384995  15.3732786
  64.1816483  16.5724125  14.0771732  25.5834961   1.4165120  10.7902422
  24.9072895   2.0598004  10.5777369  25.4991627   1.2833620  11.7343769
  65.3720245  16.0791912  85.4765930  65.2252808  16.9016876  85.9437103
  65.4817047  15.4270163  86.1686020  78.0402756  35.8487930  52.7576523
  77.0985184  35.6883354  52.6978951  78.1154709  36.7972832  52.8622665
  26.0999546  35.7228775   0.3802350  25.6542740  36.5697594   0.4001605
  27.0198555  35.9324760   0.5417293  50.6439400  60.6921234  84.5258255
  50.0875397  61.4294662  84.7767715  51.2915230  61.0719528  83.9320297
  26.0522690  68.3433456  29.4091969  25.8568745  68.7994690  30.2277374
  25.8441830  68.9795303  28.7249393  60.5762978  64.3254242  24.4115524
  60.3050537  65.2428513  24.4430828  60.8491859  64.1254349  25.3069668
  31.5535717   2.6183436  24.1385746  32.4249954   2.3441153  24.4243164
  31.5925713   3.5747428  24.1351604  16.7077065  29.1914711  76.6938248
  17.3408718  28.4739704  76.6708832  16.6462440  29.4858150  75.7850800
  86.3324585  23.3005123  56.1882668  87.2110825  23.6562462  56.0552216
  86.4258270  22.3627377  56.0206604  49.8034782  38.5499306  60.2634392
  50.1732979  38.1225662  61.0359802  48.9461632  38.1395721  60.1500740
   1.3601670  68.7819519  82.2054596   1.1005807  69.6561508  82.4963760
   1.9482732  68.4660492  82.8914413  84.3047867  55.9476471  71.6288986
  83.6588516  56.0873413  70.9364471  83.8250351  56.1121559  72.4406891
  12.3016777  47.7725334   4.7531047  12.5828571  47.8173180   5.6669779
  13.0696507  48.0478516   4.2524567  86.4335632  62.1038742  40.6525040
  87.0661087  61.7121201  40.0503044  86.0527496  62.8310585  40.1601410
  44.1649323  15.6436453  81.7037582  44.3418159  16.0377750  82.5579300
  44.5958290  14.7896929  81.7401581   7.5111504  30.0029278   4.2195373
   7.3945713  30.2712479   3.3081398   7.2319636  30.7626839   4.7304740
  41.7461700   9.6309137  76.1009903  42.3939667   9.7762547  75.4114532
  41.8429337  10.3844919  76.6832199  49.1719208  52.0173683  49.1977463
  49.0298615  51.2753792  49.7855377  50.0868378  52.2616959  49.3372536
  70.9823380  68.5849457  77.0343246  70.6457596  68.0207977  77.7305145
  70.8239136  68.0921936  76.2291336  38.4533195   7.0801024  75.3664703
  38.7785835   7.3247042  74.5000992  38.3190994   7.9143300  75.8162231
  35.5777130  44.6106644  30.2519493  34.9107132  44.0140305  29.9122887
  35.2892723  44.8103714  31.1425400  69.8190994  55.0682716  46.4248695
  69.8207397  55.6555557  45.6690063  69.4366837  55.5884819  47.1315346
  65.6243286   8.7248602  47.8312683  66.5296326   8.6489744  47.5297852
  65.3138809   9.5472822  47.4524841   0.6929031  23.9140701  46.6001930
   1.5456386  24.2567654  46.8678398   0.7449455  23.8608952  45.6458893
  69.0803986  42.1534119  66.5738602  69.5070496  42.5763893  67.3190460
  69.6443024  41.4083290  66.3662643  25.2220268  45.8605385  34.2365723
  25.7999058  45.1125565  34.0855255  25.2645607  46.0091438  35.1812096
  35.9701729  41.6434669  86.3446503  35.6371689  41.8259850  85.4660034
  36.3346367  40.7604485  86.2840195  30.4748936  62.2970238  35.4759636
  29.5722847  62.4696503  35.7437859  30.6647377  61.4249344  35.8218651
  79.9978409  26.6399593  87.7368546  79.5182419  26.5746803  86.9110489
  80.6458817  25.9368153  87.6936951  62.9304276  36.4930840  67.3305511
  62.9975166  35.5881424  67.6352081  62.1524696  36.5010185  66.7729187
  54.7165222   9.7532005  47.0355606  54.9094086   9.8788595  46.1064568
  55.5351944   9.9701157  47.4816093  55.2969093  27.5723057  14.8494167
  55.2814217  27.7024288  15.7976036  55.3027954  26.6216068  14.7381935
  34.1101036  63.8249550   6.7910676  34.4624329  64.3130569   6.0468540
  33.5321960  64.4467621   7.2333488  78.4322662  16.3928928  48.7310600
  79.1952591  15.8456717  48.5450096  78.2324448  16.2204170  49.6511459
  85.9633102   7.8247452  15.0937395  85.5338287   6.9975824  14.8756142
  85.4889221   8.4823570  14.5850754   1.0865357   1.9963303  51.9345398
   0.3708401   1.7527908  51.3474312   0.7335217   2.7168939  52.4564629
  61.0572510  38.2637711  64.0468445  61.4144058  38.8653526  63.3935699
  61.6142731  37.4875984  63.9875641  71.6163254  33.1796074  84.0747452
  71.7078400  33.8639107  83.4117355  71.6032562  32.3628654  83.5757523
  63.0944786  66.6831131  79.1275711  63.2321053  66.8426895  78.1938553
  62.1936493  66.9640045  79.2883301  32.9994507   7.3849311  33.1516876
  33.6131363   7.7909017  32.5394745  33.4734154   7.3571358  33.9828415
   0.4994060  64.1696167  48.1291847   1.1420914  63.4782944  47.9702644
   0.4361900  64.2232666  49.0827866  86.7651367  36.5518532  86.3430328
  86.1393585  36.2984161  85.6645050  87.1104279  35.7220802  86.6723938
  29.9936447  33.0250511  83.7994843  30.4474564  32.1847954  83.8647308
  29.8306980  33.2803955  84.7074966   3.3928254  68.1889801   6.1422544
   2.7567611  68.8047943   6.5061526   3.7033334  67.6906815   6.8982420
  77.4669495  17.5784702  34.1282883  77.6580658  16.6411190  34.1610947
  78.0031815  17.9071312  33.4067116  31.6607361  59.0614014  13.2665682
  31.8698273  59.9524994  12.9864626  30.7303410  58.9594154  13.0660772
  84.8078995   2.7844539  48.7132759  83.9273071   2.9091725  48.3593864
  85.3097992   2.4205518  47.9839630  15.8857317  35.3816566  61.2812767
  15.9440317  35.5952682  62.2125130  15.1803942  35.9384308  60.9515305
  13.6746807  59.5784492  80.0629501  13.6440315  58.6218071  80.0742722
  14.0845795  59.7950592  79.2255173  76.1645432  32.2818069  23.4343624
  77.0117188  32.3302078  22.9914398  76.3752975  31.9988060  24.3241520
  66.8340073  39.7269363   9.0591574  67.2560501  39.9994621   8.2443914
  66.4281921  40.5251732   9.3973274   8.4382286  61.8195839  60.3776398
   8.5054531  61.7938232  61.3321304   8.5723591  60.9123383  60.1035156
  23.3698006  20.8192387   0.7802158  23.5321980  20.1872368   0.0799069
  23.6919594  20.3878269   1.5716256  26.0763187  19.6714935  12.3388815
  26.4728413  19.1969910  11.6082335  26.5908318  20.4755402  12.4097137
  33.1496048  52.0277748  58.6250725  33.3771362  52.9550552  58.6929893
  33.4911041  51.6377983  59.4297638   0.1906434  12.2770290  67.8139572
   0.7129771  11.8880644  67.1124496   0.8171403  12.4333887  68.5205536
  66.6348495  69.9632645  48.9776573  66.2359390  70.6680984  48.4674416
  67.5730133  70.1517105  48.9538307  76.7827911  51.2461662  60.8047943
  76.3288498  51.4154205  61.6303368  76.0818024  51.0638275  60.1790161
  54.4587975  55.9197311  46.5453873  54.8240623  56.8034668  46.5880470
  54.5294342  55.5879059  47.4404488  35.5473595  68.4720840  42.8000717
  36.4705887  68.3043518  42.9891243  35.1415291  68.5753021  43.6608162
  25.1677685  59.2473869  21.1039543  26.0321960  58.9105530  20.8682842
  24.7180538  58.4991760  21.4966030  62.4761620  66.4165268  57.8283844
  62.7352829  67.3308792  57.7141075  62.3182449  66.0994110  56.9391518
  25.9014015  26.3760548  80.0195084  25.0510445  26.6739559  79.6964340
  25.7028370  25.5877953  80.5249329  63.0451431  35.6948204  59.9608917
  62.9368134  34.7983665  60.2784843  62.3006020  36.1708450  60.3287125
  44.6552200  47.2413940  82.2431793  45.2247353  46.8466988  81.5828018
  45.0405388  48.1019096  82.4083328  30.5649414  50.1424408  87.7632141
  30.2933979  50.6101646  88.5529861  31.2755146  49.5715065  88.0553589
  57.6210976  38.2450371  22.2337379  58.2874565  38.8677673  21.9432106
  57.3317604  38.5820694  23.0816326  68.7288055   3.7155020  26.7871151
  69.2075272   4.4163580  26.3445530  67.8174133   3.8453741  26.5249596
  79.7009201   4.3843517  12.5560617  78.9001007   4.8515649  12.7940521
  79.7270279   4.4253564  11.6000977  39.1608772  45.1433907  58.6332245
  39.4991646  44.3848228  58.1574440  39.7069931  45.8728943  58.3402824
  77.9799423  55.8316154  56.2269287  77.7318802  55.4823608  57.0829163
  78.6374817  56.4992943  56.4220695  54.3013039  35.6591263  84.9536133
  54.3480530  34.9606171  84.3008270  54.5611801  36.4485435  84.4787216
  63.0764542  59.9226494  83.1488724  62.4155540  59.3342438  83.5138550
  63.1346207  59.6746178  82.2261963  50.8054581   9.1217003  18.6415558
  50.1771889   9.8366508  18.7433147  51.0929565   9.1833267  17.7306328
  86.2965317   9.7734308  87.1811676  86.5196991  10.5639324  86.6897049
  86.4990616   9.9917946  88.0908508   1.1961582  46.7632408  34.7672119
   1.7572815  47.0807419  35.4747162   1.6985613  46.9302597  33.9697609
  41.8359375  63.2306099  17.3524685  42.2693100  64.0207520  17.0298233
  42.5473137  62.6914024  17.6980591  73.0692444  70.5827255  39.4742584
  73.1961517  71.5102463  39.2747040  73.0436935  70.1548996  38.6183701
  83.8555222  57.7008209  30.7127228  83.7442398  58.3428802  31.4138737
  83.2962494  56.9673615  30.9686222  70.0973740  63.1338654  56.4717140
  70.4605789  62.3009911  56.7727776  69.2050705  62.9211617  56.1982536
   1.1298158  30.1774616  54.9588165   2.0099776  30.4439144  55.2244263
   0.6126404  30.9817257  55.0026360  10.0863495  66.2530975  73.9710388
  10.3231592  67.1797180  73.9320374   9.5482454  66.1104279  73.1923752
  59.9680405   9.8295813  23.1808662  59.4025764   9.4449015  23.8505688
  60.6584892  10.2712955  23.6752377  74.7624741   6.0620904  45.9941559
  75.2839813   6.8647456  45.9936028  74.5492172   5.9156585  46.9157372
  80.1258392  39.0081329  42.8782578  79.7880554  39.5395699  43.5991669
  79.4094543  38.4100075  42.6655045  50.7910080  49.9573479  80.0387573
  50.3053246  50.7730904  79.9166489  51.1787643  50.0376167  80.9102097
  39.8580437  63.8413124  34.6780243  40.3915901  63.4640770  33.9785576
  40.4617157  64.4043121  35.1626282  32.6045723  70.2042007   4.6681304
  32.3679733  70.3559723   5.5831256  32.7010841  69.2543106   4.6000872
  68.9440002  65.7129593  35.2576485  68.4836426  66.5519333  35.2782516
  68.4890671  65.1741714  35.9049301  25.3486538  60.3988113  81.8849487
  25.3953247  61.2834015  81.5222549  26.0632210  60.3626556  82.5208130
  33.8291359  22.1878872  69.4288025  33.5900574  22.4727383  68.5467987
  34.6671600  22.6174583  69.6003113  10.7498550   6.2035241   2.5339622
  11.3223009   6.9172635   2.2526915  10.4034081   6.4928217   3.3780673
  42.3433571  15.6288366  88.8095932  42.0408554  15.3850603  87.9347839
  43.2131500  15.2355623  88.8804855  85.4309769  71.4174194  55.3465080
  85.7431412  70.5215988  55.2188606  86.2285461  71.9366989  55.4487457
  62.1100731  70.1825333  73.2292404  61.3176308  69.6973114  72.9993973
  62.6380615  69.5574493  73.7259598  83.0596924  29.1740341  42.7838173
  83.2536545  29.0295372  43.7099533  82.6955261  28.3416157  42.4826660
  61.4409866  35.5009537  72.4076157  60.8820915  35.7714615  73.1361084
  61.3378143  34.5502052  72.3667984  23.6059418  53.9822197  40.2365303
  23.8762989  53.9999237  41.1545868  24.4156456  53.8232193  39.7514229
  56.4578819  12.3169107  53.4918556  56.9855614  11.7314405  52.9487076
  55.5542526  12.0488758  53.3249779  85.3056030  40.9832573  53.2732925
  86.0842514  40.6604576  52.8197098  84.5719681  40.6060753  52.7877541
  58.8859825  45.1640739  81.9579926  59.0559464  46.0171356  81.5584564
  59.7554703  44.8028183  82.1303711  31.7427254   0.5764962  71.3254852
  32.6104622   0.9491516  71.1692963  31.5492229   0.7940392  72.2373352
  56.0028267  26.9036026  73.3833542  56.4032593  27.6773567  73.7798309
  56.7026443  26.2506294  73.3726349  28.2229290  32.0484886  53.6074181
  28.2725906  32.6126823  54.3790741  29.0876617  31.6417942  53.5520210
  44.8626251   2.3318758  16.2355518  45.0666199   1.7816687  15.4793177
  45.6042099   2.9335389  16.3010101  41.2062187  63.7732697  60.4220314
  41.5888939  64.2701263  59.6988983  41.9192734  63.6826439  61.0541458
  56.9432716  28.8524704  29.9800816  56.5268440  28.4365120  30.7349319
  57.4655685  29.5614948  30.3552055  36.4572105  65.1487656  39.1522369
  36.0877190  65.5490112  38.3651466  35.9332809  65.5041428  39.8701782
  75.8775177  47.8448410  37.1865158  75.4632645  48.6222534  37.5610237
  75.2304230  47.5020905  36.5700569  26.4540634  58.7119789  35.9529266
  26.0313892  59.2989044  36.5798988  25.7285538  58.3015099  35.4824142
  84.0430984  41.3803558  80.1548920  83.2588348  40.8567467  80.3192139
  83.9800949  42.1070709  80.7746887  57.8232613  19.9318943  24.5636482
  57.5328827  19.4724503  25.3515720  57.0466423  19.9636822  24.0050049
  64.8451385  12.8053675   4.3434286  64.5153198  12.3382111   5.1110315
  64.3304596  13.6119003   4.3144588  49.6331863  51.7667198  39.4919891
  48.9726486  52.3460693  39.1121559  50.4558487  52.2467957  39.3971977
  25.6298141  65.1958389  53.0807762  25.5332737  65.5429001  53.9676018
  26.5756130  65.1182404  52.9555893  15.9941616  70.0665207  53.0758018
  16.0937843  69.4540405  52.3469887  15.4386044  70.7641754  52.7281380
  45.8170471  45.3083191  85.1435547  45.9695015  45.6395721  84.2585297
  46.1999283  45.9722023  85.7170410  75.6435165  61.2914352  73.1091766
  74.7230225  61.1260681  73.3130646  75.7036285  61.1742439  72.1610794
   7.5409575  25.8770962   1.7969950   7.2158318  25.3935013   1.0376135
   6.9139371  25.6800117   2.4928648  52.0872345  26.4055214  69.8488617
  52.9799118  26.1467896  70.0778046  52.0798225  26.4191380  68.8917847
  20.7616596   0.9445563  17.1727982  20.1967354   0.9214490  16.4004250
  20.4147072   1.6628226  17.7019005  56.5380211  36.9842758  62.3759155
  55.6105461  37.0126953  62.1409378  56.7224236  37.8546524  62.7290039
  41.7084236  46.9853630  36.1590347  41.2353249  46.2818146  36.6033669
  42.3289223  46.5330353  35.5875320  85.9264297  70.3229599   5.2935991
  85.1470490  70.6884460   5.7121925  86.2589798  71.0332794   4.7448797
  12.7262983  60.0531998  44.8392372  12.1020155  59.8640709  44.1387138
  12.9737654  59.1929245  45.1782341   1.3814080  35.0973892  62.7436676
   1.7390034  35.8829346  62.3298111   0.4389172  35.2583504  62.7887802
  54.0159264  24.4583740  14.8682194  53.3094521  24.3331604  14.2346220
  53.7791023  23.8955383  15.6053505  21.7089901  40.6811943  21.1703300
  20.9263172  40.6015167  21.7155876  21.3954563  41.0784836  20.3578701
  58.5890617  45.9678268  12.9528131  59.4717369  45.6122360  12.8494911
  58.6616707  46.8770943  12.6626596  29.1457024  70.7903824  71.1777344
  30.0040779  71.2056122  71.0940170  29.3202534  69.8555222  71.0690918
  67.5029755  13.8364611  20.4003410  66.8646469  13.9623222  21.1024303
  66.9981689  13.9482632  19.5947971  45.8810959   3.2189081  41.8807259
  45.8581314   2.6566706  41.1063919  45.7011528   2.6275086  42.6115456
  72.5788803  62.2713966  50.7092667  71.6775513  62.4752312  50.9588432
  72.7301025  61.3917885  51.0551682  41.3118935  41.6349831   5.7539239
  40.9307404  42.1240234   6.4831667  40.9503326  40.7530823   5.8419781
  75.7765732  41.0146980  55.6452789  75.0482864  41.0382957  56.2659836
  76.4971695  41.4454918  56.1050453  64.6367950  67.6243515  21.4017277
  64.1478500  66.8220749  21.5848103  65.0006180  67.4887238  20.5268154
  68.9560928  45.3345604  52.9961243  69.8694916  45.6181526  53.0349808
  68.9253387  44.7263908  52.2575989  42.0804825   0.4209540  73.9966965
  41.7326851  -0.1634220  74.6703186  42.9552231   0.0792275  73.8115387
  22.6818676  70.3090591   3.6050420  21.8782539  70.4635010   3.1084676
  23.1298676  69.6125183   3.1250849  83.9891968   2.1350033   1.1412271
  83.6461716   1.2663977   0.9312485  83.4191208   2.4550619   1.8403736
  46.0877457  57.1693916  51.0701714  46.8872795  56.8674965  50.6390839
  45.3806763  56.8787498  50.4941368  44.9278488  52.0073090  57.1193199
  44.4095268  51.7247429  56.3658447  45.6842194  51.4206924  57.1232681
  55.3094330  29.1131401  49.6301041  54.5118790  29.5946178  49.8499222
  55.5109787  28.6104908  50.4193802  19.4787102  45.6793137  31.1886120
  19.5650558  44.9956703  30.5242271  18.9205418  46.3410530  30.7802219
   1.2665224  32.6757584  26.1845913   0.4248702  32.4220009  26.5633545
   1.1703235  33.6080475  25.9901371   4.6881113   5.4669127  82.6217728
   4.8194051   5.5368333  81.6762009   4.3033576   6.3066335  82.8728943
  72.5708923  56.6527634  34.4119110  71.8732376  56.0018616  34.4883194
  72.5302887  56.9414787  33.5001945  82.8396454  61.5723534  22.2517109
  83.1702576  62.1439095  22.9447117  82.1215820  62.0663681  21.8560200
  80.2002029  11.8788967  32.2602081  79.5300751  12.2908554  31.7148151
  80.3297806  11.0150280  31.8688374  67.3482208  31.7265053  50.0755043
  67.6977463  32.3041420  49.3969765  66.8465881  32.3063164  50.6485786
  60.7747650  36.9919739  51.2775383  60.4252281  36.4189682  50.5951004
  61.6273041  37.2704048  50.9430389  30.7622185  47.0484314  64.8454361
  30.4004192  46.1622429  64.8463058  30.9683914  47.2238655  65.7635574
   2.5306857  52.9773216  38.1789513   1.8171297  52.3519135  38.3051682
   2.2939167  53.4534073  37.3830147  69.6776428  66.7109451   8.1266298
  69.2498245  65.8577499   8.1991072  70.2400818  66.6321793   7.3561144
  15.5013494  13.7821970  21.0604782  15.7409697  13.8726292  20.1381779
  16.0243664  13.0437469  21.3725300  73.1685562  26.3793736  73.0161438
  72.6032791  26.9720078  73.5116043  73.9553452  26.2929897  73.5544052
  17.4250832  29.4693394   9.2142811  18.0124950  30.0601597   8.7429934
  17.6388931  29.6050606  10.1373720  40.8396950  16.9013443  60.9172287
  40.9881020  17.7913113  61.2368622  40.8193474  16.9893742  59.9643021
  37.9828415  26.5759239   6.7692642  38.7972565  26.6989193   6.2815833
  37.8619080  25.6268311   6.7980514  75.7488174  33.8836594  74.8210907
  76.0943909  34.6189461  74.3149643  75.7485428  33.1493416  74.2070770
  62.4382019  14.7259769  68.1219101  61.5339508  14.8593750  68.4061127
  62.5006065  15.1986637  67.2919083  35.2403984  60.2024612  50.2372437
  34.8406830  61.0719109  50.2598877  34.8722992  59.7899017  49.4558792
  75.7379074  32.3634453  45.1456146  75.1002960  31.7849751  45.5640030
  75.4390793  33.2464218  45.3630562  25.9377918  34.2035980  12.5425501
  26.6368732  33.5911179  12.3136806  25.9314556  34.8383827  11.8261423
  74.6225052  54.4410629  48.1703529  73.8257523  53.9437408  48.3550034
  74.6316223  55.1329918  48.8317032  42.5050049  29.3812046  69.5758133
  42.0295143  28.5640125  69.7252808  42.7832870  29.3325539  68.6612473
  36.1136780  70.1724777  61.8229561  36.3928223  69.4734497  61.2316322
  35.9587517  70.9233551  61.2498856  11.7865915  12.6914740  77.8578873
  12.6023912  12.5287085  78.3313904  12.0603838  13.1321678  77.0534821
  43.6295052  71.2078247  22.3641777  43.6754341  72.1334076  22.6037846
  42.8800163  70.8703384  22.8546925  86.2645187  42.4015160  70.3137665
  85.5260925  41.8770180  70.6233749  86.8926315  42.3804970  71.0357590
  66.1809845  41.1959991  22.6889935  65.8663559  41.1896057  21.7850037
  66.0984192  42.1088524  22.9648819  55.5982666   6.7530951  27.0901165
  55.3496094   6.7296958  26.1660748  55.8836975   7.6546040  27.2385845
  23.0107784  71.1125793  28.1275921  23.5531464  71.6679306  28.6876373
  22.6816177  70.4306870  28.7131786  73.4137497  63.5575333  78.3112259
  74.3630295  63.6665306  78.2545166  73.0593643  64.4112778  78.0626984
  68.3416519  35.1254654  71.4904861  67.6583633  35.0724678  70.8222427
  68.1886368  34.3643303  72.0503922  50.2355003  53.5959702  59.7728729
  50.2548332  52.6408768  59.7124367  51.0228729  53.8812790  59.3093224
  17.6078205  59.2626534  21.0391407  17.1331215  60.0767860  21.2067127
  16.9248581  58.5943031  20.9834099  74.2949829  56.9816246  26.0099087
  74.2888107  57.5492706  25.2392159  73.4407730  57.1227074  26.4181366
  79.2838135  19.9176579  70.6139069  78.9016418  20.7696419  70.4034271
  79.9676819  19.7927780  69.9559097  63.7269287   4.3513489  86.4829559
  63.0405350   3.7589753  86.1760635  64.3063049   3.7964933  87.0051575
  20.9686089  51.7675629  72.6159134  21.2703171  51.6522141  71.7148590
  20.1029243  51.3594704  72.6327209  45.7210083  14.7208681  71.1961441
  46.2229004  14.6981869  70.3813934  45.0077095  15.3346901  71.0210495
  29.1081505  43.2380867  38.2196121  29.3277855  42.4870796  38.7709541
  29.9546947  43.6159744  37.9812965  83.8101654  68.0831985  71.3241577
  82.9836884  67.6004562  71.3354187  83.6725616  68.8079300  71.9341202
  37.6857224  20.8045025   4.6732807  37.9715652  20.6747360   5.5775418
  36.7593384  20.5636330   4.6780162  40.6515579  43.7874947  35.6023521
  39.8863602  44.0347786  35.0831680  40.4597778  44.1132545  36.4817467
  33.8552704  59.3548355  86.7706299  33.5349541  58.7048149  86.1452484
  34.7823219  59.4575996  86.5555801  29.2202625  41.0034409   1.9348620
  29.7864285  41.4700851   1.3200990  28.9356079  41.6746330   2.5551095
   3.9716730  21.3846855  66.0645218   3.0338051  21.4450321  66.2461624
   4.1984596  20.4787140  66.2743225  28.5681572   0.3497611  29.5061569
  29.4308796   0.2571815  29.1019650  27.9537716   0.2971807  28.7740383
  58.6574326  19.3115368  47.5354843  58.8189049  19.9433784  48.2361488
  59.3067093  19.5256710  46.8655472  86.6965179  16.7524452  25.1077080
  86.8520813  16.7467632  24.1632500  86.4623947  15.8483028  25.3173275
  33.8634529  35.8087273  78.2882156  33.1353607  35.3359909  78.6914902
  33.6157265  35.8895149  77.3671646  59.5839653  68.5052109  11.0092573
  59.2565727  68.4717026  10.1104126  58.8001595  68.4249649  11.5528021
  40.7629700   3.3588524  10.1144238  40.8771782   3.2745595  11.0610399
  41.0330467   2.5100069   9.7640638  10.7666492  42.7322502  41.9639931
  10.2348833  43.5276680  41.9362602  10.7283134  42.3872910  41.0719376
  20.2709427  37.4954414  61.7017822  20.1605873  36.5529671  61.8274651
  19.8233833  37.6810150  60.8762589  64.1534348  47.3629646   7.2455211
  64.4851303  47.4668465   8.1373863  63.9246674  48.2506943   6.9701433
  48.6258888  58.1886368  32.0188980  48.3029900  57.6824799  31.2733936
  47.8356972  58.5346870  32.4337234  15.6725302   9.3902225  74.1207047
  14.8637505   9.9005995  74.1609879  15.3954735   8.5259981  73.8164215
  52.0922737   7.1397834  26.4344959  51.4646835   7.8265481  26.6596966
  52.0283203   6.5116110  27.1539001  24.3035412  61.3550720  67.9840240
  23.6431885  61.8824081  67.5344925  24.2596283  60.5001869  67.5556946
   5.8621750  43.4915810  84.4717178   5.2304411  43.0988350  85.0741272
   6.7161493  43.2313690  84.8170471  38.0121346  64.4337845   6.2022972
  37.2353745  64.9816437   6.3151293  37.6830597  63.6327209   5.7945790
  38.1164780  60.5872498  75.0099411  37.8256607  61.3408928  75.5234451
  38.0578537  59.8480263  75.6152039  28.8490200  46.2655373  44.0557594
  28.9735260  45.4322701  43.6014557  27.9442158  46.5108757  43.8624382
  31.4190617  44.9363708   1.6105614  32.1911507  45.2006340   1.1102847
  30.8573303  44.4988823   0.9708015   8.2951393   3.0555072  74.1607971
   8.2745028   3.5799978  74.9612503   7.3909540   2.7649131  74.0414810
   0.3878531   4.8003554   3.3256221   0.4688484   5.7036734   3.6317070
   0.7740064   4.2745776   4.0261045  26.6262131  23.0492897  15.2666426
  26.4483910  23.9121132  14.8922825  25.9353733  22.4882736  14.9141760
  58.8320274  20.7214317   7.0237284  58.9863281  21.6521473   6.8618879
  58.7850113  20.3311386   6.1509781  24.6514111  66.1580658  55.7317429
  25.1399956  65.4174652  56.0909348  23.7604408  66.0394821  56.0608978
  59.8327484  34.2328682  68.1773453  60.3595200  34.7104301  67.5364990
  58.9674835  34.1654587  67.7736130  41.2385292  28.8278351  27.5873337
  40.9410439  29.6926498  27.8698769  41.1686096  28.8504887  26.6329594
   5.7673097  35.9587250  38.1205559   5.2494273  36.2359505  37.3647957
   5.4616737  36.5147057  38.8372879  55.9798851  59.6075058  81.8223724
  55.2259216  59.2498055  82.2912216  56.3637581  58.8532219  81.3752365
   4.2470865  34.6158752  76.9145889   3.4267523  34.1928177  76.6610031
   4.1509142  34.7821884  77.8523102   0.8302939  51.1001244  88.3474197
   0.5711851  50.4271889  88.9769058   1.6660247  50.7915382  87.9973373
  58.9750671  36.5836563  28.7586708  58.3673744  37.0559425  28.1895542
  59.1528206  35.7662582  28.2933807  25.6208763  34.0284576  62.7252655
  26.1489887  34.5582962  63.3224258  24.7578163  34.4422379  62.7374878
  30.4124813  34.9835052  19.4247189  30.5445652  35.6619148  20.0869465
  29.9133835  34.3025131  19.8757000  27.8697300  17.4228153  82.0602264
  28.0893002  17.9252186  81.2756119  27.0577335  16.9689674  81.8345795
   1.7450925  59.1005554   1.7901772   1.6519624  58.9977531   0.8430815
   2.5657279  59.5810356   1.8993959  86.4810867  41.3233566  17.1623363
  86.0526505  40.6422615  17.6807785  87.3956451  41.2989082  17.4437885
  84.5013733  37.9769554  64.7241135  84.9280014  37.1369438  64.8932495
  83.5713654  37.7627182  64.6504822  38.4085274  68.2932892  65.4290619
  39.3637085  68.3374710  65.4727249  38.1378517  68.0746613  66.3207779
  66.5021133  58.4118614  44.5333977  65.8665619  58.4232101  45.2490616
  66.0938034  58.9331474  43.8421822   7.0540204  59.6264153  65.6072617
   6.5335102  60.2294044  66.1380157   6.8102827  59.8305168  64.7043915
  32.6566696  27.6365471  66.3339310  32.0496597  27.6604366  65.5942001
  32.4271240  26.8363342  66.8063736  35.8703842  46.7581444  57.4289055
  36.0441704  46.8236580  56.4898949  35.1492882  47.3686790  57.5821953
  85.7037277  23.3391991  75.1649857  86.6273727  23.4863949  75.3685684
  85.2542267  24.1034775  75.5256195  23.3913345  10.4926405  63.6297417
  22.4577637  10.6710615  63.5164185  23.4203472   9.6736879  64.1244202
  77.7848663  48.1448097  13.7924032  78.5383682  47.6603394  13.4551239
  77.1115265  47.4777374  13.9260521  49.1882973  19.6070328  63.1341248
  48.5983047  18.8613167  63.0243607  49.6005440  19.4629345  63.9859009
  74.0996017  11.5274086  50.2573357  74.7298584  10.8117571  50.1745987
  74.4405518  12.2142649  49.6844368  41.3628693  70.8400574  15.0001411
  42.3079681  70.9781723  15.0629387  41.1526108  70.2793732  15.7469053
  62.4071541  15.0148697  86.1052094  62.4357491  14.5019941  85.2975082
  61.9962502  15.8408632  85.8500137  12.0649605  35.4342232  29.4275608
  12.2475052  34.6127548  28.9713860  12.4133101  35.3011665  30.3091393
  16.1922836  12.6965799  82.5765915  16.9376469  12.6300573  83.1734543
  15.6008167  13.3184834  83.0004272  58.1563911  33.2077179  49.7438202
  58.1310692  32.8871727  48.8422394  58.3505936  32.4311981  50.2687340
  67.9697800  22.3946095   3.0977228  68.2161484  21.8638420   3.8552320
  67.7018509  23.2344608   3.4706757  81.4795609  16.4382229  75.6661530
  81.9764099  16.8294621  74.9476089  81.4617920  15.5028601  75.4636307
  10.4103127  12.6556606  21.8655853  10.6768980  13.5708342  21.9528828
  10.4223328  12.4915953  20.9226284  71.7034760  29.1872482   2.0965376
  71.5485687  30.0711555   1.7634573  70.8718109  28.7322350   1.9641513
  15.7364817  45.9788322  55.6913185  15.4533672  46.8123322  56.0672913
  16.1903801  45.5348434  56.4076157  68.7823792   8.3432541  60.0387230
  68.8143997   7.4964700  59.5935669  68.2120361   8.8811426  59.4895287
  66.7455215  23.6531982  77.3936005  67.4755707  24.2114410  77.1259613
  66.1159897  24.2557049  77.7897110  80.1303177  33.4427261  40.3249741
  80.9496384  33.5611458  39.8444366  79.5703278  32.9492874  39.7256699
   7.2063847   7.3135715  83.0220337   7.6031995   6.4935975  82.7280731
   7.8895006   7.9710007  82.8902359  39.1175880  30.2282639   2.1059811
  39.0469398  30.0437126   3.0425606  39.1091423  31.1837196   2.0488293
  38.0832520  27.7783375  66.7429504  38.0390244  27.1620445  66.0118790
  37.7249336  28.5932789  66.3912277   3.3631365  46.2488518  61.6564102
   4.1377101  46.4065132  62.1962318   2.6562245  46.7052040  62.1127510
  32.7682343  39.6080208  74.9379501  32.6081696  40.5200310  74.6953659
  31.9585915  39.3281326  75.3649979  40.4712410  45.1088219  14.2310982
  40.4627075  45.2159843  15.1822424  40.2633553  44.1848335  14.0922985
  65.5590515  57.7064247  82.9311295  65.3187103  58.5219498  83.3708878
  65.2109528  57.8008232  82.0444794  31.2754822  70.9300232  34.8648186
  32.0188065  70.3381195  34.9804001  31.6716175  71.7961121  34.7689781
  61.6989822  68.7442627  46.7539330  62.3370094  68.1310577  47.1188087
  62.0817451  69.6079941  46.9078751  37.9603653  58.3975296  58.3576241
  38.7808113  58.0878906  58.7413216  38.2317009  58.9329109  57.6119804
  13.6517801  37.2994041   1.8292110  13.0588036  38.0503006   1.8014992
  13.2745857  36.6734085   1.2110803  32.4299469  34.8133698   4.5310187
  31.8353500  35.5452080   4.6956506  33.1248550  34.9185143   5.1808472
  83.0481262  48.8722649  27.8785286  82.7858429  48.8529434  26.9581680
  83.1639481  47.9517250  28.1139488   3.0049901  43.3270149  22.1730404
   3.2244327  43.6750145  21.3087635   3.3973582  43.9471512  22.7876225
  72.3593063  67.0816727  27.7130413  71.9869156  66.3127975  28.1447544
  71.9449387  67.0961227  26.8502979  73.6086884  25.3729610   6.1627803
  73.8044128  25.7094765   5.2883210  73.4310379  24.4422398   6.0270238
  27.4461288  61.3086090  20.1189289  28.3781872  61.1143532  20.2177277
  27.0019283  60.5461388  20.4898090  67.7765884  28.8161278  80.0435638
  68.0597305  27.9021645  80.0707626  68.1120377  29.1950607  80.8560410
  82.3833313  24.1515846  59.2955055  82.9991913  24.2559605  58.5702095
  82.9168243  23.8171692  60.0164680  29.0263557  47.4830055   5.2774711
  29.5333767  46.6807480   5.1527748  29.2696209  47.7865791   6.1520548
  66.1880493  40.0148659  55.5947723  65.9309921  40.5925026  56.3134460
  65.3785324  39.8654366  55.1063232  56.9066734  32.3904037  15.1597385
  56.6072540  32.2599716  14.2599792  57.8048592  32.7087593  15.0694942
  14.1275234  65.8617401  45.9101143  14.8627014  66.3247528  45.5084152
  13.3616562  66.1537170  45.4157181  87.0635834  64.6968384  70.2118530
  86.3223648  64.1810913  70.5293808  86.9070969  65.5769653  70.5540848
  79.5227737  11.5025377  26.5444603  79.0020599  11.6848555  25.7622490
  79.0855103  11.9903917  27.2423382  69.9139786  43.9044266   9.9392595
  69.9934692  44.7019310  10.4626122  70.7861557  43.7743263   9.5669641
  54.0952606  65.5914536  70.5516586  54.0903320  65.1086197  71.3781433
  54.5618210  65.0190353  69.9426422  56.1557732  44.7641144  83.8754654
  55.9508018  44.6778297  82.9444580  56.2562256  45.7061424  84.0122910
   3.3813519  49.3822517  57.3812866   4.1520648  49.2581978  57.9352226
   3.4194047  48.6611366  56.7529755  56.7082443  33.9795837  83.8172073
  56.4603462  33.1146355  83.4906540  57.5529938  33.8408546  84.2454376
  33.7161255  57.9204521  20.1384506  34.5840721  57.5168991  20.1448402
  33.3129616  57.6344261  20.9581318  35.7651901  54.0695648  61.3141365
  35.0702095  54.3620033  60.7244606  36.5452423  54.5370026  61.0153885
  61.2141724  63.2330894  64.0935898  60.5082321  62.9215660  64.6600113
  61.7621918  63.7692261  64.6667099  52.7258224   3.9521372  34.9034576
  52.8134232   3.0844293  35.2979698  52.9333916   4.5599799  35.6131554
  47.6785088  39.5267029  78.1071625  48.5881233  39.8152390  78.0324631
  47.2542877  40.2054176  78.6321564  84.2615356  17.8514977  48.6677818
  84.6726456  17.0635796  48.3122406  84.9187012  18.5377178  48.5517387
  36.3104553  48.2324219  76.4679718  36.1926880  48.4830246  75.5516968
  36.9792976  47.5480576  76.4450378   7.3469410  18.5767593   8.8187771
   7.8955574  19.3559494   8.9088440   6.6476417  18.8438511   8.2222252
  53.8064346  26.9169426  79.6479492  54.2966995  26.4403038  80.3177872
  53.0558891  26.3550262  79.4551773  81.5965729  22.8949909  56.5863152
  82.1798553  22.3523197  57.1169014  81.1756439  23.4804859  57.2157936
   1.8232459  24.5817280  67.4572372   1.0956161  24.1293106  67.0305023
   2.4234114  24.7967072  66.7432251  34.1357498  21.2768059   6.2896633
  33.5267715  20.5567322   6.1257405  33.6538696  21.8719940   6.8639245
  49.2105331  33.6208382  27.1002617  48.6911697  33.1133461  26.4766083
  48.7862015  34.4785347  27.1233006  34.1477051  44.1106453  42.7318954
  33.2255173  44.0322990  42.4876404  34.5254173  43.2574959  42.5181198
   9.7591400  64.7319641  22.1916027  10.0403833  64.8150101  21.2804298
   8.9716139  64.1894150  22.1506844  35.4281769  48.2219696  31.6271095
  36.2124367  47.6739655  31.5978012  34.8948479  47.9163094  30.8933754
  83.4382477  22.7316303  86.2383194  83.9393692  22.4885273  87.0167923
  82.6354218  22.2139225  86.2989502  20.9903278  59.3777237  34.6201324
  21.3721371  58.7864799  35.2688866  21.4670963  60.1997108  34.7352753
  60.1341019  49.1696434  68.0215302  60.8795319  48.5993462  67.8335724
  60.5270882  50.0188065  68.2233200  84.6139984  49.9487762  70.6530838
  85.3104095  50.1428337  70.0257111  83.9648285  49.4603882  70.1468353
  36.7231712  38.9327164  23.8381023  36.3272667  39.7136803  24.2248707
  36.0090256  38.2965660  23.7988548  38.0113182  16.4648743  80.5049896
  37.5377846  16.9254971  81.1976776  38.6275406  15.8998022  80.9710312
  14.6594820  69.8399658  87.9543381  14.6335392  68.9301071  87.6581726
  14.9064493  70.3384476  87.1753998  34.6675682   3.2770472  63.9814568
  34.3143730   4.0815058  64.3613663  34.0732498   3.0719914  63.2596741
  26.2368050  61.8175735  85.3977432  26.9672241  62.4335556  85.3404083
  25.6584969  62.0639420  84.6758728   3.3254831  50.2812805  87.4353256
   3.8194244  50.8957596  87.9781647   3.9922276  49.8281631  86.9192200
  49.1061516  41.4250298  59.7604637  49.5996590  40.6048622  59.7576408
  49.6769714  42.0495720  59.3128624  66.3341064  35.0122223   7.5369625
  66.1483917  35.9356613   7.7072730  65.7991409  34.7972870   6.7728662
  52.3257599   1.0653219  32.6684837  51.9336472   0.6416090  33.4319954
  52.6686554   0.3423833  32.1431160   8.4695444  32.8229027  78.7793884
   7.8314934  32.6852150  78.0792694   9.1523371  33.3609810  78.3787689
  13.0456018  56.8697548  32.6245079  12.8756084  57.1921844  31.7394238
  13.9987154  56.7963943  32.6737518  19.0711498   7.2407079  14.9289532
  18.3547401   7.4472103  14.3286648  18.8734264   6.3585038  15.2433605
  82.3664627  52.6570892  77.4819412  83.2540588  52.3142128  77.3778763
  82.3176575  52.9204597  78.4009018  43.6585693  67.3750839  85.1338348
  43.1279221  68.1712112  85.1050186  43.8942566  67.2111511  84.2207031
   4.1670814  40.7287064  26.8391457   3.6797466  39.9056892  26.8762894
   4.6759181  40.7425537  27.6497784  40.8381958  57.4694023  15.0971050
  40.4451942  56.6874428  15.4848185  40.7837296  57.3218155  14.1529207
  28.1448307  15.5415049   9.3605585  27.5541096  16.0923576   8.8469048
  28.7854691  15.2205219   8.7259045  12.1837797  47.6039886  39.3246040
  12.5459814  47.2151184  38.5284729  12.9374104  47.7051888  39.9060097
  70.2691498  12.4848623  81.1910782  70.2139282  11.5980988  80.8349380
  69.6837463  13.0020390  80.6378403  69.6513367  18.1779022   8.8473454
  68.8723907  18.6172276   9.1886148  69.3396988  17.7010517   8.0781078
  62.8641319   0.2086425  30.4252396  62.7485924   0.2077642  29.4750385
  63.6454010   0.7421153  30.5710258  20.9800205  67.1218796  70.8368454
  20.3696499  66.6815567  71.4282761  20.8739910  68.0527802  71.0328369
  17.6449738  60.8439293  55.1263428  17.1713600  61.5883408  54.7551651
  18.5651245  61.0264626  54.9359894  72.7279663  20.8648205  11.7756910
  73.2341843  20.8097687  12.5862160  73.3854904  20.9833088  11.0902300
  45.2461891  53.0535660  11.4831686  45.2122574  52.7946968  12.4040747
  44.4995422  52.6090355  11.0817480  11.4625483   0.8596799  73.0331497
  11.4472647   0.4679366  72.1599121  11.6846151   1.7780511  72.8798065
   2.0693491  13.0146790  61.7501221   2.5087025  13.7063379  61.2553406
   2.6478910  12.8480415  62.4942665   4.3807750  40.8329811  81.2829437
   4.7181749  40.3592834  82.0432053   3.7879002  40.2130241  80.8582230
  58.1885757  33.3220863  17.9662800  57.4295845  33.7467842  17.5665379
  58.8069916  33.2081871  17.2446022  27.7922688   3.8791432  23.3078938
  27.2401276   4.5774016  23.6597557  27.9697800   3.3127601  24.0588474
   1.3268006  43.1702080  56.6034317   0.9383626  44.0450516  56.6030769
   1.4013616  42.9416313  57.5299416   7.1075630   8.4290409  85.3708725
   7.0814161   7.8271890  84.6270142   6.3441496   8.9935131  85.2491989
  70.2750931  64.1404037  60.7576218  69.6576080  63.5179596  60.3735580
  69.7586288  64.6226578  61.4033203  47.5666542   2.4185719  77.1467209
  47.1733665   1.9386865  76.4178391  48.3557663   2.8132870  76.7755966
  85.0095749  43.7823792   6.9893045  84.7816772  42.8856697   7.2346754
  84.4821396  44.3309669   7.5699067   1.0594817  66.2379074  43.7463646
   0.8774986  65.9130402  44.6281700   1.2154967  65.4486160  43.2277908
  61.8323975  32.5581779  68.9768372  62.1332397  31.9700508  68.2841415
  61.2166214  33.1469460  68.5404816  57.1727295  25.7202854   7.2242198
  58.0289040  26.1370602   7.1267853  57.1659813  25.3944702   8.1242371
  71.4683609  52.4329872  14.2357168  70.8795547  51.6805649  14.1774445
  71.2684708  52.8283958  15.0842009  46.4859161  52.3174438  65.5570602
  45.9798317  52.0568390  66.3266068  46.1842194  51.7319908  64.8624725
  36.0128250   4.6932454   8.4335537  36.2283936   3.8828390   7.9720297
  36.7055969   4.7881484   9.0872326  75.0188293  10.0137577  37.2289658
  75.2836533   9.7224693  38.1014671  75.5182571  10.8171606  37.0828400
  31.3324871   4.1286025  63.8769608  30.7222385   4.4467206  63.2116585
  32.0927048   3.8266234  63.3798561  52.4012604  37.5590897  41.9240417
  52.7865601  36.6896973  42.0332947  53.0106773  38.0204697  41.3478737
  61.1396294  68.3472977  88.5430908  61.5719376  67.9075317  89.2751770
  61.8561935  68.7290421  88.0361099  29.1310062  39.0269356  44.6324539
  29.9836788  39.4143791  44.8301086  29.2445793  38.6245346  43.7714043
  64.7967834  23.5183620   3.8669636  65.2662201  23.4518986   4.6984949
  63.9169960  23.1956978   4.0621438  75.5862122  59.0133972  60.1241188
  75.1952286  58.4037971  59.4982185  75.8454361  58.4638405  60.8637238
   5.0138612  44.2322807   3.8420553   5.1367054  44.2066116   4.7909927
   4.0673800  44.3144493   3.7252071  27.9139557  15.4075966   3.0864542
  27.3166809  16.1505184   2.9994962  27.3456764  14.6381102   3.0520747
  85.8887634   5.3399796  37.0856400  85.2993698   6.0483165  37.3446846
  86.5745239   5.7728853  36.5771561  82.5645828  63.2223625  67.9507599
  83.0405273  62.3998108  68.0652695  82.2925034  63.4667969  68.8353271
   7.9124479  20.4855728  64.2191162   8.6585407  21.0794353  64.3022079
   7.4386282  20.5791702  65.0455322  24.6732235  52.3600197  56.1761246
  24.3713360  51.4564972  56.0826263  24.9677029  52.4213371  57.0848351
   1.2444205  53.8880920  69.0229263   0.6096324  53.2391815  68.7192993
   0.7277857  54.5032463  69.5434189   6.7430382  41.2701607  67.4056091
   6.6862621  41.2775879  66.4501190   7.2610621  40.4912949  67.6087112
  61.9143333  47.7977371  23.7856407  62.6186905  47.1670837  23.9352760
  62.1665878  48.2522964  22.9819145  67.5713272  58.9602585  39.3808098
  68.3794556  59.1687050  39.8495483  67.5597076  58.0041351  39.3369331
  40.0492630  49.3189087  36.2080040  40.7981567  48.7672958  35.9819260
  39.5512581  48.7996597  36.8393517  75.9360733  37.9632568  32.0041389
  76.6498795  37.8350945  31.3794079  75.4452744  37.1418533  31.9788437
  80.2571487  55.8299446   3.7848186  79.3559570  55.5084381   3.8116679
  80.1704330  56.7818565   3.7340760  85.4352112   2.2904325  76.4766388
  84.5872269   1.9705455  76.1686859  85.2229919   3.0568979  77.0093002
  45.0526619  26.5023670   0.8572565  45.6349297  26.9826965   1.4458804
  45.5242577  26.4735336   0.0247925  70.8074493  53.9608383  73.8958817
  69.9410553  53.6053009  73.6979141  70.6385422  54.8592949  74.1795731
  31.1054630  22.2396793   3.1458495  31.4602566  22.9880142   3.6257975
  30.7195339  22.6218109   2.3576448   9.8199730  22.1365433  65.3679352
   9.6311245  23.0738621  65.4126663  10.7719717  22.0879078  65.2809601
  85.8932648  11.5838137  82.6364212  85.0431747  11.9889688  82.8079834
  86.2335663  12.0542297  81.8754120  11.5498705  38.9017448  85.7935257
  10.6942587  39.0961494  85.4109497  11.3888044  38.1591759  86.3756638
  28.7893314  54.1821480  27.5642185  29.0807667  55.0417671  27.2603245
  29.0117493  53.5869560  26.8483219  47.9947014  23.9996719  42.7185059
  47.8602448  24.5371284  41.9379349  48.5834160  24.5176506  43.2674561
  75.3908463  14.0101032  38.4682503  75.9335251  14.1471024  39.2447586
  75.9560318  13.5304909  37.8626366  83.1072311  61.8351860  74.9817657
  83.1322250  62.6789780  75.4330139  83.6468964  61.2583771  75.5224075
  40.6726799  60.8336601  67.2461777  39.8670921  60.3181458  67.2074051
  40.9011269  60.8514938  68.1755447  73.4296417  69.3121109  36.8558693
  74.1091461  69.9719315  36.9942474  73.9062881  68.4832611  36.8106461
  26.0387936  64.6306763  65.9553223  26.8958683  64.2098389  66.0228119
  25.7219582  64.6748581  66.8574829  38.9077187  54.3567886  10.1587105
  37.9893570  54.3610344   9.8888521  38.8821106  54.5379219  11.0982666
   3.8049667  45.8551521  69.5842133   4.3574190  45.9012451  70.3645401
   2.9219050  45.7106323  69.9241409   3.6535714  58.9003220  25.8247871
   3.6978593  58.9512863  24.8699703   2.8677766  59.3961067  26.0549107
  27.2533360  58.6298409  39.1534500  28.1648846  58.8348427  38.9454041
  27.1187706  57.7507019  38.7995567  69.3667908  38.7560921  62.1010284
  70.2986145  38.9510193  62.2007027  68.9595566  39.6077271  61.9425545
  30.1838226  12.5288744  63.4903984  29.7625732  12.3439798  64.3298035
  29.9614201  11.7778206  62.9402275  46.6625328  38.6457024  62.5821419
  45.8188362  39.0099030  62.8500366  46.5803261  38.5212555  61.6366348
  52.1651459  20.1860580  26.0934296  51.9588470  19.2697811  26.2781143
  52.9811478  20.3479729  26.5668793  69.0231934  59.6022949  30.9049892
  68.0694733  59.6610909  30.9615402  69.3386765  60.3837013  31.3589802
  34.2228928  35.9498215  66.0163040  33.5711708  36.0818062  66.7048264
  34.6784363  36.7893333  65.9535904   8.9345922  19.5617180   0.2353491
   9.7466307  19.3737106  -0.2352660   9.2205210  19.8313999   1.1081302
  63.8517799  54.0385666  15.3188324  64.7155609  54.4461861  15.3817301
  63.9647255  53.3354874  14.6791801  81.4372635  54.2133522  88.9035339
  81.8942184  54.2968941  88.0666046  80.5563889  53.9225464  88.6674805
  72.6525192  24.0480480  57.7169991  72.3777466  24.9440098  57.5221024
  73.3690948  23.8788681  57.1053391  52.9286041   4.6677680  81.7119293
  53.2537270   4.4658670  80.8345718  53.6814232   5.0478354  82.1647491
  64.4844589  42.0667229   5.2792706  63.7459984  41.9341507   4.6848559
  64.5578232  41.2410736   5.7579708  19.5491524  56.6014328  87.1865005
  19.1369858  56.9106941  86.3798370  20.3309994  56.1342278  86.8921051
  75.0205078  31.3581486  35.9374695  75.8890610  30.9918175  35.7711906
  74.4317245  30.8348370  35.3936691  76.6709900  54.9510994  63.1601257
  75.9794464  54.3884430  63.5085716  77.3512650  54.3431396  62.8705711
  86.1856842  44.0247612   4.5693007  85.9013672  44.0791702   5.4816785
  85.7396545  44.7522430   4.1356454  81.9868393  66.5854874  21.1444340
  81.4356995  66.6676331  20.3661461  81.5775299  67.1619644  21.7897034
  56.9926872  65.0525055  29.1616802  56.9219284  65.6213608  29.9282475
  57.2941780  64.2144318  29.5123539  34.2088203  56.0168343  28.6299496
  35.0845566  56.0805817  28.2488289  34.2318192  55.2135429  29.1499786
  36.3104439  68.5896683  49.5933685  36.0510979  67.6685104  49.5723190
  35.8101997  68.9955673  48.8853912   0.2320019  32.2262268  80.5044174
   1.1361923  32.5093765  80.6404266   0.3050392  31.4501514  79.9488983
  46.5118217   5.8580351  42.0502281  46.3393860   4.9165297  42.0421410
  46.8264732   6.0363007  42.9364815  50.9377403  59.2775192  47.1914368
  50.1557999  59.6466217  47.6020012  51.0642242  59.8030548  46.4014664
  76.7256393  13.6482544  12.1872377  77.0296173  13.1272717  12.9304790
  76.1711578  14.3232069  12.5786686  59.8539276  50.7536240  44.0886726
  60.2437782  50.4302216  44.9008636  59.0983810  50.1844215  43.9424133
  57.9322586  18.8740425  20.1044769  57.1954117  19.4157543  20.3870335
  57.6286087  18.4588642  19.2972240  18.3525562  48.1008682  52.0908775
  18.0977192  47.7114296  52.9273186  17.5572681  48.5288734  51.7737656
  17.3478680  41.6274490  83.4225616  16.8662128  42.4511261  83.4987106
  16.7978439  41.0792122  82.8629761  86.5521774  40.6704140  88.5869751
  86.2883224  40.7146606  89.5060272  86.4891510  41.5734787  88.2759476
  55.5160713  16.6092567  10.4495287  54.9205093  16.0758018   9.9232569
  56.0620613  17.0629330   9.8074169  37.0406380  55.3925819   1.9760875
  37.8198662  55.8023949   1.6004685  36.5830078  55.0148773   1.2249918
  39.0136452  53.3364563  35.2947273  38.6305885  52.4599648  35.3302040
  39.9419365  53.1999931  35.4841537  60.5470657   7.1417150  35.2776413
  60.7028275   6.9505091  36.2025261  61.3750610   7.5069914  34.9658318
  74.0554733  30.2238922  54.1282539  73.3819580  30.1295338  53.4546814
  74.8527222  29.8881721  53.7184639  74.3097610  14.5586252  22.3668175
  74.2612762  15.5017090  22.5232620  74.9809647  14.4621086  21.6912403
  56.7244720  29.2100334  79.5303802  56.5630836  28.5682507  78.8387909
  56.2064590  29.9732132  79.2745514  74.0036392  62.6509285  59.3007507
  73.7980576  63.0595245  58.4599113  74.9467010  62.7778397  59.4045029
   6.7910604  27.5260353  74.0253143   6.4854164  27.9123955  73.2046204
   6.4652934  28.1169949  74.7041931  22.1211548  54.4287109   5.8616133
  22.0382957  55.3821907   5.8770728  22.6206684  54.2445717   5.0661182
  30.0358524  16.2418842  70.4222794  30.8021622  16.7440395  70.6994781
  30.2016373  15.3553448  70.7428894  80.5703354  35.0990219  68.3352966
  79.9928589  35.4274597  67.6461868  80.8861465  34.2587891  68.0028763
   8.1036148  43.9439735  14.3106070   7.9770293  44.6247520  14.9714775
   7.4291391  43.2931633  14.5049238  84.3819656  44.1073685  42.1087952
  83.6928177  43.8163528  42.7059708  84.8612747  43.3085785  41.8887482
  13.2715359  66.1139069  33.7220078  13.4573851  66.4835815  32.8588562
  13.9503403  65.4512787  33.8499794  28.3362198  56.0653496  45.6771393
  29.1855659  56.0164566  45.2384453  28.1020966  55.1531105  45.8481293
  63.0020065  16.4520969  74.5876617  63.0915070  16.9564114  75.3962936
  63.8829536  16.4411907  74.2134399  74.9481049  60.9640045  20.1021557
  75.7207336  61.2732391  20.5750751  74.2286758  61.4930115  20.4468346
  43.6893349  56.4535217  13.5614433  44.5611496  56.4050598  13.1692476
  43.8320656  56.2577477  14.4874735   4.9645176  33.5129280  64.9164429
   5.6544623  34.1750755  64.8743896   4.1516752  34.0164680  64.9607620
  68.0688171  37.5737190   0.6216860  67.1418839  37.6892776   0.8306546
  68.1876297  38.0395584  -0.2060269  66.5013809  22.0298252  67.9890594
  65.8920746  21.9457264  67.2556381  66.8355560  22.9242458  67.9214706
  86.1741486  51.7697029  14.8690109  85.4587631  51.2233276  14.5435314
  85.8744965  52.6673355  14.7251625  58.6631508  50.8847008  25.2399750
  59.4440689  50.8475533  24.6876888  58.9584579  51.3122025  26.0438843
  75.8586349  25.8036137  58.4864693  74.9665146  25.7972050  58.8333244
  75.7526550  26.0045719  57.5566254  29.3642159  26.1447659   5.2034893
  28.8453465  26.6676235   4.5922394  29.2238293  26.5611286   6.0538802
  10.3557587  59.1025124  78.3756409  11.2109823  58.8154678  78.0555954
  10.5576162  59.7562790  79.0450287   9.3834858  37.2026443  34.8560677
   9.6005945  36.4206429  34.3485565   8.4321918  37.1668396  34.9560127
  60.4019699  12.6941719  20.3194084  59.5603790  12.3512726  20.6200390
  60.8779068  12.9000521  21.1239758  47.7156296  17.2228928  81.6616974
  47.9178123  17.2880096  80.7283630  47.7972221  18.1192188  81.9875412
  58.4103851  48.0966568  32.0155945  58.2713127  47.6524620  31.1791840
  59.3561707  48.0521469  32.1560783  65.0508041  14.2630148  52.3285675
  65.4998169  15.0222178  52.7003670  65.7325134  13.5954762  52.2517624
   0.3455240  23.6020107  29.2017536  -0.4251097  23.0682945  29.3954086
   0.1091292  24.0857315  28.4103222  62.9642563  29.9941368  66.0867386
  62.9131775  30.8443375  66.5235291  62.6441612  30.1607246  65.2001648
  58.6411057  67.1562195  36.5568275  59.2859802  67.8475037  36.7068176
  57.7969666  67.6068878  36.5806007  63.8631706  71.3511963  14.2959499
  64.1376953  70.9992065  15.1426897  62.9082527  71.3886261  14.3503494
  73.2224350  12.5550823   0.1386582  73.2755890  13.4793234   0.3819373
  72.2957611  12.3351564   0.2342642  27.2110329  38.7389984   4.9152613
  27.1648598  38.8309021   5.8669195  26.6776199  37.9678154   4.7229500
  62.2322044  44.3650742  21.6167469  62.3186722  43.5693169  21.0918388
  61.8556252  44.0662613  22.4444733  16.2372704   6.8481541  67.6921158
  16.0219460   6.2435741  68.4022903  16.7944221   6.3382068  67.1040955
  53.9348526  10.1154499  13.9679489  53.7371025  10.4128714  14.8560181
  53.1549187  10.3405399  13.4607344  45.3471680  39.3891640  14.6905899
  45.3782692  38.5482025  14.2344685  44.7261848  39.9132271  14.1846561
  41.2414474  45.6439018  22.9448185  41.8183517  45.4230804  22.2136192
  41.3929100  46.5768547  23.0961113  78.1868744  53.2925148   5.8488069
  78.2026520  53.3082123   4.8918657  77.6963501  54.0773125   6.0931702
  41.5849800  64.0617218  42.0961838  41.9529037  64.8021927  42.5784416
  41.8161430  64.2319641  41.1830482  74.0441513   1.0496190  62.9997482
  73.9654922   1.8814080  63.4668350  74.0473480   1.2939956  62.0742722
  12.9863615  60.1426697   7.9560027  12.5385456  60.4834213   8.7303295
  13.7602644  59.6987991   8.3028250  47.7395439  70.6453552  50.3844223
  47.9282532  70.3710632  49.4869881  47.6010780  69.8268204  50.8609428
  15.5412216  50.5324936  62.3749313  14.7806997  50.6169662  61.7998657
  15.1691027  50.4358292  63.2515259  69.3753586  49.6649780   1.5593883
  69.1807709  48.9471436   0.9568294  68.7451019  49.5572662   2.2717175
  55.7193756  23.9281616  60.3781891  55.9983063  24.6481419  59.8124504
  54.8379898  24.1728096  60.6602211  47.3568573  11.7621422  78.2279053
  48.1434898  11.9493427  77.7156601  47.2610588  10.8109169  78.1807251
  44.2745132  46.9855804  40.1952858  45.0272369  46.9479218  39.6051788
  44.4370995  47.7541924  40.7421265  10.3792419  67.4369125  55.5576363
  10.4409399  66.4818802  55.5762329   9.5372238  67.6305923  55.9696121
  59.9501152  40.0487442  36.0940208  60.7445221  39.5563660  36.3006821
  59.4931030  39.5069962  35.4506874  16.4847527  36.8542976  64.2569885
  16.2789211  37.5077209  63.5884781  17.4315929  36.9255257  64.3780289
  60.1254234  23.9143219  67.7639542  60.5381927  23.0572433  67.8701172
  60.8442688  24.5395145  67.8568268  11.5985193  51.3806229  89.0221634
  11.3711357  52.0050507  88.3332443  11.0507793  50.6163483  88.8430099
  83.9758224  11.6732588  73.4448090  83.7468567  12.3195858  72.7769241
  84.8465729  11.3661671  73.1923752  83.2746658  70.6630402  42.5222855
  83.4099731  71.6026154  42.6452446  84.0260162  70.3789597  42.0017014
  10.1383743  25.2465343   3.3374894   9.2705469  25.4753056   3.0046659
   9.9743605  24.8957367   4.2128592  58.9512291  54.3294983   2.8559022
  58.8880272  53.8611526   3.6883028  59.6232376  53.8563080   2.3652663
  56.2557526  32.9783897   6.4337893  55.7785492  33.3122292   5.6741447
  56.8109741  33.7084389   6.7076335  20.0045643  55.6954155  64.8516846
  19.6489983  56.3410530  65.4623871  19.4341068  54.9330940  64.9500732
  81.8794174  53.4760284  48.2641640  82.2445526  54.3359795  48.0558510
  81.5366364  53.1531067  47.4308281  26.0310707  48.2962265  58.4432373
  26.8598442  48.7687340  58.5213623  26.2803478  47.3721123  58.4534111
   3.9490085  49.4443626  79.6354065   3.0956006  49.1007347  79.3711243
   4.2494287  48.8420181  80.3159637  18.4032669  44.9143143  89.0494537
  19.3282566  45.1489639  89.1240387  18.2486820  44.8461456  88.1072769
  86.9794846  27.5942078  74.6104660  86.1764297  28.0957985  74.7509613
  86.7631607  26.9896469  73.9005737  58.4212723  28.4720440  86.6837921
  58.4429893  28.9920845  87.4871063  59.1437874  27.8516769  86.7804718
  72.5827560   7.7927980  26.7940884  72.3633728   7.5309100  27.6882458
  71.8522949   8.3478718  26.5210476  13.0745354  64.6468964  21.4348888
  14.0029869  64.8248444  21.2847404  12.6586304  64.8150787  20.5893307
  83.3330841  50.7880707  13.8831778  83.1797333  51.4017639  14.6015739
  82.7678604  51.1003609  13.1766176   6.7707353  36.3813934   5.5397387
   7.4169087  35.9545288   6.1023016   5.9838991  35.8434715   5.6278186
  28.5278378  47.8894119  34.6070557  28.2127991  47.2419815  35.2377777
  27.7809162  48.4717026  34.4682045  36.7745934  56.7410545  16.9243088
  36.1755638  57.1267357  16.2850552  36.4202843  55.8669662  17.0876007
  41.9613304  35.4602013  79.5052872  41.9183998  35.2963982  78.5631866
  41.0878296  35.2374382  79.8271713  44.3381882  49.9583702   1.3857496
  43.9132652  49.1008110   1.3693893  43.6337814  50.5783539   1.1968998
  71.8484192  57.7241554  55.8427811  71.6917419  57.1438217  55.0978661
  71.2240906  57.4340897  56.5078392  31.2767239  10.3249168  88.3174667
  31.1048450   9.7893610  89.0919724  31.6611328  11.1302814  88.6636581
  74.3895493  43.6544647  14.6755886  74.3916779  43.0481758  15.4162951
  73.4627304  43.8275146  14.5103779  71.0263824  47.3117104  35.8512115
  71.6406631  46.5923767  35.7047501  70.8615189  47.6674232  34.9779892
  78.2805862  62.0079994   8.6600113  78.5818329  61.4156303   9.3489065
  77.4173431  62.2984428   8.9544506  39.9893494  20.0578461  18.3307877
  39.1453934  19.6249008  18.4593430  39.7913666  20.9921875  18.3943329
  50.1367760  68.5366821  87.8303757  50.0827332  69.0796432  87.0439224
  49.4926033  68.9161224  88.4281158  42.1691475  42.3582687  45.8064957
  41.8134651  43.2108650  45.5558929  43.0504951  42.5510597  46.1263275
   2.3278127   5.6846509  66.2480011   1.9997211   6.3080864  66.8960114
   3.2696865   5.8511682  66.2108841  20.9199619  13.1007891  16.3068733
  21.5545959  12.3904476  16.2126064  21.1356068  13.5046444  17.1474857
  29.7896404   1.6754682   0.2715161  30.3949909   2.0763023  -0.3522754
  29.4155331   2.4146509   0.7509776  15.7973738  58.6277580  42.1117935
  15.4330645  57.8420677  41.7041130  16.1312523  58.3263245  42.9567146
  47.5562744  37.1431999  87.1869354  46.8712845  37.8107719  87.1499786
  48.3739891  37.6401711  87.2112961  53.2897263  36.0260429  36.2744141
  52.5290527  36.5603447  36.5027313  53.1371269  35.1908302  36.7164192
   1.3159106  59.1165390  46.9549026   0.7702325  59.8010559  47.3420753
   0.9828367  59.0207710  46.0626450  75.3157272  70.5219040  68.8879013
  74.8436508  69.9013443  69.4431381  75.4413300  70.0560913  68.0611725
  83.8854065  53.3895798  83.2534485  83.3418350  54.1710243  83.1529312
  84.6079330  53.5197792  82.6392441  68.9701462  46.7702560  83.8784027
  68.8440552  46.0963821  83.2103958  69.6292877  47.3561096  83.5061798
  18.7418671  44.8130341  33.7645683  19.0348587  43.9269867  33.9774208
  19.3255138  45.0956345  33.0604897  62.7690353  24.0108700  15.2727718
  61.9556007  24.4457092  15.5286446  63.2343063  23.8689117  16.0971508
  17.2205505  14.2696638   5.0942330  17.8781815  14.3850594   5.7801170
  17.1831837  13.3233795   4.9550123  77.1050873  18.9123573  57.8231697
  77.8820572  19.4686909  57.7679901  77.2715149  18.2059288  57.1990776
  23.3373928  52.6912689  51.0402374  24.1434460  52.9865875  51.4636688
  22.8880787  53.4988403  50.7908897  71.6076431  16.0440331  74.1703644
  71.3701019  15.1167927  74.1758270  70.7799759  16.5024662  74.0253296
  86.3862228  44.6553688  34.2862740  86.7434998  44.0904617  33.6011009
  87.1250381  45.2006531  34.5565529  25.1247444  61.1942863  61.6990585
  25.0055923  60.8511734  62.5846672  25.2067871  60.4150085  61.1493034
  62.3853798  40.8804588  27.9813557  62.0628090  41.7753220  28.0881138
  62.8291855  40.6857643  28.8068008  84.5495911   9.9897366  43.1552429
  84.0234375  10.5809708  42.6168823  83.9704437   9.2487135  43.3333092
  66.0643616  42.5745392  35.6016808  66.7177200  42.9367867  35.0032349
  66.5118561  42.5305557  36.4466972  68.6914062  23.1244946  17.1667328
  67.9007492  22.6011868  17.2980213  69.0775681  22.7774029  16.3625908
  23.8823891  48.3923912  81.0036316  23.0115967  48.0777130  81.2463837
  23.7340450  49.2801437  80.6778641  26.0455036  40.7611771   3.5890439
  26.5331230  40.0574760   4.0171347  25.2153988  40.8007050   4.0640121
  24.1324024  53.1092224  68.0301971  24.9202423  53.5517197  68.3460083
  23.4660969  53.7959518  68.0042648  63.0004425  19.8470840   7.7040467
  62.1868591  20.1188774   7.2792659  63.3878593  19.2157459   7.0977855
  24.1506290  20.3536034  74.9500351  23.5251083  19.6291885  74.9633255
  24.0468197  20.7753735  75.8030090  21.2759819  39.8566551   3.6212358
  20.6660843  39.1703758   3.8919365  22.0903149  39.3914642   3.4296894
  21.8639908  64.7916489  54.6826019  21.9678116  65.5621414  55.2409821
  21.4941998  65.1337662  53.8686981  54.7926826  55.1008606   8.5660477
  53.9352264  55.5089073   8.6864491  54.6408386  54.4103127   7.9208202
  41.2899513  43.6582184  70.7943115  41.2509689  43.8724899  71.7264099
  40.3739357  43.5767632  70.5287704  61.3336220  10.4727573  36.2966232
  61.7877846   9.6304665  36.3193092  61.8023605  11.0147781  36.9312363
   7.0421300  14.9928503   4.6467524   6.1889348  15.3683081   4.4292173
   7.6609831  15.4665098   4.0909648  26.7363186  51.9323387  87.0895309
  26.8360577  52.8203354  87.4326706  27.1108418  51.3700638  87.7676239
  38.7095833  39.1342278  65.7513275  39.0568619  39.3476410  64.8852539
  38.9767113  38.2271004  65.8996201  86.0364990  41.2033081  67.7461853
  86.6989365  41.5233612  67.1338272  86.2440491  41.6389923  68.5728226
  81.4010315  65.8725281  55.2976265  82.0405426  65.4962082  54.6929436
  81.8637314  65.9241867  56.1339722  56.8434677  22.4136753  62.1835861
  56.3492775  22.5164032  61.3702888  56.2727280  21.8902340  62.7461662
  77.4387283   0.3143297  55.8081589  78.1861191   0.3761528  55.2133331
  77.7217026  -0.3002482  56.4852524  76.4596939  15.4683552  73.1330261
  76.8997955  16.1239986  72.5920334  76.0955582  15.9667692  73.8646164
  81.2930222   2.1055264  52.4635277  80.4857407   1.5933452  52.5103455
  81.8198395   1.6620193  51.7986984  44.7427292  70.8013229  74.0624695
  45.3155518  71.2384567  73.4323730  45.3415222  70.3523483  74.6592102
  63.9702187  16.4110146  83.1516571  64.4963226  16.5917435  83.9306183
  64.6089630  16.3408985  82.4421997  47.2556114  55.1968765  36.4794579
  47.9224129  54.8849983  35.8676224  46.4922256  55.3765068  35.9306412
  84.8640976  71.4506607  68.6397171  84.4557266  70.6101837  68.8472061
  84.1367035  72.0726242  68.6225586  21.0970898  30.4089451  73.5916748
  21.1505966  30.4531136  74.5463562  21.2027874  29.4795246  73.3886108
  59.0605354  48.0472107  20.5134068  59.8089371  47.4591637  20.6150398
  58.7657852  48.2166061  21.4082031   6.6417112  21.6828041  22.8980331
   7.2352629  21.1999359  23.4731579   5.7669392  21.4010258  23.1656284
  71.1290131  31.9708538   1.6277893  71.0069504  32.6431465   0.9574488
  71.6126556  32.4132156   2.3253820  53.5029335   9.0666599   3.9584050
  54.3368111   8.5967369   3.9511817  52.8486328   8.3907509   4.1352243
  72.2755356  32.5324059  70.9230652  73.1480942  32.9250183  70.9501190
  72.1513901  32.2875595  70.0060806  85.7306366   2.6568854   6.6211348
  85.7666855   1.8708254   7.1661501  85.1077271   2.4391944   5.9277191
  74.2905579  47.0739326   0.6100126  74.8230667  46.5356140   0.0244484
  73.5174561  47.2983551   0.0921622  80.7040863  46.8462372   0.5144377
  81.2732620  47.1918068   1.2020793  81.2986755  46.3932381  -0.0834646
  57.8191566  43.2581139   4.6956854  58.2159157  43.1042709   3.8382783
  57.8261185  42.4002380   5.1202202  44.2504272   6.5675721   4.7990127
  43.8634148   6.1656928   5.5767956  43.5071869   6.9481969   4.3310947
  79.6237640  65.7073669  50.9338036  80.2414398  65.0021744  50.7403946
  79.2661972  65.9532776  50.0806274  76.0087738  63.6213608  47.2045250
  76.7930832  63.3467903  46.7294502  76.0962372  64.5713654  47.2824440
  21.8229828  47.3959961  31.6255226  21.0876083  47.0524139  31.1181717
  22.4439831  46.6689224  31.6696835  14.2598562  25.1635609  59.5743217
  14.6692019  24.3038158  59.6718254  14.1542501  25.2727604  58.6292534
  24.3857555  12.5621595  73.7778549  23.6392307  12.5968304  73.1797562
  25.1364594  12.8109074  73.2386017  41.1533279  11.5512028   3.5725889
  41.2218628  12.1947632   2.8673477  41.5813293  11.9685888   4.3201432
  71.7976685   0.3150752  31.9144993  71.5683899   1.1353098  32.3513947
  72.3404083  -0.1513315  32.5502129  78.7610245  14.2519474  46.1805611
  77.8389206  14.4727421  46.3117332  78.7747421  13.2957611  46.1387138
  18.3370075  57.3411865  23.2990341  18.0709248  57.8852882  22.5578270
  18.2188168  56.4425964  22.9911385   8.8357773  34.8812408  80.9526291
   8.6558666  34.3927116  81.7558746   8.5597124  34.2945023  80.2485275
  53.8022194  65.0400238  65.1448059  52.9846420  64.5422516  65.1394882
  54.1552048  64.9302521  64.2618637  82.4240494  19.8625088  63.2361526
  81.7699280  20.0374813  63.9127197  81.9196854  19.5199013  62.4982719
  40.8009949  19.8828049  12.8181744  40.9914398  19.9161129  13.7556467
  39.8693390  20.0932999  12.7554064  73.8298416  40.9961624  69.7956314
  73.0488205  40.5060120  70.0525131  74.2059937  41.2978630  70.6225052
  71.9431076  20.6767616   4.0730820  72.2438812  21.1219635   3.2808940
  72.1608124  19.7560539   3.9277132  13.6549072  44.4045525  58.7851448
  12.9446335  43.9553413  58.3269386  13.2189274  45.0954132  59.2840118
  20.7395573  11.6714230  65.3171997  19.9218655  12.1684170  65.2925339
  20.7107906  11.1238585  64.5326080   1.3807495  27.0869007  63.7528763
   0.7679857  27.3235149  63.0566254   1.1826482  27.6965904  64.4636993
  18.3303051  40.5162048  71.9273834  18.8974552  40.1595306  71.2437515
  17.4621582  40.1679688  71.7242050   6.4829636  26.9459572  62.7871666
   6.8821683  26.7372284  61.9425964   7.1446953  27.4662762  63.2428093
  37.4295807  42.1216507   0.9817851  38.3282318  42.4120216   0.8257567
  37.3846359  41.2546196   0.5787126  20.4623642  20.2926292  65.6077728
  20.5172596  20.8174992  66.4063492  21.1620235  19.6456375  65.6978302
  56.6196213  53.0203629  46.8675423  56.8407860  52.1269379  47.1304207
  55.7491188  52.9463921  46.4764023  32.0971680  63.5561409  43.6660652
  31.3700981  62.9906769  43.9265518  32.3936157  63.1954727  42.8304405
  56.4413986   6.5503774  68.9216690  56.6409569   7.0751357  68.1464005
  56.8421593   7.0310817  69.6459198  10.1458702  40.4818306   3.8515172
   9.5501423  40.9977608   4.3947992   9.7639418  39.6041603   3.8442123
  71.8128204  38.4811440  63.6506577  72.2753983  37.9784470  62.9801712
  72.0416107  38.0497017  64.4739075   9.6521130  48.6431694  70.6432037
  10.4879313  48.3956184  71.0386276   9.6281710  49.5976257  70.7115479
  37.3964691   5.4050493  72.6358871  36.8776283   4.8659487  72.0388870
  37.7786827   6.0815325  72.0768585   6.5908594  18.5567360  53.4204865
   6.4170928  19.0392151  54.2287254   5.8983665  17.8970509  53.3817482
  82.2149963  36.2061501  78.6979294  82.2659988  35.2538605  78.6156006
  81.9833145  36.3552361  79.6146240  10.0895796  49.3276978   8.4129915
   9.6753902  50.1556969   8.1698980   9.3587923  48.7230263   8.5416546
  42.9979362  49.6073418   9.8817635  42.4600525  50.1108971  10.4927855
  42.7765656  49.9609566   9.0202627  47.2172661  69.5201569  30.1167145
  47.6792603  68.8290634  30.5912533  47.3678780  69.3184509  29.1932087
  23.7756557  41.6559296  12.6802835  23.0827560  41.4918137  12.0406055
  23.3278904  41.6460457  13.5262394  75.2229156  10.3650599  54.9400253
  75.5833969   9.7035704  54.3494987  74.3036804  10.1188021  55.0429688
  51.7782135   8.1719551  37.0498543  52.4646683   8.6528931  36.5875664
  51.3035698   8.8435450  37.5396614   1.9672793  39.9552231  69.9382019
   1.3247665  39.5432320  70.5158463   2.6205318  40.3253593  70.5319138
  53.2668991  13.0684919  35.0835457  53.0938034  13.9136753  34.6688957
  52.4024467  12.6703930  35.1858711  48.2941704  45.3086967  28.2330284
  48.9853210  45.2616425  27.5724754  47.5914078  45.8017693  27.8096619
  55.9054642  57.3431282  26.2087383  56.7808876  57.7301369  26.1989632
  55.5040092  57.6790848  27.0101109  61.4051361  26.9954414  58.4370842
  61.6930161  26.1176586  58.6877861  61.0770988  26.8938541  57.5436058
  19.7158699  49.2368088  45.5388794  19.4763489  48.3100624  45.5379982
  19.0498295  49.6568489  44.9946518  57.2961349  16.9622841   5.3555427
  58.0347900  16.5196171   4.9376173  57.0992661  16.4263515   6.1238213
  26.3742218  49.8067169   6.6761327  26.3061295  49.9835625   7.6143870
  25.6697102  50.3222084   6.2834949   2.4441292  23.8554764  86.1275024
   2.8850677  24.1173172  86.9357376   2.9348910  23.0919704  85.8234634
  52.6306839  11.1715002  86.2555923  51.8693733  10.7233772  85.8870544
  53.3533936  10.9326382  85.6751938  64.0372849  39.3912849  85.4809265
  63.3483505  39.2289543  86.1253281  64.5591660  40.0979195  85.8611069
   5.6632910  70.3829269  65.6798782   5.7689829  70.3979950  66.6311111
   6.4772153  70.7570038  65.3424988  62.2124901  40.4515419  87.1442566
  61.5577087  41.0837593  86.8479614  62.6888924  40.9074860  87.8380814
  66.0911102  69.0591888   7.8939714  66.5775681  69.3226318   8.6751146
  65.5020447  68.3695297   8.1999140  14.8359690  10.9833469  70.5186691
  14.3228168  11.7482500  70.7791138  14.6040306  10.8404589  69.6010590
  29.9852505  45.1624451  49.4035873  30.2097721  45.3003922  50.3238029
  30.8167152  44.9395561  48.9849930  76.0306473  22.5221386  83.0374832
  75.7822800  22.0340004  82.2524567  76.1575394  21.8501472  83.7072296
   5.4544563   7.8510289  26.0444813   5.7678223   7.7404613  25.1468124
   4.9431672   7.0608048  26.2187252  77.4222412  62.8548164  17.8684101
  77.7651062  63.5988617  18.3634567  77.7929611  62.0867271  18.3029613
  37.7208099  14.0042620  77.5112228  37.9527550  13.3265610  78.1461639
  36.9695740  14.4510355  77.9014359  40.1570587  52.2054672  56.7702370
  39.4346733  51.7074890  56.3876038  40.7221146  51.5419769  57.1661148
  17.0033703  28.3103924  59.4295082  16.3449230  27.7644176  59.8591461
  17.3690529  28.8443031  60.1348076  22.3439980  58.0575752   6.3713822
  21.8618450  57.7910156   5.5886264  21.6834736  58.4631691   6.9330158
  81.8864212  53.8297539  72.5010757  81.6410599  53.5085678  73.3687592
  82.2438889  54.7031403  72.6612320  53.0145340  43.4056320  47.7020187
  52.8034210  42.9664040  46.8781624  53.9317856  43.6626968  47.6081963
  47.9986343  55.9639168   1.7066832  48.9112968  56.0954933   1.9635212
  48.0067444  55.1507187   1.2018279  -0.1967109  38.1621933  42.1648445
   0.3685536  37.7295189  42.8047676   0.2548406  38.9813461  41.9615707
  50.7185364  46.4335365  77.2614975  50.3132668  45.7166100  76.7736435
  51.6172905  46.4681435  76.9339752  79.3001404  29.1378269  73.3545685
  78.9443512  30.0079041  73.5351486  79.7223511  29.2243652  72.4998856
  28.1068096  42.8391304  74.8390732  28.1567726  43.1707497  73.9425430
  27.6853065  43.5432777  75.3317642  24.1149540  32.8039780  87.5876999
  24.9654827  32.9999809  87.1947403  24.1635113  31.8748913  87.8127975
  60.5359459  17.2360497  77.0278625  60.5447006  16.4171238  76.5323639
  59.6349716  17.3170300  77.3407822  51.9480591  48.0963402  30.2732620
  51.4866829  48.1791344  29.4386921  52.2574310  47.1906166  30.2870846
  30.7867165   0.7758395  73.7773590  30.0449390   0.2239731  73.5294800
  30.8221169   0.7149177  74.7319565  79.9145813  40.3245964  20.7960224
  79.7231445  39.8456268  21.6023540  80.7580872  39.9774895  20.5057697
  26.9156208  44.6899490  56.2635574  27.7317219  45.1901436  56.2680130
  27.1605988  43.8350563  55.9094772  62.4045677  69.2799683  43.0306358
  62.1912079  70.2014160  42.8835068  62.3511353  68.8801880  42.1625633
  42.9775963  15.4523964  85.6290054  43.4925728  14.6977196  85.3435364
  42.0741577  15.2214289  85.4129333  63.7481537  39.5811958   5.8431330
  62.8703995  39.8264809   5.5505347  63.7778969  38.6300240   5.7400742
  37.2697678   7.7459974  70.8836212  37.6356812   8.5376701  71.2780685
  36.3333588   7.7931919  71.0763474  48.5188026  39.7015190  50.7060280
  47.7207260  39.3588104  51.1083450  49.2294693  39.3241501  51.2244682
  60.2172127  30.2059975  18.3512516  60.4313850  29.2820282  18.4802589
  60.1689720  30.3102608  17.4009705  26.4962997  38.6050949  80.0666122
  26.5022602  39.3693619  80.6428909  27.0507336  38.8575096  79.3282928
  74.0506821   0.4949903  50.4403954  74.8977280   0.1036350  50.6538925
  73.4797363   0.2405097  51.1653023  70.4973755  27.7503681  87.0987091
  69.7180328  28.2901840  86.9666138  70.1545105  26.8884106  87.3347168
  79.3757935  28.8978691   5.2085285  79.7670593  29.7078323   5.5357962
  79.5815887  28.8931160   4.2737255  78.4609222  68.2219849  82.5533600
  77.7287216  68.0116043  83.1328888  78.0995712  68.1385498  81.6709213
  51.3864899  22.1284924  87.8554153  51.2901268  21.1946774  88.0423279
  50.4904060  22.4649563  87.8478394  83.1043167   0.0666044  13.4892340
  82.7258224   0.4365968  12.6916904  82.3719482  -0.3746071  13.9195776
   1.0717506  16.5931740  53.5613213   1.7346702  17.1640053  53.9498100
   1.3249818  15.7114658  53.8346252  64.3763275  42.2650185  65.4012299
  63.6380844  42.1886177  66.0057068  65.0479889  42.7291565  65.9009171
   1.4830230  42.5966187  59.2132263   0.7425647  41.9916000  59.1695938
   1.4100853  43.0025177  60.0770302  23.6333199  64.1026764  21.7103329
  24.0587120  64.6268539  21.0317211  24.3409691  63.8684235  22.3108234
  67.5235443  43.7661972  86.7813187  67.8223419  44.6746521  86.8220825
  67.9191208  43.3493729  87.5468292  36.6644173  66.7264557  63.7829132
  37.3655281  67.1077118  64.3114166  35.9251022  67.3231659  63.8994255
  82.6531601  71.4445038   1.0017072  81.8753204  71.7694702   0.5482880
  83.0609360  70.8441925   0.3775449  19.6714725  11.6267366  71.1194916
  18.8106880  11.2199478  71.2185135  19.5909748  12.4694185  71.5663071
  78.1922684  11.8444252  24.1797352  77.7518845  11.4723825  23.4156132
  78.7900085  12.4981422  23.8169861  57.4938316  67.0614929  20.9016113
  57.4545021  66.4682388  20.1514530  58.4263535  67.1252060  21.1079502
  34.9195595  64.6673279  70.7387924  34.7404099  63.7270584  70.7444305
  34.5350876  64.9892883  71.5541153  78.8614502  68.3107147  44.1801186
  77.9127350  68.2511749  44.2925034  78.9769058  68.8659821  43.4090271
  58.8889122  49.3522148  87.7628403  59.7013779  49.2022934  87.2794571
  59.0782204  49.0467949  88.6500397  68.4594574  29.2216682  35.1818428
  67.5284500  29.1171303  34.9855614  68.4880142  29.9071522  35.8493195
  58.4541969  18.3833122  63.7594376  58.1579323  17.6389256  64.2832184
  57.6471977  18.8127003  63.4755135  51.4880333  46.3600426  67.2838745
  50.7353973  45.8202438  67.5254974  52.2464027  45.7972527  67.4400024
   6.8416862  56.3911629  84.4936676   6.8070517  55.7662544  83.7694321
   7.2780161  55.9150429  85.2001801  79.4398956  35.5420265   3.2617579
  79.0328293  36.0804672   2.5830750  79.8515091  34.8230629   2.7822814
  62.0236664  59.5675049  87.3137283  62.7674789  60.1625938  87.4078064
  61.8889465  59.2117805  88.1921082   4.5727496  30.9086666  38.8800240
   3.8426960  30.4070606  39.2428551   5.3522720  30.4140034  39.1327782
  68.7318192  37.4307404  25.6545334  68.0596771  37.9409409  25.2027016
  69.0635757  36.8286057  24.9884968  48.1093445  46.1206703  15.3393965
  47.4573250  45.4390869  15.5023403  48.9470406  45.6576004  15.3474522
   0.6098007  64.8951492  19.3986397  -0.0371213  65.0641251  18.7136784
   1.1690321  64.2082825  19.0357285  56.4080811  69.2170410  76.3159180
  57.2981033  69.2401657  75.9644012  56.2316818  70.1197739  76.5808640
  12.7188826  20.8882580  64.2771988  13.4233074  21.5172348  64.4334183
  13.1653681  20.0465946  64.1850891  34.0933647  48.8843651  82.9534836
  34.6705246  48.1321144  83.0848007  34.3853073  49.5261345  83.6008911
  78.9396820  55.9490623   8.7150736  79.0014191  54.9940338   8.7335052
  78.8238220  56.1637650   7.7894869  40.6723557  23.0333786  77.9036102
  41.5881310  22.7930279  78.0444107  40.7047348  23.9498081  77.6291275
  76.9170074  15.2060184  64.3185959  77.2672653  15.9174700  64.8546829
  76.8782120  14.4558430  64.9118576   7.5407248  71.4173584   6.8103881
   7.0581117  71.0096893   6.0912738   6.9363117  72.0692596   7.1652703
  62.9595757  16.4039898  70.5217438  63.1862717  15.6755390  71.0998459
  62.6955376  15.9860573  69.7020874  83.7754059  14.2227783   8.5819216
  83.5660477  14.1065044   7.6551638  84.4577103  13.5745335   8.7564945
  52.9491768  47.7837982  55.5665665  53.4021988  47.3914223  54.8202133
  52.0375557  47.5105438  55.4640617  56.2749405  68.3298569  36.8300629
  55.4902191  67.9258881  37.2005348  56.0910034  69.2690887  36.8457680
  24.3046436  38.1945000  16.2860508  25.1924591  38.4021988  15.9947186
  24.4282608  37.5986023  17.0248718  37.4397697  20.3251896  43.6343155
  37.2816010  19.4008503  43.8261795  36.5916862  20.6571922  43.3397560
  41.6505966  45.5538979  48.2976265  41.1544342  46.3721161  48.2736435
  42.4077225  45.7490044  48.8498268  67.5834274  26.3117580  24.4850540
  67.5418930  26.8047714  25.3044701  68.5108643  26.0994854  24.3799973
  13.7765751  15.5411606  22.1212826  12.9167671  15.1647034  21.9335556
  14.3864298  14.8114195  22.0127144  -0.0464023   1.9598180  27.4381275
   0.4542012   2.2826524  28.1873970   0.5549353   2.0364783  26.6973515
  34.2150993  31.0132084  77.6922760  33.6865196  30.2440548  77.4795914
  35.1061897  30.7677078  77.4434433  50.5634613   1.3850415  76.1457520
  50.9062347   0.4913286  76.1494904  51.0293655   1.8232385  76.8578949
  33.8602753  52.1699829  48.3349419  34.4831581  52.8452225  48.6038284
  33.3844833  51.9503822  49.1359634  44.9185066  39.3080597  26.4421291
  44.2471085  38.7517014  26.0472565  45.6999130  39.1539917  25.9111824
  15.3852224  17.1603699  20.2700291  14.6520233  16.6403255  20.5989742
  16.1059837  16.5354042  20.1915722   1.0740627  69.9302063  34.0666962
   1.5635738  70.5671539  33.5462074   0.2440743  70.3660889  34.2599831
  48.5918694  30.6730633  30.9227047  49.0250702  31.3719902  30.4327354
  49.2826729  30.0306664  31.0850220  17.1676331  67.6345062  33.5267334
  17.2757359  68.0489120  32.6706886  17.8577251  68.0185242  34.0675964
  70.2640686  34.0005836  11.4239807  70.9620895  34.2979355  10.8403902
  70.3325577  34.5711746  12.1894674  14.6261606  53.2070198  71.3106003
  14.2534056  53.7515297  70.6172104  15.3737411  53.7097130  71.6341095
  40.7460632   7.9455647  84.4164047  41.5139236   8.4561214  84.6732254
  40.5277443   7.4332571  85.1949387   6.2777081  50.0414276  67.9860992
   5.5671883  49.4207993  68.1480103   5.9695110  50.8632812  68.3679428
  15.5674725  19.6449490  72.1692123  16.1714058  19.1648521  71.6026382
  16.1336613  20.1907902  72.7148514  59.0644722  43.8962975  59.7588081
  58.1660881  43.7795410  60.0678520  58.9971542  44.5594177  59.0718040
  81.0779190  26.9090137  19.0026932  81.6072845  26.4509392  19.6555099
  81.1554794  26.3736877  18.2129822  30.1304188  63.3177948  50.9305115
  30.4124222  64.2167282  50.7613220  29.2787437  63.2487411  50.4991035
  42.3481407  54.1367149  31.7223778  43.0359879  54.8020401  31.7015457
  42.5749817  53.5354004  31.0130138   1.7924448  24.9254990  83.5027542
   2.2137766  24.6727505  84.3242340   1.3973631  24.1166077  83.1774292
  19.9207554  38.7825775  70.2636261  20.5828152  38.5846024  70.9259796
  19.4305897  37.9665222  70.1635208  59.3883438  28.4204941  73.1865616
  59.1926079  27.7622375  72.5197678  60.2104034  28.1266689  73.5791397
  81.2543564  66.6430740  88.3607635  80.7879181  67.0367889  87.6234283
  80.5939865  66.5686111  89.0496750  69.2724457  46.6755333   3.0629478
  69.8299637  46.3520508   3.7705920  69.7496719  46.4561958   2.2627151
  74.0211945  11.6157141  62.0562439  73.7016907  10.7142258  62.0179176
  74.7587967  11.5827093  62.6654053  79.0575943   4.2061348  80.3934097
  79.6715164   4.6281843  79.7924042  79.2194443   4.6286597  81.2369232
  56.3734703  51.0246658  11.2703943  56.1783142  50.5364914  12.0702877
  57.0611763  50.5158195  10.8410158  23.2199917  56.2891159  55.4302979
  23.2157936  55.5586777  54.8116913  23.0094223  55.8894844  56.2742119
  43.9430962  53.9628716  23.0935669  43.4455261  54.2619133  22.3324966
  43.7583427  54.6132507  23.7711391  78.6202621  55.2802811  71.4485321
  79.2848206  55.6023560  72.0575180  78.3379288  56.0587654  70.9684448
  40.2518349  14.4263325  19.3381157  39.4105797  14.8390236  19.5335884
  40.6002731  14.1758213  20.1937256  56.4092140   9.0374641  13.1043472
  55.5079689   9.3537226  13.1673536  56.5635529   8.5869560  13.9346800
  19.6907063  51.9798241  78.3932800  19.3328152  51.5583572  79.1746292
  20.0690975  51.2617798  77.8858643  50.3856277  53.9443512  27.5756969
  50.9957581  54.4614029  27.0497379  50.8534431  53.1280289  27.7517719
  13.0454369  18.4480457   1.1216549  12.6218901  18.6779671   0.2946260
  13.3394489  19.2851009   1.4809992  68.0825729  60.3479233  81.8864059
  67.4350891  61.0486450  81.8090439  68.2757645  60.0994530  80.9824295
   2.8467712  23.1527309  73.7425079   3.7961016  23.0733261  73.6492386
   2.5731797  22.3192291  74.1254578  24.4336224  59.9622307  78.8212891
  24.9668407  60.6020889  78.3496017  25.0502682  59.2739182  79.0707016
  19.2695465  13.5833969  89.3197784  18.5318298  14.1551971  89.5320282
  19.0860882  13.2751789  88.4323273  78.5291672  66.1052856  80.2409286
  77.6394730  66.1451721  80.5917587  78.6077576  66.8893967  79.6975861
  71.9822845  41.4383049  45.7240982  71.1267395  41.3419304  46.1424141
  71.7849960  41.5176125  44.7908173  38.0620880  38.9532547   7.5065684
  37.8686523  38.0431290   7.2818828  37.3392754  39.2183685   8.0753307
  63.8349037  33.0024452  46.5036736  64.5909195  32.4159317  46.5295715
  63.2193413  32.5736275  45.9091721  71.8897095  42.7991447  76.8254013
  72.1342697  41.8746490  76.7837296  71.8171616  43.0692024  75.9099579
  55.2177086  23.7980671  88.8720169  54.5512848  23.7385635  88.1874924
  55.3628159  22.8919964  89.1444321  34.1204720  34.7968025  63.1697426
  34.9796104  34.9377670  62.7719498  34.1327515  35.3329735  63.9625893
  60.7587242  43.3917732   6.3242087  60.6862450  42.5296745   5.9146109
  61.6505318  43.4179916   6.6709366  85.5305405  53.7391968  72.6231155
  85.2247391  53.0053978  72.0899582  85.0830231  54.5028687  72.2587433
  71.2986069  11.0358906  58.4072914  70.4789200  11.4818316  58.6205559
  71.8740234  11.7315702  58.0892448  65.6132812  24.5179405  25.1476173
  66.2712708  25.1205158  24.8009377  65.7908630  23.6884441  24.7041855
  75.6499634  44.8327255  86.9597778  75.2127075  44.2453423  86.3433228
  76.0960693  44.2479935  87.5724106  75.1387711  56.6265755  14.8800707
  75.8866043  57.2119141  14.7602348  74.5169754  57.1357574  15.4000158
  15.8932171  49.2687073  51.5039558  15.6979771  49.3906288  50.5748444
  15.4745588  50.0130119  51.9363518  84.3283920   0.6414348  59.4033585
  83.5070724   0.2068019  59.6330528  84.9093552  -0.0705398  59.1354027
  81.0843658  43.9980049  60.1508560  81.7183151  44.7066269  60.2612686
  81.5180359  43.2289047  60.5205154   4.7880526  68.9435654   1.8323175
   4.8990078  69.8790665   1.6627380   5.3830142  68.7597122   2.5592620
  10.9829302   3.8698506   7.7374177  10.8537951   4.8131733   7.8358965
  11.2047873   3.5653255   8.6173468  77.5708771  42.8682556  29.5617256
  76.8245773  42.5398598  30.0631485  78.1100616  43.3259163  30.2067490
  80.5925903  54.8809509  23.8950081  81.3288803  55.1211967  24.4574986
  79.9822922  55.6142082  23.9731102  55.6403313  48.3583412  70.5018997
  56.1963005  47.5812035  70.5583420  54.8888397  48.1562042  71.0592499
  80.0912323  41.6591415   5.8724818  80.8833847  41.7837296   5.3497844
  79.9482956  42.5054665   6.2961969  32.3550034  32.8744049   7.1808114
  31.9211121  32.4162102   6.4610696  33.1319313  33.2659760   6.7817020
  69.8050461  31.2706509  10.6600628  69.0259857  31.2325859  10.1052246
  69.8893127  32.1956215  10.8914890  85.6530304  20.1163960  15.7670031
  85.3053741  19.4964619  15.1258726  85.3637314  20.9731216  15.4530668
  20.2862930  60.2150764  39.7391777  19.8158703  60.8311119  40.3008118
  20.4236584  59.4449387  40.2907639  44.3167152   3.9806054  28.5389080
  43.4943619   3.4955564  28.4703941  44.0514336   4.9000740  28.5597610
  83.1856155  70.6307755   6.5243030  82.8694000  70.4659500   7.4126000
  82.9752426  69.8306580   6.0428576  66.0336761   7.1855674  15.5669374
  66.9223785   6.8733888  15.7371731  65.4705048   6.5787120  16.0473518
  54.4440689   7.0907669  85.4041901  53.8852844   6.4064574  85.0357971
  54.8443451   6.6849651  86.1731720   5.9826651  36.5030327   2.5887003
   6.1488690  36.0419540   3.4109013   5.1056867  36.2208328   2.3288858
  13.9804420  71.1736145  75.9627762  13.6427774  70.7892380  76.7717667
  14.3839741  71.9965363  76.2388153  66.6269913  50.0027313  72.7913742
  67.2063828  50.3680916  72.1227570  65.8533096  50.5659828  72.7716064
  85.8800507  43.1796989  50.5099373  86.1162415  42.8697739  49.6356430
  85.1917038  42.5804749  50.7986183  47.4665947  19.2521172  78.9604034
  47.5152092  20.0601120  79.4712982  46.5309181  19.1225147  78.8056641
  80.3905869  41.8357277  68.5031586  80.1489105  42.2195854  67.6602631
  80.8971176  42.5195770  68.9413452  75.1024551  58.6528740  40.5647202
  75.0307541  59.3218422  39.8838577  74.8468781  59.1025238  41.3701553
  36.7468376  46.9927826  22.9230728  37.2372780  46.2158470  23.1915245
  36.6562271  47.5077095  23.7248669  57.1440010  56.6694946  43.7078781
  57.5163078  56.5895958  42.8296776  57.7180710  56.1391907  44.2605591
   1.4893368  48.3368683  79.0324173   0.7881467  48.9828911  79.1173782
   1.3693290  47.7532082  79.7815323  44.5125732  64.2769928  45.0588913
  43.9531212  65.0185623  44.8279762  44.8349571  63.9495773  44.2191887
  50.6673927  11.8797655  74.2908478  51.1899147  12.5914946  73.9212036
  50.2516060  11.4691544  73.5327225  83.2860107   1.4893007  40.5026245
  83.0218658   1.6240375  39.5925102  84.0511093   0.9167371  40.4477119
  70.9071121   9.4864759  29.5597439  71.6649094   9.1782265  30.0566978
  70.1852341   9.4685678  30.1880798  13.7654066  43.6995430  47.4403954
  14.1221590  44.1467133  48.2078590  13.6125851  44.3990555  46.8051300
  19.2118206   2.8705931  58.2102280  19.7974548   2.1160314  58.2726784
  18.4405479   2.6178188  58.7176514  42.9133568  36.2965851  12.2289686
  43.4061890  37.0176277  11.8372450  42.1444511  36.7147102  12.6165047
  21.0461082  57.9667320  77.1845627  21.8807354  57.9833298  76.7162094
  21.2897320  58.0034180  78.1095123  38.6003876  33.5404358   9.2827597
  38.0632019  33.6692734  10.0644655  38.8583298  32.6193390   9.3185434
  72.9922180   1.2171588  36.9162674  73.7917175   1.6028154  37.2744484
  73.0441895   1.3883007  35.9759254  38.6096649  26.2490406  50.5378571
  38.5767975  26.9162560  51.2234077  38.4925385  25.4210644  51.0036583
  21.4171352  64.1671295  17.3676052  21.8747730  65.0022736  17.2709465
  21.6105251  63.8903046  18.2632618  39.0983696  38.2367668  21.9337139
  38.5478516  37.8970871  21.2281799  38.4901924  38.4000092  22.6546192
  29.7067719  10.4842215  78.6600189  28.9917183  10.4600048  78.0241394
  30.5011215  10.5071468  78.1264343  12.8522072  69.7935715  83.4441528
  12.1080904  70.2306671  83.8582458  12.9892473  69.0050049  83.9691467
  83.7474442  43.1309700  65.0110321  83.6158600  43.6095772  65.8294754
  84.0005035  42.2499733  65.2867813  84.7945709  58.5441284  21.7339115
  85.3968887  58.6061935  20.9925671  83.9922104  58.1792107  21.3607159
  73.1654053  58.1658974  15.8956661  73.1708679  58.9067764  16.5017204
  72.8372726  58.5310593  15.0739470  58.4077568  24.4342327   0.9312306
  57.9519424  25.1052303   0.4230711  57.9391289  23.6236286   0.7323841
  55.3899727  53.3542976  43.1677856  54.8452873  52.6788979  42.7635765
  55.0296288  54.1791687  42.8422585  42.5280838   1.3605078  45.5757751
  42.7861710   0.4391161  45.5500870  43.0629692   1.7397094  46.2731514
  73.7644577  39.2948494  28.9648666  72.9854355  38.7407570  28.9165802
  73.4644852  40.1557732  28.6732216  32.0457726  50.9124527   8.7012224
  32.6569176  50.7053566   9.4082212  32.3406334  50.3764114   7.9650502
  53.0874634  58.2447166  77.7837067  52.5127945  57.5487862  77.4648514
  53.9104271  57.8007965  77.9883957  59.2235489  64.4216919  51.0526428
  58.8759346  64.8773422  51.8193092  59.3453903  65.1106339  50.3993912
  31.3213215  43.1245461  42.1244965  30.6274567  42.5416756  42.4327850
  31.9374180  42.5464668  41.6745186  16.1537304  29.5978966  80.6336441
  15.5545626  29.1864700  80.0107803  16.3837967  30.4339027  80.2281876
  72.1560822  16.6584282  71.5701752  72.9690552  17.1218414  71.3687820
  72.2320557  16.4333935  72.4974365  46.7200584  48.3012123   0.8614110
  47.3796501  48.5636902   0.2193234  46.0448532  47.8611870   0.3449753
  33.2659340  67.6128235  50.4519043  32.4380226  67.2308731  50.1605148
  33.1954422  68.5397949  50.2238846   5.9505529  57.0929909  88.6077576
   5.5580192  57.9410133  88.8151321   5.3109212  56.4511452  88.9161987
  78.3721848   2.8980138  76.0584106  78.8100433   2.1622946  76.4864578
  78.8144150   2.9812863  75.2135773  21.8799381  59.3488045  14.0711727
  21.0874653  59.8697319  14.2009916  22.2045727  59.6167946  13.2115068
  82.9295654  39.6131973  52.2458382  83.3513336  39.0487633  52.8937225
  81.9988251  39.5770760  52.4664154  65.3458099  39.1197357  20.5844841
  66.0528870  38.9664993  19.9577522  65.6608047  38.7312927  21.4006443
  81.5556488  70.1164627  27.8835430  82.2082062  70.5203400  27.3114548
  82.0689926  69.6035614  28.5077534  60.9906502  24.3529205  31.0805798
  60.1379318  23.9257202  30.9993286  61.5127563  23.9827976  30.3687897
  66.0335922  13.2824364  17.0490303  66.7997284  13.8520985  16.9800358
  66.3287582  12.5482550  17.5876293  64.3448792  27.1657124  84.8954773
  65.1313400  27.1921673  85.4404678  63.8111267  27.8955383  85.2096252
  41.8085594  65.4614182  36.5838585  41.9989281  65.8327103  37.4453278
  42.1699486  66.0955353  35.9645653  38.8740921  54.5017586  13.1164913
  38.8328705  54.7875786  14.0290918  39.7858963  54.6435623  12.8620491
  59.9424820  61.5488930  72.5762100  59.2669220  61.6283302  73.2496643
  60.7586708  61.7597427  73.0296555  68.2256317  23.1897259  42.0153618
  69.0709839  22.8097801  41.7760925  67.9788895  23.7209206  41.2582741
  13.1856918  34.9455452  56.2232819  13.0375023  35.5295868  56.9670334
  13.3527660  34.0904884  56.6197662  23.6939106  27.5194416  79.0792999
  23.3436661  28.3854542  79.2880630  23.2991657  27.2984085  78.2357635
  31.5926647  53.0955772  61.4890594  31.0920162  53.3835220  60.7257271
  32.0583725  52.3148232  61.1894379  60.7873688  52.8850441  63.2588005
  61.1706619  52.1760368  62.7424431  61.5381050  53.3191681  63.6639709
  19.6022606  20.3139362  13.2489910  20.2482796  19.6503067  13.4908314
  19.0910778  20.4523544  14.0463390   4.3484468  24.0897961  14.7193384
   3.6782372  24.4693584  15.2876558   5.1710520  24.4614582  15.0378046
  48.4833221  53.0787697  69.8195190  49.1681976  53.5616989  69.3569641
  48.8628273  52.8872948  70.6771545   4.6358924  64.2649078  47.9768944
   5.0097980  64.3636322  47.1012917   3.8597548  63.7202301  47.8458824
  16.4394341  68.6267700  19.0052814  17.2437553  69.0787201  18.7502422
  16.1385345  68.2017670  18.2021217  37.8712234  12.6006651  11.1425886
  37.6583405  13.4186039  10.6932688  37.5671730  11.9147310  10.5482159
  34.9668770  33.4827805  72.5725937  35.2942276  34.1653595  71.9868011
  34.1941643  33.8702774  72.9836807  64.5405579  57.3525963  66.6812515
  64.8622971  57.8367310  67.4417343  63.6043396  57.5495224  66.6504974
  71.6462326  54.8379135  64.3220520  71.3176193  54.4487534  63.5116234
  70.9050903  55.3365288  64.6660309  49.7498932  35.9133987  43.9630089
  49.2940331  35.1545525  43.5988922  49.7376328  36.5610313  43.2582779
  55.2463150   5.7086444  82.4008942  55.4473495   6.6207948  82.6101761
  56.0718842   5.2439528  82.5377426  72.5562897   9.3944216   5.6515479
  72.2192459  10.2746582   5.8183246  72.5099792   8.9553242   6.5008297
  54.2979317  51.3668251  71.6217575  53.7565727  51.2499619  70.8410492
  55.1858788  51.1592026  71.3307724  75.7760162  60.4271393  65.3588028
  75.1218643  60.9181671  65.8560104  76.5341263  60.3803787  65.9413071
  76.8894196   1.7810344  52.9391823  77.4439316   1.7421998  53.7184448
  76.8421783   0.8752031  52.6334572  70.9495850  68.2540588  37.9074402
  70.6006088  69.1425018  37.9789543  71.8715363  68.3763733  37.6809769
   7.3225737  40.8808403   0.3370580   6.9757619  40.3938332  -0.4104560
   6.5815201  41.4000397   0.6493088  31.4113731  44.8033600  27.0640297
  31.7282639  44.6165123  27.9477139  31.8890591  44.1915321  26.5039272
  24.0430012  16.1342659  88.4973450  23.6803665  17.0188103  88.4492722
  23.7518330  15.8018579  89.3464432  47.6681900  57.1651840   9.5805750
  47.1269951  56.4234085   9.8509645  47.1531525  57.9364166   9.8175802
  86.2085648  45.9281998  59.7193489  85.5202103  45.3435516  59.4021873
  86.7133636  46.1503983  58.9370232  60.3531380   0.2867257  20.2469463
  59.8883400  -0.5179088  20.4766350  59.7551422   0.7495620  19.6600800
   5.2324238  39.5246315  17.7341518   6.0712976  39.0667419  17.6806736
   4.7597523  39.2511826  16.9479980  72.0669479  19.6737728  41.8648071
  72.8522034  19.5317822  41.3361816  72.0618439  20.6151485  42.0380592
  15.1877098  26.7202301  86.6922760  16.0555344  26.3180389  86.7290726
  14.5847502  26.0090389  86.9087830   4.2849417  35.5594521  88.5545120
   3.5395858  36.1158371  88.7805862   4.4164653  35.0097122  89.3269882
  81.1402283  18.8844223  46.9072113  81.9787598  19.1777725  46.5507774
  81.1994247  19.0719280  47.8439980  33.7332230  60.6638451  58.7243690
  33.5377846  59.7359047  58.5941391  34.2994041  60.6833801  59.4959221
  18.6591988  62.5383072  84.2430878  19.4401093  62.0676804  83.9516754
  18.8746223  63.4621315  84.1151276  11.2849274  21.3214207  61.9071465
  11.7571306  21.3580551  62.7389603  10.4712496  21.7976875  62.0724640
  40.8260002  26.7216682  25.5484982  40.2466011  26.7217884  26.3104210
  40.8496056  27.6357441  25.2654076  43.2228165  45.6256828  14.3406382
  43.4145088  45.3047142  13.4594669  42.2668800  45.6398964  14.3876810
  30.4925346  66.5356445   2.9001179  30.8884029  67.0013351   2.1634679
  30.7675743  65.6261673   2.7841949  86.7984085  23.1941204  59.8814011
  85.9850464  22.9398518  60.3173180  87.1300507  22.3811913  59.5000992
  79.3679733  20.1634903  44.8089027  80.0961609  19.7411098  45.2645035
  78.8218079  20.5202332  45.5093765   4.9059958  67.7847977  82.9882355
   4.2076826  67.2684860  83.3907394   5.4970913  67.9933395  83.7116623
  76.3501968  19.0898075  51.9719620  77.0508957  19.3514633  51.3746490
  75.9104156  19.9091759  52.1988144  46.4955559  25.0204239  85.6175003
  46.5548477  24.1518955  86.0154648  45.6130180  25.0550671  85.2485123
  21.7828274  31.8714600  69.3226318  20.8698521  32.1566811  69.3595047
  21.7985363  31.2069912  68.6338196  68.6742172  39.5204353  54.2794189
  67.7966309  39.5101585  54.6614799  68.9045181  40.4483719  54.2333031
  49.8978424  10.6431150  46.2998085  50.5415459  10.7332468  47.0024834
  49.1829224  10.1423502  46.6926918  86.3200226  28.0518513   4.9479876
  86.1749649  28.6878090   5.6485233  85.4918747  27.5765743   4.8807149
  74.4564514  19.7838955  72.8850021  74.6696014  20.6364365  73.2644424
  73.5019455  19.7855396  72.8132935  74.5855331  66.1041336  86.6350784
  74.4020844  66.6436081  87.4041977  75.1134567  65.3797760  86.9709930
  65.6645050  10.0781860  55.7057571  65.7198639   9.2828636  55.1760139
  64.7306976  10.2874479  55.7267761  36.1901779  22.4172935  16.2170582
  36.7486839  22.8107357  16.8875122  36.5823288  21.5599346  16.0515652
   7.6969099  59.3309898  21.0154133   8.4524441  59.6122627  20.4993839
   7.7707014  59.8205986  21.8346043  64.9739838  10.3212795  39.2292519
  64.6963959   9.6407700  39.8425064  65.5807037   9.8769913  38.6370316
  60.7731056  56.0608025  20.8762894  60.4386787  56.6615601  20.2103481
  61.0281448  55.2786903  20.3869171  78.5707932  35.6980896  27.5114269
  78.5538330  36.5839157  27.1491318  79.3741379  35.3119431  27.1624775
  36.9183807  49.4408417  52.8849449  36.1416817  49.9832687  53.0218582
  36.5947075  48.6740379  52.4122047  64.9425201  18.3831577   6.1623631
  65.0267868  18.4588203   5.2118859  64.6205750  17.4929466   6.3041630
  76.7619705  52.1401978  63.5030861  77.3284836  52.1660385  64.2742004
  76.0423126  51.5610428  63.7538910  66.8097305  68.5623245  78.5317230
  66.9252014  69.4924164  78.3372269  67.2278366  68.1106262  77.7986603
  83.6544647  15.2155695  28.4523048  83.7263412  15.7434301  29.2475586
  82.8949966  15.5752115  27.9939442  53.1386681  56.8753967  68.6289673
  52.3583832  56.9416389  68.0785141  53.4360428  55.9726906  68.5152893
  11.9760084  55.7604179  48.6232796  11.5897455  55.0837555  49.1792984
  11.4527493  55.7395363  47.8220329  70.3227386  46.2124443  70.1719360
  70.6333008  46.9966660  69.7194138  70.9723434  46.0587082  70.8579483
  75.4594345  62.5011444   4.6656308  75.5925369  61.6409492   5.0638537
  75.0245285  62.3151283   3.8334746  62.7276649  33.0655212  88.8697281
  63.3594475  33.6799545  88.4961624  62.3375778  33.5398827  89.6039276
  20.4769459  68.9428177  66.1440048  20.7836838  68.3501740  66.8302383
  21.1455879  69.6264420  66.1014328  35.8734665  69.6707840  52.4172783
  36.3770370  69.1609497  51.7826729  35.0658073  69.1716003  52.5386810
  23.8760033  59.7385368   4.9626794  23.1019154  59.3521996   5.3722653
  23.7540283  60.6826286   5.0629258  79.7052765  66.0596695  65.4968796
  80.5128479  66.5633774  65.5985489  79.3655548  65.9694824  66.3872070
  81.1186523  54.6542130  38.4438095  80.7343140  55.4739113  38.7546349
  81.1956177  54.1127319  39.2293701  46.7183571  10.6816912  80.8989105
  46.8404198  10.9511633  79.9885712  46.1055031   9.9479465  80.8513794
  84.7908783  41.2456245  60.4583244  85.2765274  40.9018860  61.2081375
  84.5264282  40.4677200  59.9672394   4.8827167  45.4526024  78.9847260
   5.4648986  44.7736664  78.6436462   4.9265056  46.1542053  78.3350601
  29.6075287  61.0302010  84.9324951  29.7403297  61.7843285  85.5068512
  29.4833851  60.2928810  85.5301437  62.1377678   9.5083494  67.9747925
  63.0480003   9.6719990  67.7279510  62.1057625   9.6993675  68.9121933
  47.4234619  26.4964581  58.6935501  46.7453690  26.8084774  58.0943336
  48.2463341  26.7642574  58.2844124  46.4791756   5.6207833  65.8343353
  45.8456841   4.9682574  65.5357895  46.3332710   5.6818581  66.7783737
  37.0726166  46.2242241  55.0619545  37.4349022  45.5234642  55.6040955
  36.9750519  45.8302650  54.1950569  81.6314240  41.4318161  56.3695488
  81.0015640  41.1955719  55.6885910  82.0789032  40.6114540  56.5769310
   6.6499443   0.8109522  61.6580925   7.5402322   0.9571074  61.3383141
   6.3773117  -0.0069256  61.2421837  50.4787979  47.3087311  45.0036125
  51.4287415  47.3784828  44.9089088  50.3387146  47.2080612  45.9451408
  80.5774994  69.8932571  19.2524109  80.5348663  70.5711746  19.9268341
  81.1298065  70.2708435  18.5678501   2.3156083  21.6308975   5.5990276
   2.5029299  22.2062035   4.8572960   1.3880912  21.7756081   5.7861166
  60.3843956  26.3616714  12.5050049  59.5350380  26.1220970  12.8757200
  60.9721375  25.6571617  12.7778778  16.2579956  34.6205368  19.5837917
  16.7597294  33.9630737  20.0657024  15.5037127  34.1417618  19.2401867
  68.0625916  39.7743912   6.4437628  67.5797272  39.0776672   5.9991808
  67.7075958  40.5838776   6.0764170  32.5669823  29.9646568  13.9416838
  32.1754723  30.8243694  13.7872515  33.4852028  30.1512814  14.1373100
  62.5520897  23.6717033  28.9841537  63.3740005  24.1510563  28.8796730
  62.6882782  22.8551674  28.5035782  23.5325165  60.0691719  40.7926636
  23.0978146  59.8693619  39.9636002  23.2290993  60.9490509  41.0162239
  58.7050667  42.8479462  67.4818878  58.7636337  42.1554146  66.8237076
  59.4035721  43.4595222  67.2488785  30.1154041  30.1863022  77.7516937
  29.3768997  30.4187851  77.1888428  29.7868137  29.4692287  78.2939682
  77.3419952  25.0437889   9.4650831  77.3236160  24.0877018   9.5073891
  76.5550613  25.2769089   8.9725103  85.8285675  18.7858849  82.9760056
  85.2343063  18.2911205  82.4118271  85.4495010  18.7063999  83.8513489
  70.9326859  23.0537872  46.4070473  70.4876556  22.5769253  45.7064857
  71.1471252  23.9026871  46.0202484  71.2264481  38.7327919  75.1163177
  71.9491043  38.1900902  74.8009186  70.7567825  38.9907913  74.3231735
  18.6291122  71.4935532  81.1412048  18.7759056  71.5254669  82.0865479
  19.4401512  71.1308289  80.7849960  59.5283394  70.8737564  29.1448135
  59.3366394  71.6270828  29.7033710  58.7699890  70.8066406  28.5646095
  83.3747025  29.2278233   8.1897011  83.7515259  28.7437706   8.9244995
  82.8937607  28.5682354   7.6898251  44.4241295  68.8514862  53.7248497
  44.5278549  69.1534348  54.6272354  44.9730606  68.0692902  53.6694260
   6.5469275   8.0004053  70.2688293   5.8866677   7.5051589  70.7536163
   7.1582842   7.3363657  69.9501953  62.2566795  43.3012352  48.4310150
  62.8294640  43.0741844  47.6984863  61.3850327  43.3692207  48.0413513
  15.2176790   6.2963738  76.8823166  15.5277328   6.1892786  77.7815552
  16.0093040   6.4790940  76.3761749  54.4751930  34.0234070  31.2263432
  55.0627708  33.9458199  30.4747028  53.6920433  34.4473572  30.8753853
   8.2350225  59.7739754  71.7189713   8.3017769  60.3168716  70.9334564
   8.1601934  60.4013176  72.4380493  41.7234764  69.7854614  58.4059868
  41.1861954  69.3310928  57.7570534  41.2687035  69.6423492  59.2360077
  13.8106661  38.4372597  73.8755569  13.1949797  38.4798775  73.1438828
  14.4848757  39.0813179  73.6590805  15.3738708  48.8268623  56.0327950
  16.0219612  49.1711769  56.6473351  15.6581402  49.1511650  55.1782494
  65.2159729  46.8542099  31.4958305  65.0903091  45.9243011  31.6848068
  65.1760178  47.2801628  32.3521004  62.3681450  59.1162376   4.4248357
  62.8372612  58.3518715   4.7593527  62.6954269  59.2263374   3.5320888
  85.1476212  71.3480072  17.1387501  84.7650833  70.7080994  16.5384007
  85.6865692  71.9081421  16.5801697  41.7323608  66.0847168  67.5166321
  42.1559525  66.9061203  67.7658157  41.9373856  65.4828339  68.2321320
  70.6938019  25.3934269  20.8297558  71.1926498  24.8983288  20.1799393
  70.6498642  26.2805443  20.4729309   3.5983799  22.3419228  17.3593273
   3.8335984  23.1886292  17.7387924   4.2588534  21.7366142  17.6963844
  37.7360191  61.6023903  56.9123306  38.0607872  61.5745621  57.8123207
  36.8473396  61.9496613  56.9890175   2.6037457   8.9863796  35.8781166
   2.2497568   9.1547337  35.0048561   1.8977512   9.2349977  36.4747658
  16.6610336   2.8540509  18.3724937  17.6120529   2.7784545  18.2945137
  16.5081253   3.7826147  18.5474815  69.9364090  51.7004395  41.4799232
  70.7936096  51.8349266  41.8840942  69.6318207  52.5821381  41.2652931
   9.1316891  25.3799877  87.6422119   8.8572359  24.5006962  87.9024963
  10.0096178  25.2595654  87.2803116  57.6238480  64.7180862  13.1430750
  57.7544823  65.5066376  13.6697197  56.9489441  64.2265320  13.6111689
  80.8882904  53.7525520  75.0912094  80.2058868  54.4237556  75.0840149
  81.2717514  53.8102226  75.9663391  33.4030991  44.6667366  65.7076340
  33.8211937  44.6810646  64.8466873  33.7328568  45.4505424  66.1471100
   3.9872534  43.2562752  82.6638947   4.1485600  42.4878006  82.1164856
   4.7185469  43.2682495  83.2813873  60.3222275  36.6512794  16.1143990
  60.5230522  37.1652985  16.8965015  61.1463928  36.6226959  15.6284285
  74.1925583  42.2666206   4.6735640  74.1673508  41.7607193   3.8613706
  74.5983582  43.0973816   4.4257751  58.4705772  56.6655617  34.3968010
  58.1622200  56.1441193  35.1379089  57.9015465  56.4099007  33.6708031
  54.2475891  15.9363880  88.1033173  53.5052071  16.3624592  87.6748810
  54.0039368  15.0114784  88.1408157  63.5347443  39.9482193  54.6567764
  63.4866447  38.9941559  54.7174377  62.6581459  40.2480164  54.8974533
  56.9781837  50.2233963  46.9370613  57.5877228  49.4992943  46.7943192
  56.1120262  49.8172379  46.9048691   7.2353487  62.2263641  70.6389313
   6.7965946  63.0431023  70.4008865   8.0639725  62.2513275  70.1604004
  49.7143631   1.7549665  35.5218773  50.0100899   2.5653133  35.9367447
  50.5031281   1.2163171  35.4591408  50.0245323  56.6669693  10.9681149
  49.2733040  56.8280983  10.3972168  50.6815147  56.2731895  10.3940525
  14.6408300  61.4641113  27.6479931  14.4367571  61.6093063  26.7241402
  13.7897978  61.3185768  28.0612659  80.3222885  25.7180004  36.2188644
  80.4647827  26.2294121  35.4223785  79.4352188  25.9477634  36.4955330
  41.8659973  61.0332947  57.2611504  41.7716980  60.1027031  57.0578194
  42.2508049  61.0491943  58.1374512  86.8701630   4.8880258  17.2283421
  85.9625702   4.9855499  16.9402409  87.2801208   4.3505063  16.5506725
  83.3752670  56.0861435  35.8464012  82.6146011  56.1925011  35.2751617
  83.0830536  56.4122658  36.6975708  36.1335640  53.7714310  10.0814886
  35.8335190  52.9992905   9.6018991  35.6987228  53.7090950  10.9319344
   1.0292902  63.3737869  67.9368668   0.8892164  63.8333969  68.7647400
   1.4910268  64.0065689  67.3867645  56.1085052  30.4899139  57.3937378
  56.1646996  30.8243885  58.2888374  56.9869118  30.1591320  57.2060661
  39.1477127  66.2571030  54.3098602  39.2215919  66.7331619  55.1369858
  38.2194443  66.3134155  54.0831871  74.6248627  18.5398808  88.1529694
  75.3869476  18.8297691  87.6515503  73.9523163  18.3742962  87.4922943
   6.5764008  17.2533798  82.8424835   6.5045638  16.4456444  83.3510437
   6.7382627  16.9585762  81.9463120  83.2787781  30.2226505   4.3981614
  82.5816345  30.8362217   4.1663222  83.1296005  29.4655151   3.8318353
  38.6053734  35.4482498  36.1623573  38.9286804  34.7078934  36.6757545
  39.3578377  36.0352440  36.0884285  47.5096092  35.7837753  24.9361420
  46.6359787  35.3991089  24.8652248  47.6299934  36.2580414  24.1134567
  24.3272457  56.7622147  39.2200279  23.4010487  57.0036583  39.2101059
  24.3995552  56.0633430  38.5699654  13.4337120  29.5665588  11.1319914
  13.8099222  28.7735710  10.7500648  13.6606331  29.5161095  12.0605354
  14.6451464  36.9409599  66.2919235  15.0781212  37.1763802  65.4713440
  13.7407246  37.2329216  66.1778564  45.7414894  10.8525677  52.0732269
  45.7073212  10.6496048  51.1384163  45.3682518  10.0811243  52.4996109
  39.5734291  19.6802597  87.2510452  39.5531349  19.3744278  86.3442383
  40.2085266  19.1086159  87.6824493  53.1438065   3.7389033  29.2706223
  53.6954498   3.8116353  28.4917583  52.7477455   2.8700883  29.2033253
  34.9427376  22.6076736  75.5169220  34.5931740  21.9487991  74.9169922
  34.7733803  23.4426899  75.0806961  83.1840668  58.6515045  10.5805483
  83.6431351  59.2554970  11.1642227  82.3378906  59.0694618  10.4207888
  64.8671417  53.8373909   2.2145748  65.5462112  53.2053490   1.9787331
  64.7855835  53.7578583   3.1649718  68.1484070   6.8877983  54.1293755
  67.2361374   7.0465894  53.8869476  68.0992966   6.4865012  54.9970055
  34.5903282  49.9055519  73.3632584  35.5396576  50.0274315  73.3509521
  34.2632599  50.5042686  72.6918488  62.5739517  68.5658264  54.2612190
  61.9332390  69.2760849  54.2257843  63.4083939  68.9853210  54.0515480
  46.6651230  43.8443642   0.2269750  46.4061241  44.0617256   1.1224674
  47.5330162  44.2355232   0.1270287   9.2461090  54.2971344  40.6908760
   8.3584652  53.9392357  40.7060165   9.6875973  53.8132248  39.9929123
  46.2063599  43.3858452  36.2157402  45.3323784  43.7340546  36.0392799
  46.7399483  43.6959267  35.4840584  41.7524338   7.5308261   4.6489453
  41.2467499   6.8036089   5.0118141  41.1753082   7.9193497   3.9915183
  54.1560745  37.6359367  75.7868347  54.0190277  37.2393303  74.9265137
  53.3576622  37.4327583  76.2741699  82.0499344  28.1323185  11.0534735
  82.7511597  27.6953526  10.5701780  82.1755219  27.8548622  11.9609299
  69.2179871   4.6109877   2.6018920  68.3332825   4.6798277   2.2430270
  69.2043533   5.1669064   3.3809941  20.4831409  44.4891090  16.0350704
  20.2672348  43.5868301  15.7994623  19.6342964  44.9173317  16.1460838
  79.6179504   2.7195880  32.7008286  79.9060974   1.9552740  33.1998520
  80.0645676   2.6377494  31.8581715  63.5109634   3.7827625  38.2510414
  62.8049049   3.8590846  37.6092567  63.3868256   4.5318170  38.8339157
  29.0928574  45.0711479  30.9901199  29.5977631  45.1651840  31.7978706
  28.7899380  45.9573784  30.7924709  78.3930435  44.7536011  48.6757317
  78.4054871  44.5451202  47.7415962  78.4108276  45.7100945  48.7079239
  82.0424881  48.3844643  69.0798645  81.7348862  49.2635536  69.3008041
  82.1694183  47.9554138  69.9260559  71.1599426  62.0056953   1.3847030
  71.9736786  62.2069283   0.9225590  70.5330353  62.6510201   1.0579348
  74.8176041   5.6139994   0.4599183  74.7597656   6.4394636  -0.0212208
  74.2200699   5.7253914   1.1993592  37.5865479  28.7992096   5.2503438
  37.4469452  29.2786446   6.0669737  37.6397209  27.8815670   5.5174327
  59.0921669  12.8798637  73.9154129  59.5497017  12.4832497  73.1740723
  59.6378059  13.6267080  74.1618576  35.2456207  51.1184425  46.0790863
  36.1760712  51.2381973  46.2692184  34.8226738  51.1269073  46.9377365
  40.3862877  48.4104385  81.5774460  40.6064644  48.4875755  82.5057831
  40.8719444  47.6413994  81.2792053  73.0671463  56.4830055  20.4592857
  73.2788467  56.0077629  21.2627525  73.7567596  57.1423531  20.3822498
  52.6768837  62.7755241  37.5556526  52.4076843  61.8794327  37.3536949
  51.9169235  63.3110313  37.3277931  21.3593750  67.9194336   8.5727911
  20.6900349  67.3015671   8.8668289  20.8992252  68.7558899   8.5032835
  38.6137657  44.2458763  17.8412018  37.9100456  44.2403717  18.4900322
  39.2440910  44.8832321  18.1769123  69.9226685  11.4690790   7.9554944
  69.3072052  10.7596407   7.7707229  70.2669983  11.7169867   7.0974698
   9.1287384   0.2581378   9.5746870  10.0678692   0.0772990   9.5351725
   8.9027758   0.5457154   8.6901121  79.6636963  58.2313461  22.6526680
  78.8166351  58.3437538  23.0840416  80.0992355  59.0774384  22.7559643
  77.9716187  44.6543121  57.7260551  77.0648651  44.8986664  57.5407982
  78.1398163  43.9060326  57.1533279  64.6459198  10.0797157  75.5405884
  64.4494171   9.1525850  75.6749268  64.6803131  10.4476480  76.4235764
  13.7386351  40.5288429  75.8207550  13.1319284  40.2517166  75.1342087
  14.5800314  40.1520615  75.5632248  13.4035597  20.5481777   2.6453767
  12.7991199  21.2827072   2.5388362  14.1148310  20.8990898   3.1812737
  56.3605003  52.3592796  82.3825302  57.1527252  51.8379822  82.2526627
  56.6296272  53.0601273  82.9763489  82.7668152  36.1979866  28.2398262
  81.8955078  35.9375076  27.9411449  82.8439636  35.8170471  29.1145630
  38.5719337  14.9611616  60.9653091  38.0691605  14.2864399  61.4216003
  39.2462502  14.4765205  60.4892273  77.2168579  28.9903469  35.9597549
  76.4640961  28.4032478  35.8898430  77.6483841  28.7306194  36.7737312
  37.7957077  47.9407425  59.4071693  37.0939941  47.5729294  58.8700066
  38.5746918  47.8863640  58.8535843  55.2074623  66.7333527  75.7804031
  54.8634377  66.4387283  76.6236572  55.5045967  67.6287003  75.9425812
  41.5614395  20.9514103  70.9617615  41.0460739  21.7523403  71.0573654
  41.4175758  20.4749966  71.7794266  76.6592941   4.9884114  34.5185204
  75.9932938   4.7225308  33.8845024  76.4291687   4.5173664  35.3193893
  34.1574173  62.4045830  80.8267899  34.6018906  62.6222153  81.6461258
  34.7130432  62.7825890  80.1451569  44.3265266  21.6653957   3.0624716
  43.8875771  21.2867546   2.3007710  44.9389229  20.9872570   3.3476505
  39.4410324  36.8179817  44.4637222  40.3051071  37.2290192  44.4894295
  39.1395454  36.8371925  45.3719978  42.2359123  32.7765388  21.4440861
  42.6582680  32.4120369  22.2218933  41.3120842  32.8476791  21.6843147
  29.6153507  26.9526138  83.8392105  30.2912025  26.5951653  84.4151306
  30.0602512  27.0869141  83.0023956  72.3411102  56.2854538  10.3567924
  71.9935684  56.8862190   9.6976051  73.2742767  56.2208290  10.1536942
  47.0671844  51.0229912  23.9264755  47.2929764  51.4749298  24.7394962
  47.7856026  51.2312584  23.3292027  43.5279770  48.9980278  14.2673273
  43.6255035  48.5592346  13.4222364  44.1213264  48.5264511  14.8519468
  50.1034088  11.1900091  65.3083649  49.4959717  11.5739374  65.9407043
  50.9297981  11.1145611  65.7854538  10.7268534  50.7914810  44.2954636
  11.5356340  51.2708855  44.4751244  10.7966633  50.5406876  43.3743439
  33.1366577  41.7183723  84.3262558  32.7618523  41.6012650  83.4533081
  33.9062500  42.2696114  84.1845093  74.9467239  35.7975159   8.7368412
  74.5554199  35.4937134   9.5558786  74.2224274  35.7979164   8.1110392
  30.5252819   9.3011799   6.4351745  31.2680874   9.8331995   6.7205286
  30.8756390   8.4123077   6.3769670  70.3781128  27.8707161  45.0666122
  70.1363144  28.0342789  44.1550140  69.5654297  27.9970284  45.5563278
  53.6240425  30.8290977   5.1703238  53.0748672  30.4930382   5.8786335
  54.0567780  30.0531921   4.8140345  77.5691299  40.7898598  64.6674957
  77.7180405  41.2912445  63.8658295  77.0965958  41.3919830  65.2422867
  28.9429340  10.6667957  67.8283691  29.1293926   9.8299160  67.4028168
  28.4037361  10.4359541  68.5848160  48.8500900  54.8262978  29.8490162
  49.5017281  54.4084396  29.2859898  49.2825661  54.9035034  30.6994495
   7.8844833   0.9148567  21.8547421   6.9716110   1.0979871  22.0769119
   8.1078377   0.1438138  22.3761234  33.1925163  51.8282852  71.2259827
  34.0578613  52.2313080  71.2965622  32.6652222  52.4739761  70.7555847
   6.5562453  39.5771255  77.6742096   5.8022642  39.1548576  77.2625809
   6.2165961  40.4117584  77.9971008  83.3519287   4.8602786   8.0146894
  84.2590179   4.8924365   8.3186426  83.1862717   3.9314795   7.8530664
  66.5248718  39.1241570  37.2657776  66.4269791  38.8593178  36.3511658
  65.7611465  38.7512856  37.7061501  51.8794899  18.0625839  80.2043991
  51.8331299  18.8043747  80.8075790  51.1152611  18.1667061  79.6375275
   6.2000604  10.7707758  78.8259430   6.9947977  11.1122751  78.4160614
   5.4927602  11.0446215  78.2420197  83.6816330  62.7309189  24.5070763
  83.5218201  62.3294144  25.3611755  84.6313629  62.6874123  24.3959026
  38.7484550  40.9570312  55.1478081  38.8802452  40.8090858  56.0842781
  37.8735313  40.6111374  54.9714775  32.5727615  55.3332634  63.0168419
  32.5891418  54.9871902  63.9091377  32.3067131  54.5894432  62.4763031
  17.9145584  62.3141441  50.8074265  16.9667854  62.4397469  50.8541489
  18.2440548  62.6678581  51.6335945  81.9956818   7.1712766  21.8093681
  82.3527527   6.5272036  22.4208431  81.1764450   7.4569263  22.2137089
  72.7953033  48.0852394   5.6671863  72.7410965  47.1582565   5.4348025
  73.6914139  48.2009506   5.9831271  12.5231552  28.0907631  88.7758179
  12.0090256  28.8759651  88.5877686  12.0428820  27.6525612  89.4783478
  57.8252220  13.7404919  23.7532558  56.9135590  14.0251236  23.8171577
  58.3307495  14.5533009  23.7572899  17.0070896  52.2104416   4.4829273
  17.9342022  52.1983528   4.7207270  16.6673164  51.3740082   4.8009911
  10.4538069  42.8602219   9.8245611  10.9423170  43.6800194   9.8989067
  11.1285381  42.1837387   9.7667866  19.3298779  68.8173752  80.0876770
  19.9801521  69.1301117  79.4587326  18.6789398  69.5180359  80.1275787
  27.2557507  63.7347450  89.0641785  27.2231007  64.2679825  88.2699356
  26.8672619  62.8984756  88.8073502  84.3853607  48.4173203  67.4994431
  84.1913300  49.0999603  66.8571167  83.5626144  48.2927666  67.9725266
  38.1612473  51.2423248  69.7331390  38.2425156  50.3295441  70.0096512
  38.1026726  51.1991501  68.7787094  42.3773727  69.3421707   3.6044567
  42.1713524  69.0063400   2.7321000  41.5798950  69.7929459   3.8820648
  53.4639435  39.6153145  53.4988518  52.6749878  39.9396744  53.0646019
  53.5822525  38.7312393  53.1515045  74.8264236  60.8313522   2.3978066
  75.0480042  59.9023743   2.4620674  74.7364960  60.9917107   1.4584290
  20.3703480  44.9168358  83.3317490  20.9910450  45.4947662  82.8879471
  20.8648052  44.5531120  84.0662231  18.1351910  12.4450607  64.8964081
  17.7400188  12.4847956  64.0254898  18.0614700  13.3377781  65.2338333
  12.3840628  45.8383408  66.2878494  12.5898094  46.0464401  65.3764801
  11.4743938  46.1153870  66.3973007  58.3405762  15.2620649  61.2417107
  57.8559723  14.4888649  61.5307617  59.1605110  15.2289009  61.7345009
  18.5730038   0.4619564  15.1093540  18.0569553   0.4471202  14.3033113
  18.3386593  -0.3500460  15.5587606  60.0822334  42.2927055  74.1351852
  59.6367264  43.1373367  74.0691757  60.0852776  41.9529381  73.2403259
   4.6712179  22.1179886  69.9289093   5.2972417  21.8077431  69.2746353
   5.0997910  22.8734818  70.3311386  72.3830261  28.5697842  30.7774830
  72.3067017  29.2691269  30.1283875  71.4858627  28.4214706  31.0763817
  54.8308067  35.1304626   8.8069124  55.3097687  35.5852585   8.1141014
  55.5132904  34.7711830   9.3738031  81.9349136  38.7447014  32.1616211
  81.8352509  38.6777840  31.2119789  82.4235840  39.5569687  32.2945137
  81.9954987  67.4875488  80.3406296  82.8870239  67.1522293  80.4353867
  81.5293121  67.1476517  81.1044159  77.5504837  37.9394531  82.1638260
  78.2292023  37.5058327  81.6465836  76.7627182  37.8798141  81.6233673
  40.9891853  68.9306564  17.5303993  40.4988785  68.3123398  16.9886322
  41.2093582  68.4355011  18.3194332  79.6460724  39.8173904  82.1470032
  79.8336487  39.5283852  81.2539673  78.9444885  39.2378540  82.4439087
  52.8895874  71.1602936  43.1116447  52.9645119  70.2286758  42.9049950
  53.7536316  71.5202789  42.9114647  50.7930832  36.8205681  74.5950546
  51.3217888  36.0283585  74.6905060  49.9046211  36.5440712  74.8195877
  31.5136452  53.2812309  69.0158997  32.4240417  53.5745468  68.9788132
  31.1885834  53.3956261  68.1228790  50.0584030  51.7412682  45.0112953
  50.2760468  52.5167046  45.5285606  49.7642441  52.0896111  44.1696510
  56.2549553  48.7525940  15.7580166  56.8130150  49.0604858  16.4721622
  56.4572411  47.8201981  15.6809015  65.5651245  55.4523315  51.8779488
  65.0040131  56.2127228  52.0302277  65.4948807  55.2872925  50.9377022
  66.8191223  38.7587433  34.4911766  67.2214355  37.8909492  34.4550438
  67.5359573  39.3632622  34.2989998  56.5006142  32.7155457  72.8665314
  56.8948936  31.8789806  72.6196823  56.8520775  33.3419456  72.2338181
  71.9911194  16.6546631  28.0852280  72.0503159  16.2868671  28.9669628
  71.2392807  16.2122936  27.6911659  78.7190018  70.3983612  80.0091095
  79.1249847  69.8132477  79.3695374  77.8780975  70.6346664  79.6176071
  67.4223404  23.9659920  31.1251373  68.0918884  23.4399719  31.5624409
  66.7233734  23.3440590  30.9229507  56.4338455  58.6260605  11.5496111
  57.3499069  58.3634109  11.4597340  56.0190353  58.3293533  10.7395935
   8.9134274   6.8392415   4.7593741   8.3772106   6.9775844   5.5401201
   8.5433588   6.0570459   4.3501668  14.2178774   9.9924316  78.1802139
  14.7376995  10.4281473  78.8556137  14.7968779   9.9556427  77.4188766
  65.5119476   0.8638550  19.7500496  65.5806503   0.0966467  19.1818027
  64.9191589   0.5909476  20.4502983  59.5515366  15.3243923  48.5752525
  60.1061821  14.6413746  48.1983032  60.0614319  15.6696758  49.3080673
  86.6362305  39.7622147  14.6820021  86.3082047  39.1592140  14.0149021
  86.4134750  39.3436737  15.5135269  49.0042076   5.8240352  16.9206047
  49.8584557   5.6738381  16.5157223  49.2074089   6.2129412  17.7713051
   4.8657312  61.3864136  45.6170807   5.6116643  60.8505592  45.3474922
   4.8383608  61.2968979  46.5696907  21.5460529  38.6249580  79.0650482
  21.7942390  38.4987793  79.9808578  20.6001434  38.4790573  79.0509491
   5.1920533  52.9747543  60.0818939   4.3936744  53.4833298  60.2239304
   5.3178487  52.9864388  59.1330681  60.9349976  66.6939774   8.9217196
  60.1104050  67.1785583   8.8834276  61.2062073  66.7547607   9.8376799
  78.6276474  58.9267502  49.6064758  78.1006165  58.1628647  49.3720474
  79.5065308  58.7175674  49.2901917  45.7535172   9.2678146  45.7609138
  46.3428383   9.5785198  46.4482231  46.0597649   9.7057657  44.9667816
  63.3195229  64.8897400   4.5516410  62.5673561  65.4766617   4.4741535
  63.2876892  64.3537140   3.7592437  62.8422432   6.4148397  13.5416832
  62.9514503   6.0835991  14.4330778  62.1542435   7.0763326  13.6145868
  61.6846695  36.5933418  11.2598267  61.7815399  37.5062561  11.5308208
  62.5331802  36.1947670  11.4532232  36.1738434  35.1788826  83.9318695
  35.8646278  35.0758820  83.0318604  35.5192719  35.7403412  84.3472366
  86.6030273   4.7007222  50.6824951  85.7560654   5.1420732  50.7464943
  86.6720581   4.4472046  49.7620621  37.2234154   9.3834209  43.6702843
  37.0885239   8.5628834  43.1962051  37.8092995   9.1504011  44.3904762
  66.8717651  56.1504936   7.8491645  67.1259003  55.7574120   8.6841087
  67.1580048  55.5183487   7.1898522  69.7899551  38.7583771  57.0976982
  69.2976685  38.9675140  56.3038826  69.1390915  38.3844032  57.6916237
  23.0903206  66.5398788  80.0242920  23.0378094  65.8975983  80.7320709
  22.2030296  66.5756226  79.6669922  81.2173996  61.1370468   9.4288712
  80.4360275  60.5857849   9.4712687  81.4099808  61.3501892  10.3419514
   3.1283932   0.9714026  42.5989304   2.9536445   1.6623063  43.2379532
   2.8876140   0.1619351  43.0495071   8.3074293  47.6840401  17.1190090
   8.8693724  48.3253250  17.5539875   8.0679998  47.0671921  17.8106747
  70.9603195   9.5355024  33.0264511  71.0989304   9.7423649  33.9506950
  71.7362289   9.8806467  32.5847855  51.0905876  53.1309738  68.3566513
  51.4267044  52.3211060  68.7405396  51.8734818  53.6110764  68.0868225
  27.3088970  17.7195835  79.0101471  27.8981400  16.9661369  78.9735107
  26.8306370  17.6901302  78.1815109   4.1447678  10.5433769   5.2883277
   3.8859341  10.8464794   6.1585951   4.6462779   9.7447147   5.4522133
  61.4758072  45.5181351   0.6746783  60.5837593  45.7381744   0.4062268
  61.9793129  45.5243149  -0.1393697  17.5552444  60.8735237  25.1766281
  16.8360462  60.3047371  24.9019108  17.4219894  61.6831589  24.6837139
  40.4118042  43.5397415  49.4385643  40.8377380  44.0240631  48.7312851
  39.4839096  43.5391541  49.2035179  31.6386909  27.2399139  82.0846100
  32.1356735  26.4410000  82.2606201  31.9778957  27.5531654  81.2461319
  17.3397064  68.3717346   6.0459499  18.0863304  68.4949799   5.4597797
  17.0194263  69.2577057   6.2153955  31.7220554  41.5917206  59.6771698
  32.5591774  42.0339928  59.8180618  31.8806496  41.0099983  58.9337463
  74.1995926   3.3873653  44.7989693  74.4302216   2.8693140  45.5701141
  74.3789749   4.2918854  45.0556717  38.0197716  42.3310204  16.0610065
  38.1809883  43.1150436  16.5859337  38.3937187  42.5355415  15.2039385
  57.6232224  13.4349737  64.8679657  58.4576607  13.6836672  64.4703522
  57.8605919  13.0976810  65.7317429  42.4807205  28.2533627  21.7778130
  41.7819176  28.8603725  22.0216255  42.2683029  27.4442596  22.2430725
  27.2752590  51.6450882  22.2088184  27.8809490  50.9667473  21.9101200
  27.8174076  52.4292450  22.2948856   0.6738118  67.2750092   9.0115118
  -0.1963236  67.0287094   8.6977692   0.9523888  67.9745255   8.4204941
  80.9981537   8.1256828  80.6775818  81.5943069   8.8742313  80.6999893
  80.4090347   8.2664080  81.4187775  42.1014137  21.2154102  59.0992279
  41.6636200  20.9436378  59.9058952  41.6518669  20.7299728  58.4074974
  57.6841660  68.7215042  52.1182938  57.5436134  68.3463745  52.9876404
  56.8716621  69.1891632  51.9250107  35.8253975   4.4406796  74.6026993
  36.4758568   5.0114822  74.1936493  34.9887123   4.7338648  74.2418213
  31.9086914  50.4202385  65.3111038  31.6125736  51.3156433  65.1473999
  31.2128468  50.0308952  65.8406754   9.2737923  14.3147392  67.9460297
   8.3434725  14.3591795  68.1668549   9.2920227  13.9660931  67.0547714
  68.0239639  28.6008663  88.1137238  67.2764053  28.8571339  88.6538315
  68.2701187  29.4013271  87.6501465  66.5399094  37.6480560  27.6437244
  66.8487549  37.3856735  26.7765446  65.7111511  38.0970726  27.4770756
  67.0786972  34.8913269  47.0535736  68.0333710  34.8887367  46.9840469
  66.7726974  34.9344063  46.1476288  34.7708588  37.7163086   3.8460279
  34.6906319  37.7544708   4.7990961  34.1170273  38.3376274   3.5255628
  69.5383453  37.6297874   3.8773596  69.6870575  38.2919464   4.5523853
  69.8902588  38.0200920   3.0773299  37.4750519  21.3612156  20.4492607
  37.4130440  20.6486397  19.8131599  38.3996773  21.3822803  20.6959457
  63.6170197  24.1199341  65.0291367  63.0546913  24.5983753  65.6383286
  64.3994751  24.6651211  64.9468918  42.9073753  59.0295258  54.8096962
  43.4396210  58.8393288  55.5822067  43.1833801  58.3801498  54.1628838
  13.5098019  50.5040970   6.1767111  13.6904678  50.7281418   5.2638059
  12.8318062  51.1239014   6.4457793  57.0299950  16.2339821  65.1481857
  57.3237343  15.3261633  65.0719299  56.2450180  16.2783871  64.6022263
  46.2453728  38.4838867  32.0578079  45.6061630  37.7719765  32.0290642
  46.1322823  38.8724365  32.9252586  26.8331051  32.5102463  86.8281097
  26.7825451  32.3754349  85.8817978  27.7563171  32.7011375  86.9938583
  53.2144394  31.5927563  63.8121719  52.6177330  30.8801041  64.0408554
  53.5608826  31.3489437  62.9538231  80.9751282   2.6960740  60.8553772
  80.4505005   3.4338591  61.1662941  81.8120651   2.7886350  61.3105736
  22.0453339  44.6712418  35.1904602  22.0985222  43.8276100  34.7413635
  21.3883343  45.1635628  34.6983185  82.4859314  68.1062164  29.7166977
  83.0805817  67.5832443  30.2543983  82.3400955  67.5743713  28.9343243
   1.2981484  13.9744940  75.6289368   1.8217884  13.8507376  74.8372803
   1.4365970  14.8912754  75.8667908  18.7901573  19.6162853  26.2528973
  19.4977818  19.4574699  25.6281738  19.0606403  19.1510887  27.0445156
  77.2529907  24.5917397   5.1916571  77.2419510  25.2766266   5.8602681
  76.5193405  24.0213032   5.4209819   6.3417788  32.4443436  80.4729767
   5.9179344  31.5868778  80.5095901   6.9310398  32.3883209  79.7207413
  72.7045364  62.5102730   9.0334949  72.0360260  61.8993492   8.7234983
  72.8069153  63.1369553   8.3172398  81.3148575  57.9773827  20.3182144
  80.9057922  58.1566887  21.1648254  81.6334686  58.8296165  20.0208664
   4.6187553  21.4068947  11.0577545   3.8672118  20.8146267  11.0829144
   4.6914053  21.6627369  10.1382446  52.8393593  27.0006313   0.3914173
  52.7184143  27.4421844  -0.4491990  53.7125015  26.6125183   0.3346563
   4.1718216  18.2034416  62.8572311   3.2808003  18.0840168  63.1859398
   4.1679626  19.0774040  62.4668388  70.2152481  20.0665703  15.1828690
  70.5739365  19.1999054  15.3738213  69.3153687  20.0300980  15.5070839
   9.0414581  69.5513000  60.8112297   8.1319284  69.2907410  60.9564743
   9.4072466  69.6446533  61.6908417  27.9975147  50.5007668  52.1818504
  27.4987965  49.7901840  51.7786331  28.6975365  50.0592270  52.6627274
  27.7425518  22.5188274  86.8634109  28.6149921  22.9032402  86.7779236
  27.4540024  22.3768158  85.9618530  72.9195251  23.4345169  78.3313522
  72.4606934  22.6404247  78.6054306  72.4484558  24.1454334  78.7660065
  26.7043419  34.0540047   6.8489184  25.7876511  34.0457458   7.1243119
  27.0126076  33.1633072   7.0158224  14.3792353  45.4132118  12.0938997
  14.6783247  44.8623543  12.8173199  14.0368347  44.7952843  11.4480219
  58.0526085   4.5305882   3.7778003  57.8032990   5.1617422   4.4528728
  58.9179535   4.2219152   4.0463605   5.4979320  49.3268623  39.6230927
   5.0087023  50.0826797  39.2980919   6.1113834  49.6942444  40.2594414
  56.3740349  53.8527298  77.6296463  55.8730240  53.5450287  78.3849869
  55.7717209  53.7650337  76.8908920  37.0424652  70.8282318  66.1496048
  36.1690254  70.9166489  66.5310745  37.1955032  69.8838730  66.1179047
   5.1810746  28.6896076  56.3537407   5.5785451  27.9792805  55.8500748
   5.9180522  29.1116409  56.7953110  42.8661957  12.8414860  78.4885483
  42.4368401  13.3913746  77.8331757  43.7709541  12.7687969  78.1846466
  71.1409073  16.1468639  10.5283527  71.1420135  15.2866163  10.1085863
  70.7523880  16.7307434   9.8769178  15.8364563  59.7831306  71.8059616
  14.9744654  59.4584656  71.5455856  16.3135223  59.0007706  72.0826416
  49.0815048  22.8934345  77.6013641  49.0199852  23.7939816  77.9198990
  48.2888908  22.7693901  77.0792389  26.9257832  66.3818741   7.7745652
  27.3967438  67.1715469   8.0407400  26.0782566  66.4487610   8.2143984
  44.8886528   6.6733923  55.7449799  44.2524071   5.9813285  55.9251823
  45.3597183   6.3695593  54.9690857  71.9897537  68.0540085  49.3969574
  72.1658020  68.6444244  48.6643982  72.6378479  68.2941208  50.0591888
  40.4971199  62.4037895  87.0518341  40.9709702  62.4857979  86.2242050
  40.4350281  61.4601326  87.1997910   6.6736956  37.4144211  10.6414433
   7.3628340  37.7020073  10.0425987   7.1011481  36.7717400  11.2075491
   8.3803368  40.2539368  20.1145058   9.3290167  40.1602020  20.0281773
   8.0237894  39.4622192  19.7116508  17.6536884  11.6272650  18.8308773
  18.0612469  11.7706490  19.6850262  17.1200905  12.4086046  18.6859150
  57.0862770  56.9971313  64.2727356  58.0252914  57.0169830  64.0881119
  56.7703362  57.8586159  64.0002365  26.8159866  28.3822098  21.8381405
  26.3550320  28.9203224  21.1945686  26.2570915  27.6134949  21.9519310
  40.5475044  61.1571236  41.4569702  40.1701736  60.5893707  40.7850266
  40.0236244  61.9572067  41.4163246  71.7883987  43.3410110  63.2014465
  71.5860748  42.8622742  64.0052490  72.7222595  43.5397415  63.2696533
  17.5883503  13.1391983   9.0305042  17.9362774  13.1654263   9.9218464
  18.1361599  13.7531281   8.5413971   7.2486501  47.5899849  53.2010536
   7.4531789  47.1287346  52.3876381   6.3076272  47.7579346  53.1510506
  64.2400818   3.7536638  45.0530510  63.4049988   3.6917377  44.5893364
  64.6138458   2.8745875  44.9917488  13.6612415  33.6918411   4.1908021
  14.2549314  34.4252815   4.3515210  13.6852608  33.1823311   5.0007715
  44.2248573  46.7802391  49.2227325  44.2639503  47.4006081  49.9506378
  44.9027977  46.1344643  49.4217339  76.6035843   4.1135597  47.2803841
  76.4780197   4.8837132  46.7260094  77.2568817   4.3861680  47.9246750
   5.4520621  58.0382080  34.3558578   5.6931682  57.1216049  34.4897728
   5.5736017  58.1832123  33.4175453  35.7672234  11.6315584  76.0322113
  35.7068024  10.7448702  75.6767273  36.5656586  11.9908094  75.6453400
  11.1070633  61.6958504  82.5229874  10.5070362  61.0601311  82.9129410
  10.5457134  62.4254913  82.2608032  50.5063248  30.1501598  27.9062157
  50.7062607  29.3964748  28.4613914  49.7481194  29.8739662  27.3913651
  76.8448563   5.8389392   7.5621915  76.4323425   5.8091445   6.6989546
  76.1152573   5.9442463   8.1727896  53.0685272  26.9169559  83.2538605
  52.8652039  26.2007141  82.6522903  52.2324638  27.3641777  83.3850708
  28.2161980  61.2557449  68.7354279  27.7656269  61.3960495  69.5682144
  27.6602287  60.6354866  68.2638321  23.1769753  44.2172241  51.6954765
  23.5047417  43.4294014  52.1292229  23.4447365  44.9353447  52.2689247
  20.0600777  27.5858402  86.2665558  19.9303169  28.1636810  85.5145645
  19.4499531  27.9125843  86.9277802  37.1240158  32.2128563  64.9919815
  36.9563370  32.4894676  64.0910950  36.3588028  32.5145569  65.4815216
  35.3629150  63.3267059  86.3469315  36.2952995  63.1656570  86.2021713
  35.1771088  64.1225128  85.8485260  10.5560560  64.9400787  18.9477730
  10.0731773  65.1262817  18.1425476  11.4136429  65.3427658  18.8113308
  86.1878891  21.6634369   5.2907252  85.7041855  21.9564724   4.5184574
  85.9192810  20.7524948   5.4101739  34.7587929   8.1653252  71.5876465
  33.8680801   7.8373508  71.4639664  34.6931076   9.1056004  71.4209213
  40.0649719  33.2297058  82.6590424  39.5842438  32.4020081  82.6521454
  40.0089035  33.5467758  81.7576294  23.5337353  65.8896790  71.2072449
  22.6764431  66.2666092  71.4052429  23.8657188  66.4178467  70.4812622
  25.5738220  50.9565964  35.9445267  25.4315681  50.3873405  35.1882553
  26.4436417  51.3301926  35.8028488  46.1174850  25.0154343  73.7445297
  45.2328529  25.0301971  74.1098175  46.5171165  25.8291264  74.0518265
   2.2814703   7.8036346   6.6624246   1.3530163   7.8749423   6.8840556
   2.2974813   7.7698078   5.7059565  22.9760075  36.8938522  10.1885338
  22.9116611  36.7495918  11.1326103  22.3894539  36.2412758   9.8059978
   2.9100564  10.4042635  10.7676888   2.9932740  11.0016155  11.5109768
   2.9360063   9.5307856  11.1583233   3.9629784  49.1838608  71.1038589
   4.5832825  49.1016731  71.8282242   3.1165190  48.9519653  71.4859085
  27.0875988  16.9540882  88.9660568  26.9162178  17.7033348  88.3955383
  26.2600574  16.4734249  88.9852524  26.7159176  58.6741791   1.4507843
  27.6707954  58.7243843   1.4946117  26.4126682  59.4042892   1.9904222
  59.6008110  35.0665894  13.5882044  59.5782166  35.8541298  14.1318064
  59.9126778  35.3723526  12.7364521  76.3821259  57.6493187  84.2736053
  75.9898071  57.6391220  85.1466522  77.3038559  57.8565102  84.4276276
  40.7095680  44.2568054  25.2978439  41.1340637  44.7499847  24.5958405
  41.4158897  44.0596924  25.9130573  69.8366318   5.6504045  20.6081753
  69.9019089   6.0473342  21.4767475  70.4931717   4.9538651  20.6131973
  52.1455727  35.2573357  55.2831192  52.4591675  35.2115440  54.3799057
  52.6917496  35.9283638  55.6925583  52.9629364  62.8594284   1.6733129
  52.3734589  62.6715240   2.4036844  53.1899376  61.9987755   1.3212061
  18.8617954   0.4575084  41.5596237  18.7183189   1.3812150  41.7655678
  19.0865746   0.0569879  42.3994408   6.8943839  55.9617729  11.8595524
   6.8987069  55.2871857  12.5386276   5.9665623  56.1268768  11.6918650
  40.5203819  48.1087570  48.9381104  40.0860901  48.6658859  48.2921791
  41.3237457  48.5798645  49.1592369  58.5673599  43.8140106  69.9942398
  58.6748390  43.3853226  69.1451797  58.7223244  43.1195450  70.6345062
   5.5282068  17.9497280  78.9216537   4.9625702  17.1855793  79.0328445
   6.2907209  17.7651157  79.4700317  74.7251053  31.0605183  50.3966713
  75.2729492  31.5671310  49.7971344  73.8549271  31.0774918  49.9982605
  47.4377937  34.5243530  30.1383877  46.7015648  34.5502853  30.7495594
  48.2120705  34.4681854  30.6983624  67.4264908  69.6986847  80.9342728
  67.5301666  68.9019775  81.4546051  67.2098236  69.3848572  80.0563202
  65.7762909   3.1317639  63.0203362  65.3449554   3.8624117  63.4634323
  66.7071381   3.2545669  63.2065697  56.0235977  42.5255508  22.9248981
  56.7649155  42.7608337  23.4828606  55.5508842  41.8588562  23.4231930
  76.2750015   3.3252718  24.6243286  76.8712006   2.5800338  24.6977940
  75.7321930   3.2762187  25.4112091  61.4545670   3.5022604  52.5270615
  62.1493301   3.5118361  53.1854286  61.5261154   2.6408520  52.1158600
  41.5657959  34.1159401   9.4102821  41.9730034  34.3988647  10.2290411
  40.6342163  34.0444183   9.6183071  40.8593597  33.5287590  14.6997128
  40.9976845  33.5928917  15.6446924  39.9194641  33.6691170  14.5851555
  55.7598801  16.6587086  85.2033234  56.6825294  16.8057976  85.4114532
  55.3095093  16.7348309  86.0445175  84.9624481  48.9288864  52.9440956
  84.2133484  48.3437309  53.0567017  85.6738815  48.5017395  53.4212074
  82.8100281  28.8383904  34.3994522  82.6677322  28.9887047  33.4648972
  83.1262436  27.9364357  34.4515495  56.3000450  61.7155266  34.7037163
  56.4090385  60.8075523  34.4209900  56.5180244  61.7039871  35.6356926
  69.7286072  57.6854820  57.6439056  69.6742554  58.5905685  57.3371620
  69.9343643  57.7603416  58.5757294   8.0781403  56.6053123  15.5704861
   8.3529797  57.0151863  16.3906689   7.3922334  55.9895401  15.8285284
  81.6100540  49.8584518  53.2029495  81.2228012  49.1543388  53.7230377
  81.7679062  49.4637566  52.3453178  67.1278229  21.4107552  55.6397781
  66.3152771  21.8449001  55.8996353  67.5616608  21.1998043  56.4665298
  32.2730026  19.1222839  82.3196716  31.7701206  18.5200520  81.7713470
  31.7070923  19.8883133  82.4154510  48.6219826  38.7807198  13.6896276
  47.6802788  38.7351570  13.8549862  48.9688148  37.9663467  14.0539551
  51.5748520  25.3330841  78.9114914  50.8013992  25.8658657  78.7266998
  51.4924126  24.5801201  78.3262711   0.9221617  21.8629646   9.2350788
   0.9076197  22.6250954   8.6561337   1.2584624  22.1995125  10.0656633
  50.9532585  67.1926880  33.4131660  50.6896896  68.0800095  33.1693954
  51.4952927  66.8946381  32.6826897  46.9780197  10.4020758  43.3891907
  47.8167763   9.9453793  43.3248177  46.4603577  10.0558043  42.6623116
  39.0093613  55.1799774   6.7618451  38.8704071  54.2387962   6.8672118
  39.1447487  55.5032921   7.6525574   2.9722593  16.3614941  75.8599014
   3.5946507  16.6442070  75.1898804   2.7681229  17.1586895  76.3488235
  84.1737289  23.1999340   2.9561298  83.6046448  22.6826706   2.3862126
  83.6734695  23.3013706   3.7658706  24.2261295  41.7019424  32.8289871
  24.7243023  42.3876305  33.2738266  23.3132248  41.9779739  32.9104805
  45.4433861  55.4130630  15.7174873  45.2766991  54.4713058  15.7566977
  45.7620506  55.5630417  14.8274374  45.8664665   5.1472669   8.2023287
  46.2701149   5.9645519   7.9101877  45.6478233   5.3031521   9.1210928
  66.2972717  59.7560997  31.7623100  66.4925690  60.3565788  32.4816971
  65.5209732  60.1281662  31.3437996  85.5741119  41.0922089  73.8752289
  85.2502975  40.8141747  73.0184479  85.2720566  40.4123840  74.4775772
   1.1288874  66.2484970  11.5600109   0.9553385  66.5876694  10.6819038
   1.6860614  66.9118118  11.9671898  79.1455078  68.4690399  69.8086472
  79.3220673  69.3007812  69.3690338  78.5385818  68.6948166  70.5135574
  68.5918732   6.0036268  81.8908386  69.1056519   5.6970658  82.6380157
  68.3512115   6.9017978  82.1179962  36.2291832  48.5291519   8.8971033
  36.0988846  48.0791168   8.0624027  37.1011047  48.2563782   9.1827259
  40.7626228  50.9478226  62.9809647  40.6622467  50.1492920  62.4627953
  40.6074295  50.6688652  63.8833656  38.0855865  19.7501049  68.5335999
  39.0410461  19.7299194  68.5876236  37.7981720  19.9093418  69.4326401
  42.3363152  50.5410461  51.3523293  42.7864761  51.3308868  51.6518974
  41.5034409  50.5465622  51.8240509  30.8876362  60.2142487  69.5128403
  30.8106556  59.9125748  70.4179916  30.0146313  60.5400696  69.2938995
  21.3879642  53.3600426  12.2513065  22.1814404  53.8526764  12.0416870
  20.6803913  53.8624878  11.8474264  42.6769867   5.2247896  84.4022141
  42.7538719   5.0035791  85.3303223  43.2407379   5.9903221  84.2909546
   3.9038961  32.5865326  12.8968935   2.9887884  32.6765785  13.1627903
   3.9715760  31.6888485  12.5716047  43.6359863  44.0496140  64.2944717
  44.1410370  43.4815598  63.7126884  44.1976929  44.8125000  64.4312820
  79.7495041  36.0393372  10.5482626  78.8131256  36.1028786  10.7364082
  79.7926788  35.8306465   9.6150875  10.0422726  43.3100967  60.9829445
   9.7256584  44.1782570  60.7333717  10.8751135  43.4766579  61.4243813
  73.8778000  18.7886105  83.6051636  73.9622726  18.8067932  82.6518707
  74.6209488  19.3024273  83.9213104  40.0656967   3.1459284  60.9935074
  40.8872032   2.8033950  61.3456917  40.3222961   3.9276080  60.5042572
  46.2876778  58.9560585  87.4748001  45.4199791  58.8257751  87.8573608
  46.6972466  59.6192780  88.0303345  65.2919693  20.4357738  81.0195541
  65.1766129  21.3803234  80.9158707  64.5181580  20.1519775  81.5062866
   8.1834822  52.8527756   0.6119081   8.2765455  52.6094513  -0.3091587
   8.0742750  53.8036308   0.5985872  35.7081795   2.2498093  84.3090439
  36.6011963   2.5768113  84.2003174  35.1765213   2.8139119  83.7474747
  18.3612289  12.2004738  67.9892426  18.0094242  11.9420481  67.1373749
  18.4554310  11.3776112  68.4690933  21.7558918  18.3492222  78.1247787
  21.5166492  19.2576084  77.9408417  21.5360031  18.2259064  79.0481873
  37.8984718  67.7981873  77.1679993  37.3343964  67.9423981  76.4082336
  38.1804428  68.6754990  77.4269333   8.9763870  14.9177942  12.2401924
   9.1954222  14.5652113  11.3776722   8.8636408  15.8569374  12.0934591
  60.5145836  43.2453957  79.0518951  59.8572083  42.5642548  78.9099884
  61.2351494  42.7947960  79.4923248  64.1078644  60.7922745   7.7339067
  64.4093552  59.8877373   7.8184648  63.9437408  61.0751228   8.6335125
  71.9600372  57.9978104  26.8738613  72.2598343  58.2577972  27.7449322
  71.0347900  58.2424088  26.8561039  65.9625015  64.6066055  10.1076651
  66.4933243  63.8505249   9.8570623  65.1571503  64.2276764  10.4598751
  30.1774826  40.9973373  39.2880859  29.3294678  40.5557518  39.2422180
  30.6474323  40.5414963  39.9863625  80.8354416  61.0757256  49.7174644
  80.0152969  60.6311035  49.5032196  81.4689331  60.3674164  49.8324432
   8.1446648  70.2273865  11.9106016   8.5544615  70.7613449  11.2300262
   7.2657466  70.0473175  11.5769672  42.0687370  13.7119722  39.5512276
  42.3814621  13.5204735  38.6670532  41.6590614  14.5740433  39.4789124
  61.3150253  14.2385206  77.7219772  62.2632332  14.3685684  77.7070694
  61.1142998  13.8419714  76.8742218  15.4933577  55.9243240  10.1450977
  15.2158756  55.1918716   9.5948687  15.9695597  56.5037270   9.5503254
   5.9778690  55.8353767  60.6360626   6.6096087  56.5338821  60.8070221
   6.4323783  55.2425919  60.0375175  82.4353867  39.6371307  85.4066925
  81.6701508  40.0444870  85.8125305  83.1616440  40.2212372  85.6248932
  82.9937286  53.6574745   2.0013168  83.5324173  54.4323120   1.8410985
  82.7090607  53.3794785   1.1307311  44.9707985  29.5781460  12.5244799
  44.8411407  30.2126656  11.8196344  44.6370621  30.0175133  13.3066616
  72.8032761  28.8184681  51.9493294  72.0996857  29.3715897  51.6098442
  72.3774261  28.2631035  52.6023674  79.7748184  11.4460211  20.7574425
  79.3822479  12.1022549  20.1816998  80.1290512  10.7858696  20.1616650
  85.4484253  35.4325790  55.6140175  85.6775894  35.5219536  56.5390701
  85.8285446  34.5937424  55.3530617  74.7028503  43.1683311  63.3386307
  75.6550980  43.2504578  63.3906555  74.5512085  42.6249237  62.5653648
  61.3817596  27.7365055  30.8036041  60.7176170  27.1182461  31.1084061
  62.0682259  27.1849403  30.4284115  44.7518692   3.9472272  76.2187347
  44.4415283   4.6937957  76.7311325  43.9729156   3.4067590  76.0869904
   4.1917925  67.0362244  14.5488281   4.6272831  66.5162506  15.2242575
   4.0738387  66.4292297  13.8181591  36.3034248  20.2257729   1.7492772
  35.8541145  20.0528908   0.9219542  35.5986900  20.4058609   2.3714907
  46.4055557  24.7349243  24.4565086  46.8872070  24.2216015  25.1051540
  46.9783707  24.7501564  23.6897736  17.0378342  39.4676743  89.3244019
  17.9503460  39.2134857  89.1867676  16.5967941  39.2275352  88.5095062
  73.0902939   8.3505926  52.6007957  72.7014008   7.5072951  52.3687553
  74.0060654   8.1476374  52.7916183  11.0996962   8.7372179  68.5937576
  10.4993048   9.4819174  68.5593338  10.6744242   8.0620546  68.0650558
  58.2803497  54.0517120  22.4004517  57.5115471  54.5016670  22.0501404
  58.8663902  53.9587517  21.6493549  71.3748474  31.7901211  38.0232391
  70.9965515  32.6505699  38.2042313  71.0759506  31.2399731  38.7472763
  20.5652122   1.2397448   3.6206787  20.4833698   0.4413489   3.0990486
  19.7338886   1.6963662   3.4917233  17.9991264   1.1818705  63.2504845
  18.8906231   0.8612000  63.3869972  18.1126842   2.0793898  62.9377594
  37.8088760  43.6466675  55.4298706  38.3419456  42.8740311  55.2425117
  36.9216309  43.3928986  55.1756477  78.0552292  56.7108269   1.4730692
  78.2790451  55.8433647   1.8101771  78.5085144  57.3189735   2.0569570
  75.4201660  52.7091141  87.2098236  75.8597870  52.1845741  86.5406265
  75.7973175  52.4077797  88.0363770  55.2494736  29.7782707  65.7410965
  55.0737877  29.9405594  66.6679306  55.7559128  30.5390396  65.4565201
  48.5528183  60.0761223  86.4231415  49.1176033  59.7376671  85.7283707
  47.7273178  59.6045494  86.3117905   6.3155966  60.5065880  26.6819553
   5.5655122  59.9699554  26.9381409   6.7722697  59.9816666  26.0245838
  59.5165825   1.5751551  27.3802147  58.7889595   2.0803642  27.7429295
  59.7016373   0.9111015  28.0443058   0.5920929  40.0841484  46.6378365
   0.0740346  39.6633797  47.3239861   1.4349508  40.2677727  47.0526924
  79.0541992  70.7441788  76.5930023  79.7311935  70.6271667  77.2594986
  78.3449020  71.1971436  77.0490112  18.0674686  43.0038910  13.2334404
  18.3281517  43.8796730  12.9483452  17.1107693  43.0179024  13.2058582
  47.5129356  58.2840576  45.6477394  47.9959145  58.0937119  44.8435440
  47.9369965  57.7446671  46.3151703  41.1380577  38.7775955  14.5550632
  40.8972321  39.3314590  15.2976732  41.6873779  38.0922813  14.9356155
  58.1489334  38.1951904  34.7466621  58.8358459  37.6116867  34.4243202
  57.3361435  37.7102585  34.6036682  71.7636719  54.3842621  41.8685989
  72.2045212  53.7935181  42.4792557  72.4622574  54.9450073  41.5312958
   0.8766829  54.5284500   8.5370922   0.7590778  54.5986099   7.5897393
   1.1909207  55.3922844   8.8040609  61.1947327  56.9113770  59.5046692
  61.0101357  56.5034828  60.3507080  61.7797699  56.2950020  59.0641708
  70.2183380  25.7076187  24.5323963  70.7140274  26.3953953  24.0880032
  70.7391205  25.5002785  25.3083000   2.1835392  34.8952332  43.1511040
   3.0450492  35.2681580  42.9641342   1.8352495  35.4392281  43.8575020
  50.8386612  42.7880402  23.3334465  50.3206787  42.7447472  24.1372204
  51.1010284  43.7061615  23.2667484  46.7402802  27.5973225   2.5099757
  47.2777596  28.3017731   2.1479044  47.2921028  26.8178387   2.4457567
  20.0794258  67.6478271  13.9496222  19.1932602  67.7464294  13.6014528
  20.0893250  68.1920319  14.7370119  62.9254990  53.6744308  64.8255920
  62.7177467  54.0581665  65.6775360  63.2813416  54.4020615  64.3155212
  52.8669052  24.7706509  23.7531757  52.9433060  25.5126438  23.1533070
  53.1166191  25.1256771  24.6063061  53.2588997  19.9020462   8.2384119
  53.2679024  18.9848328   8.5120363  53.1623344  20.3942585   9.0536633
  39.6883430  36.5718155  16.9617062  40.3233910  37.0434418  16.4227161
  40.2095947  35.9209251  17.4316750  36.5539398  36.4881363  76.3976288
  36.3983879  35.7921600  75.7591553  35.6832695  36.8370094  76.5885391
  71.5506592  64.0746231  86.4757004  71.4494476  64.2483444  87.4115524
  72.4340286  63.7154045  86.3929367  68.4876328   7.1655245  18.7715759
  67.5876007   6.8816686  18.9315529  69.0147781   6.6418214  19.3749733
  16.0439911  32.2183418  36.3569984  16.9485531  32.5310478  36.3716736
  15.9217720  31.7987709  37.2086182  77.0222473  53.2955399  37.1129646
  77.6960220  52.8782539  37.6497498  77.5099792  53.7429047  36.4214363
  14.4453030   3.6532533  49.6300278  15.0264091   3.1082454  50.1606064
  14.0079851   4.2233329  50.2624779  37.5092850  34.8228416  33.8510704
  37.8671265  34.9147415  34.7340965  38.2339668  34.4704895  33.3344345
  21.4351234  35.6900444  17.5164337  20.7204666  35.1557884  17.1699219
  22.2266293  35.3030891  17.1422501  20.3402824  47.8517075  71.5451889
  20.2275906  47.9996910  70.6062317  19.4531078  47.8924294  71.9022446
  11.3464413  46.2224159  25.8065434  11.4353189  45.5956459  26.5245228
  10.5295830  46.6854248  25.9925404  28.6522293  43.5398750  26.1671448
  27.8681355  43.9824867  26.4919872  28.3233738  42.7390671  25.7587395
   4.8733735  70.4690781  82.0112762   4.8114285  69.5822601  82.3661652
   4.2927842  70.9901199  82.5659561  47.2081947  45.2752037  34.1307259
  46.8540192  45.5691566  33.2914467  47.2483940  46.0685463  34.6647873
  66.7782669  43.4366570  32.6474609  65.8476944  43.4816895  32.8671074
  66.8141785  42.8793030  31.8700962  42.1376495  47.0440979  29.6183319
  42.0541420  46.7193489  30.5148792  42.1191139  47.9970856  29.7060833
  29.7103882  62.9278717  24.6504593  29.1120243  63.6190834  24.9340439
  30.3031025  63.3612366  24.0363617   2.1271348  38.5681496  55.5678749
   2.1873195  38.3103523  54.6480103   2.3005803  39.5094986  55.5646362
  20.4049664  53.7813339  26.1383839  21.2727757  53.9744110  26.4931507
  20.3885479  54.2254562  25.2906113  47.7472801   7.3349142  77.2880859
  46.8354301   7.0654116  77.1779404  48.0120621   6.9485440  78.1228561
  30.5892982  68.6260147  19.3395329  30.4638424  67.7079010  19.5794601
  31.5383625  68.7269897  19.2666435  60.6122971  57.2161026  -0.0180092
  60.1632576  57.7138443   0.6652555  61.5419655  57.3077202   0.1906840
   0.9781631  27.6466713   2.8367875   0.4681164  27.7509880   3.6400323
   0.3250297  27.6435566   2.1370454  82.0494156  39.3707352  80.2482071
  81.1570435  39.2461128  79.9251251  82.2734985  38.5365334  80.6606674
  78.7384567  59.9663734  72.2860260  78.4709396  60.1116104  73.1935349
  78.7997742  60.8448601  71.9108810  67.1838684  33.1231956  61.7086372
  67.2838211  33.9666481  61.2672386  66.5706253  32.6360588  61.1583099
  60.1235809  52.0085831  27.9229336  60.6199532  52.8206406  27.8209000
  60.7903099  51.3224030  27.9522095   0.9122938   7.9990621  61.7874260
   0.8571035   8.8218575  61.3014297   0.5178543   8.1958361  62.6370888
  35.3554115  57.2055969  34.0730095  35.5273705  57.9998856  34.5787468
  35.8418159  56.5200806  34.5309448  47.4465370  22.5845165   4.1973419
  46.9272461  22.8318577   4.9624486  47.5538292  23.3995705   3.7070293
  50.7884903  34.7675781  61.0215912  50.0406151  34.7918167  60.4246597
  50.4285507  35.0344009  61.8674507   1.4171008  46.1881294  19.1455917
   0.9766520  45.8003502  19.9018097   1.0227796  47.0559006  19.0577393
  76.7829056  63.0616608  68.5484390  77.2677917  63.8772049  68.4219284
  76.0418930  63.1276817  67.9461288  22.0134239  31.2318230   4.5313182
  21.8352451  30.2918968   4.5632663  22.9660606  31.2927437   4.4605885
  71.3034286  61.7439690   6.3655338  71.1324844  62.6524620   6.1172390
  70.8721771  61.2249336   5.6866727  35.2385292  32.9559975  69.2138214
  36.0724831  33.4199371  69.1395721  35.3191795  32.4458427  70.0197220
  50.5185394  62.8542786  33.9730263  50.2508011  61.9353218  33.9645844
  50.2411957  63.1766815  34.8305626  75.3764725  23.5466423  69.7758636
  74.4849548  23.2177429  69.6607590  75.3266144  24.4679909  69.5211868
  35.9322319  63.6410103  79.4638748  36.8417664  63.5019073  79.1999893
  35.8670349  64.5846634  79.6105042  15.7351885  41.8513069   7.1096435
  14.9555426  42.0282593   7.6360188  15.8962402  42.6684875   6.6379299
  65.0784912  13.9330435   0.6081874  65.2936172  14.5143080   1.3376284
  64.7170029  13.1504049   1.0241580   5.1273994  41.4010773  58.1526184
   4.2897677  40.9850883  58.3564758   5.0350623  41.6938171  57.2459717
  75.4090881  19.8770638  38.1433563  74.5579147  19.9353333  38.5773430
  75.8559952  20.6890144  38.3825951  13.3463602  63.1394463  17.8331451
  14.1929455  63.2057724  17.3914165  13.1311865  64.0402374  18.0750275
  51.2796211  49.6081276  43.8249741  50.8305473  48.7865067  44.0237389
  50.7090683  50.2864342  44.1863670  72.8006439  58.3863029  82.6359406
  71.8612671  58.5343552  82.5269012  73.0801315  59.0642395  83.2511826
  40.8434029  12.9490232  11.3277588  39.9207993  12.7459841  11.1734524
  40.9388847  12.9208021  12.2797670  35.3162804  50.2405891  84.7605896
  35.6647720  50.4431839  85.6287689  36.0760498  50.2885780  84.1803436
  74.1849136  59.4018822  42.9593887  74.7047501  59.1445389  43.7208214
  73.3431854  59.6740761  43.3249435  45.5208511  66.2087250  86.8609238
  44.8479424  66.4052124  86.2091446  46.1915894  66.8772888  86.7217331
  52.9768333  65.6849060  76.9607315  52.5137596  66.4889526  77.1959000
  52.3698044  65.2181549  76.3863678  47.7918816  56.8439102  87.4889755
  48.3691063  57.1235924  88.1994858  47.1670151  57.5623817  87.3911362
  70.6890182  21.7324657  43.4633179  71.2887421  22.3862534  43.1039848
  71.2496338  20.9884834  43.6833763  59.0865898  64.8308640  68.1519699
  58.3197021  64.4471588  67.7266693  59.2641296  64.2518921  68.8932495
  65.5558853  51.0920067  36.7383080  64.7482758  50.5928955  36.8602829
  65.3449173  51.7249870  36.0519676  69.2803650  23.3457165  52.4973793
  68.5667038  23.8373890  52.0909576  69.5657043  22.7331924  51.8194199
   0.1939886  21.6615772  67.0079727  -0.1021123  22.0782871  66.1987076
   0.4963187  20.7954750  66.7346649  12.8885555  13.1581678  69.4754028
  12.5830212  12.6158762  68.7482147  13.7103777  13.5367107  69.1630783
  60.2594376  36.8693886  33.5969162  61.0890427  37.2970734  33.3846130
  60.4458389  35.9336586  33.5201607  18.5511875  14.8770409  86.4057770
  17.9688053  14.1318626  86.2582321  19.4323845  14.5095730  86.3372955
  60.6308746  24.5258064  34.3690414  59.7054329  24.7593575  34.4414520
  61.0859947  25.3658276  34.3102188  49.7391739  22.0482464  12.1738434
  49.2915993  21.3588257  12.6643620  50.0153694  22.6763420  12.8412600
  81.0516891   8.9187927   2.4984396  80.1944885   9.1353655   2.8652275
  80.9168091   8.9311562   1.5508708  14.4043655  18.7285690  13.9916620
  15.1825991  19.0035706  13.5069370  14.7488289  18.2579918  14.7506971
  77.0670929  28.7841702  88.2478027  77.2978134  28.5389309  87.3517761
  76.2952881  29.3422070  88.1522064  39.0466309  61.1234474  35.0182877
  39.2426224  61.1805305  34.0831070  38.7624168  62.0055656  35.2577171
  78.3806839  17.4830837   7.8614783  79.1535950  16.9197521   7.8228412
  78.5134811  18.0186119   8.6436596  23.6218605  18.9386330  86.7989960
  23.5110073  19.7145672  86.2495728  24.4799404  18.5923176  86.5540543
  25.7699890  44.1442070  26.3403606  25.6017208  43.3676033  25.8066902
  25.9637604  44.8337708  25.7053928  76.5310669  53.8320770  82.4877853
  75.9041290  53.1155319  82.5865173  75.9995041  54.6256828  82.5499725
  76.5774994  36.2894135  25.1566086  76.5610657  35.3590889  25.3812351
  76.3880157  36.7381439  25.9806042   2.7998712  30.5922546  25.0143909
   2.3557093  31.3494778  25.3959198   2.8295476  29.9497261  25.7232704
  64.8388367  54.8778267  40.1643448  64.0472946  55.3844681  40.3460350
  64.5214157  54.0833778  39.7350044  69.1499710  23.2851562  25.6253014
  69.4384918  24.0524120  25.1310272  68.5871964  22.8061028  25.0170040
  22.0452805  67.8457184  68.1554871  21.7346325  67.6689224  69.0434494
  22.9986286  67.8740616  68.2364655  73.1671753  27.0605888  43.5093231
  73.8753433  27.0115833  44.1514549  72.4494553  26.5669918  43.9061470
  16.8629379  61.7903671  12.6468792  16.2512493  61.2929268  13.1896715
  17.5407104  61.1578369  12.4086285   7.8358579  24.0938931  80.6284943
   7.5151815  23.7127132  79.8111191   7.1319928  23.9375000  81.2580566
  69.5104904  34.9875793  67.4157181  70.4444046  34.9692574  67.6247787
  69.1019516  35.3944092  68.1797943  14.9055233  47.5598412  15.4873810
  14.9776878  48.1321335  16.2512589  14.5669069  46.7355385  15.8368034
  73.7623978   1.5980906  87.8522186  72.9574051   2.1098850  87.9314804
  74.4552841   2.1968007  88.1309433  69.1292419  37.0632133  69.4264984
  70.0446854  37.3267784  69.3330612  69.0676804  36.7237358  70.3193588
   3.0030398  45.2262917  81.1229401   3.6774104  45.2410851  80.4437943
   3.4068611  44.7542992  81.8512115  60.9412155  40.1853333  75.5301514
  61.2992249  39.8581505  74.7049179  60.3834152  40.9200592  75.2746811
  79.1669388   7.7904181  34.8499031  79.3376312   7.0692601  34.2440758
  80.0274353   8.1782827  35.0090714  77.5770340  23.1133194  31.2010498
  77.3480835  22.3077564  31.6646042  78.5184784  23.0401688  31.0443363
  47.5291443  30.3568783  60.3232689  47.5775604  29.4782162  60.6998901
  48.3733292  30.7551804  60.5352554  78.0260391  63.3113899  45.3649521
  77.8598557  64.1318207  44.9007225  78.9781036  63.2141609  45.3461494
  50.2112350  44.8194695  82.1543427  50.5471306  45.0757942  81.2954407
  49.3036346  45.1235924  82.1570816  46.6034050  23.2225094  16.5877628
  46.4866142  22.3737946  17.0146980  46.4876595  23.0395374  15.6553707
  52.6819382  38.1240578  18.2599926  53.6149712  38.1523056  18.4718552
  52.4571419  37.1941757  18.2918453   7.4694796  53.2458496  51.6986008
   8.2162409  52.6492004  51.6477127   7.0261669  53.1471176  50.8560104
  44.6220207  40.5614433  20.8481026  45.1812744  40.9815712  21.5015221
  44.5615387  41.2005463  20.1380863  68.5355911  46.2374268  62.7156105
  68.4458237  45.4146652  62.2347374  67.6450348  46.5849991  62.7639236
   5.6403575  31.9553223  57.1534615   6.0672007  32.7848969  57.3675766
   6.3062301  31.2907581  57.3301010  58.2322044  42.5394554  37.2379990
  58.3364716  43.3457985  36.7328529  58.1823082  41.8480644  36.5779114
  34.1014900  42.9001770  49.9667282  33.2663116  42.5756569  49.6299820
  34.7245255  42.1982193  49.7787971  70.6604462  26.2131481  49.6097527
  70.3930969  27.1121578  49.8008995  71.3853302  26.3051682  48.9914436
  69.7368927  47.7777901  30.4098969  69.0941696  48.2209053  30.9637794
  70.1317215  47.1190147  30.9811745  76.0490952  15.2682772  45.6403618
  75.8593979  15.7595758  44.8410683  75.1952667  14.9515743  45.9351654
  52.0037079   0.7698455  39.0447998  51.3975639   1.4275093  39.3858261
  51.9530144   0.0490123  39.6725426  47.9591141  50.5720558  72.1153030
  48.1517677  50.0872383  72.9178467  48.6070061  51.2764893  72.0996552
  49.1285248  66.4359894  54.2171860  48.1979828  66.4445877  53.9930153
  49.4199600  67.3348846  54.0645866  62.8467255  30.8712406  77.9577103
  62.1066246  30.2758446  78.0759583  63.1761665  31.0227242  78.8435745
  53.3225098  53.7807426  50.5235176  54.2330017  53.6022644  50.7588501
  53.2105064  54.7162857  50.6921806   8.4600925  55.6019554   4.9606147
   8.8421993  54.9832420   4.3381853   7.5207639  55.4198952   4.9332681
  80.2481384   3.5245032  16.4351635  79.5659409   3.7777486  17.0570202
  79.7814560   3.0480232  15.7485723  80.7748260  52.7021599   6.8172660
  79.9169159  52.8366699   6.4146190  81.3998260  52.9821091   6.1485057
  74.7630081  28.6026535  59.0505867  75.6158905  28.5382462  59.4803200
  74.2907715  27.8209248  59.3371658  61.2773018   8.9555464   1.2135626
  61.9937210   8.5467644   0.7278962  60.8206749   8.2235403   1.6281582
   1.8013330  23.9698257  55.2205811   1.2777376  24.5118961  54.6304665
   2.2765226  24.5979958  55.7644844  78.8669739  36.4863167   5.8161998
  79.0865250  37.4028244   5.6487298  78.9244919  36.0656357   4.9583244
  46.5778046  48.4654770  28.4964542  46.9278145  48.5361481  27.6083488
  45.8065414  49.0323830  28.4957504  77.0821381  71.0973053  16.9102821
  76.4212494  70.5468597  17.3303547  76.9350204  71.9695587  17.2760201
  50.8472519   5.3166504  69.8203354  51.7190590   4.9320097  69.7296143
  50.6899986   5.3336220  70.7643738  61.1747818  53.8089523  30.6896591
  61.4732094  53.9016800  29.7849083  60.2570877  53.5476379  30.6135750
  86.8413315  16.4165306  28.6984501  86.9474564  16.8557529  29.5422821
  86.2332077  16.9740353  28.2130547  39.0503883  45.6472397   7.7208490
  39.8789711  45.1720657   7.6584353  38.3795280  44.9770164   7.5905480
  48.8603783  29.1278763   1.6704599  49.3870277  28.7946091   2.3969624
  49.0384331  30.0682774   1.6572070  19.4602566  44.4571495  52.4601440
  18.8504486  44.4048996  51.7241859  19.2495613  45.2874413  52.8872910
  34.5880203  48.4074516  41.9529686  33.6672401  48.1839256  41.8172112
  34.5682487  49.2904434  42.3219757  52.0447235   7.4186659  65.0969238
  51.3088760   8.0149784  65.2353897  51.9025307   7.0623736  64.2199554
  29.3562412  32.9778671  87.5739136  29.9842815  33.6740608  87.7665710
  29.6898193  32.2163582  88.0483170  38.0457954  43.8676682  42.0102463
  37.7428589  44.7318993  41.7317467  38.2892570  43.4256210  41.1968880
  14.5444717  63.0500107  10.5685205  15.1658630  63.5769653  11.0709391
  14.6971226  62.1526451  10.8645983  12.2651052  39.4628906  61.5084534
  11.4508238  39.6279869  61.0331421  12.8551788  40.1600418  61.2220612
  76.5446854  62.8745232  60.0346298  75.9015732  62.7206650  60.7267075
  77.1277313  63.5432968  60.3938370  78.7594681  33.5511665  76.2649078
  78.9494171  34.3514328  76.7545319  78.0597382  33.1269264  76.7615280
  40.4736290  61.5848274  72.1686249  39.7759132  61.8291931  72.7766571
  40.6673508  60.6717682  72.3808212   2.1108320  54.9678078  62.0502663
   2.1361139  55.2883072  61.1486740   3.0294521  54.8300743  62.2813492
  35.7734756   9.0935345   6.1664577  36.6586075   8.7821007   6.3556261
  35.1995697   8.4616928   6.5996327  86.1648636   8.9631968  63.6689568
  85.6072617   9.7345572  63.7705460  86.5620270   8.8395443  64.5310516
   3.4835150   7.6407542  11.1923046   3.6094358   6.8841186  11.7649107
   4.2206111   7.6050687  10.5826750  71.9849548   9.8966742  87.6090698
  71.2024231  10.2099619  87.1555023  71.9800262  10.3628807  88.4450455
  71.6707230  64.8763046  74.0628662  71.0506210  65.0293121  73.3499146
  71.8755569  63.9430084  74.0059738   0.6433643  13.9163198  30.5386562
   0.6977509  14.5348377  29.8101578   0.4129426  14.4563351  31.2946453
  64.3607330  37.9453850  61.9510918  64.9631042  38.5397263  62.3984680
  64.0358276  38.4501495  61.2055206  18.4953327   2.1685109   1.6712658
  18.0851040   2.9279544   1.2575148  19.0916386   1.8259885   1.0054363
  80.8061523  68.0438232  16.0503273  80.8816757  68.9824753  15.8786993
  79.8658295  67.8685837  16.0139313  86.3637848   8.1419678   1.5226469
  85.4321289   8.3094139   1.3804532  86.5768814   7.4381452   0.9099048
  15.2618828  15.3445053  71.8631363  14.6264563  15.9631042  71.5028534
  15.4980803  14.7854242  71.1229477  28.5270195  59.4736862  86.9089432
  27.6759605  59.8781319  86.7405548  28.8501091  59.9140053  87.6950531
  20.0422573   1.6588242  88.4366837  20.7896061   1.0612447  88.4611816
  20.3194790   2.3652556  87.8533020  33.5333633   2.6978142  80.0021667
  33.3152580   1.8987712  80.4819489  33.0487709   3.3884704  80.4542694
  74.1813202  62.0947914  67.5946579  73.9533920  61.2180138  67.9037552
  73.4796066  62.3238525  66.9852600   3.4943719  48.4491577  35.9908905
   4.0294333  47.9412193  35.3810234   4.1025214  49.0814705  36.3737297
  16.7522202  54.5364418  34.4227943  16.8643246  53.6996613  33.9717293
  17.5863667  54.6814651  34.8693390  56.0085793  38.0773621  69.3449860
  56.4462967  37.7089729  68.5775757  56.4045486  37.6221581  70.0881042
  76.6114426  44.0055351  50.6562729  75.7087326  44.1225090  50.3601837
  77.1446915  44.3605156  49.9450340  18.1703224  12.4975834  79.6877441
  18.3345490  11.6148310  80.0194244  18.1189842  12.3908567  78.7378998
  54.9104805  41.7935524  72.0135269  54.2476463  41.1793098  72.3291016
  54.7831535  42.5781746  72.5467987  69.2337341  24.2372456  37.7480392
  69.8385696  24.0108051  37.0415497  68.8246841  25.0535526  37.4607162
  66.1878281  56.7958603  31.3145905  66.1416321  57.7034035  31.6153564
  66.8037720  56.3756752  31.9148293   1.4072536  56.5180817  15.7668238
   2.0556619  57.2047234  15.6108713   1.1819201  56.6072998  16.6928349
  19.5370445  44.0138817  40.7928467  18.8273945  43.4887581  40.4228859
  19.9206448  44.4628220  40.0394974  86.0374451  48.5955467  34.1108246
  85.5263214  48.3473549  34.8811378  86.7376022  47.9442596  34.0679359
  74.6004562  31.2606087  65.7569504  74.3527603  30.6467400  66.4483643
  75.2594757  30.7916470  65.2450943  83.1719742  62.7797165   4.2395029
  83.7587891  62.0301132   4.1395936  82.4859619  62.4697304   4.8307090
  32.9243813  20.9959049  77.9463272  33.4890175  20.4865704  77.3649521
  32.3273125  21.4568081  77.3569946  21.2226009  34.6339493   2.7341087
  20.6736145  34.9148445   2.0020261  21.8954277  34.0845909   2.3319368
  45.2025871  54.5052338  31.3851261  45.1987534  53.5493698  31.3347473
  45.7370605  54.7821617  30.6408958  10.9295330  31.0654602  48.7903633
  10.7375240  31.4818802  47.9501495  10.1352873  30.5747242  49.0015106
  82.4555817   8.1346178  44.2302017  81.8404694   7.4922180  44.5840225
  83.1089859   8.2461910  44.9207458  28.6061192   4.9033890  66.3116684
  29.1930065   4.2396655  65.9493561  27.8770618   4.9420633  65.6926270
  45.0783806  18.7898388   5.9815521  45.3689651  17.8784618   6.0159688
  45.7229385  19.2666492   6.5044537  56.2813530  19.3635406  35.6323853
  55.5878105  19.5713158  35.0062408  57.0829964  19.6793118  35.2153816
  71.5637283  12.8715792  83.4941101  70.9597549  12.6968870  82.7723541
  71.2273483  13.6706190  83.8998413  60.3653984  52.9881477  79.0709457
  60.0021248  53.8504410  78.8691864  60.6989708  53.0718155  79.9642334
  75.6963043  70.8652802  36.7960892  76.2687836  70.3492966  36.2284050
  75.8483887  71.7718735  36.5292816  51.4715614  22.4970608  36.7080803
  51.8054047  21.6137295  36.5515366  51.6715889  22.9748554  35.9031372
  69.2905884  26.4973755  79.0531693  69.7882156  26.1014957  78.3377151
  69.1227341  25.7739849  79.6571274  77.8553391  38.4793167  53.2656326
  77.9284668  39.1280479  52.5656090  76.9675064  38.5922775  53.6050720
  38.3813438  44.5829811  73.4416428  37.4966354  44.6246910  73.0786209
  38.9505692  44.8365517  72.7150650  77.0531921  42.3859062  52.7488251
  76.3833008  42.0979919  53.3689690  76.5800858  42.9335175  52.1223106
  59.0589371   4.0990224  67.1409149  58.6085739   4.4169798  66.3584213
  58.8024597   3.1792502  67.2077789  47.3194466  24.8402462  68.1192551
  47.4882088  25.2490788  68.9681396  47.1977043  23.9123440  68.3202667
  54.1570435  39.5004768  56.3765488  54.0027847  39.6937790  55.4518509
  53.4366112  39.9328918  56.8350563  72.3679504  44.9817657  44.8510742
  72.9983978  44.6022186  44.2389374  71.5720367  44.4648476  44.7263908
  10.3639526  57.3283501  37.4358788  11.2765474  57.0479012  37.3669624
  10.3893566  58.0843506  38.0224380  75.9804764  34.6175499  79.9100113
  75.2752533  34.9085922  80.4880981  75.5901642  34.6200638  79.0360107
  40.5889244  37.5391426  35.9194145  40.7002602  37.4111328  34.9773712
  41.3775291  37.1600227  36.3074951  25.7145920  36.1476593  23.7686939
  24.9629040  35.5563469  23.7293224  26.4461269  35.5880737  24.0293694
   3.9428813  12.9155922   1.3093896   4.0674562  12.4649305   2.1446245
   4.8027358  12.8846426   0.8899567  36.7914543  41.9707108  74.2690887
  36.1457443  41.9120865  74.9732590  37.1745796  41.0948029  74.2219086
  61.7041817  13.3890276  10.9809771  61.4199104  13.2890711  11.8895082
  61.3631439  12.6128855  10.5365343  14.9531927  22.5627480   5.0356526
  15.4765644  23.0302734   5.6866007  14.9071608  21.6652088   5.3651009
  74.5836411   8.2425184  88.5397797  74.4933090   8.9096069  89.2202682
  73.8092880   8.3561373  87.9886932  22.6336803   2.5744412   1.7920576
  22.4850082   3.5173869   1.7214741  21.8276405   2.2332234   2.1794877
  13.3730383  61.9986916  41.9654465  12.5717707  61.4755974  41.9894485
  13.6628094  61.9512978  41.0543938  63.0593987  10.4027185  29.3219147
  63.1355095  11.2872162  28.9639988  62.1665230  10.1332121  29.1065712
  63.1923103  30.9219303  49.4081688  63.4503860  30.3643837  50.1421776
  64.0071793  31.0849590  48.9331551  20.0825882   2.6304510  81.3079758
  20.1523972   1.6904416  81.1414261  19.4714546   2.9468415  80.6426620
  74.4394226  48.0618172  34.7515182  73.9653473  47.2317200  34.7022476
  74.0202332  48.6164551  34.0935745  17.6288795  53.5099564  81.9088821
  17.6747532  53.5632172  80.9542694  17.1527672  52.6975670  82.0808411
   7.6750064  11.2838030  85.6876907   7.6532598  10.3469143  85.4927597
   6.9704099  11.4127531  86.3226318   6.6457391  28.6448021  69.3524857
   6.9392376  29.5392971  69.5255966   5.8480420  28.7505627  68.8340988
  37.2914696  19.8411446  16.0888042  37.9274559  19.3315697  15.5867214
  37.3421631  19.4816551  16.9744854  28.9949532  35.2710991  16.8646755
  29.6961536  35.0207977  17.4662552  28.9694309  34.5645905  16.2193661
  25.9404926  21.3795853  73.0672760  26.8114605  21.1017494  73.3509216
  25.3621712  21.1263237  73.7867432  31.4587479  19.4364681  10.3341703
  31.5509872  18.4918499  10.2099915  30.5948524  19.6417999   9.9767408
  56.3835030  21.9132271  58.3282127  56.1951065  22.6322021  58.9313850
  55.5804825  21.3923721  58.3181572  78.1298599  16.3879967  16.2136097
  77.6854248  16.2483597  15.3774204  79.0353546  16.5848064  15.9736481
  68.2750549  43.8226433  60.7012405  68.0752106  43.1204567  60.0821838
  67.4298553  44.0459747  61.0911064  83.0146866  64.4757538  17.1754665
  82.9554291  64.5407104  18.1286182  82.5326538  65.2372894  16.8530693
  33.6325760  39.4415169  86.3696823  33.3042068  39.9538918  85.6308441
  34.5075150  39.7928772  86.5347824  26.7182217   1.5042264  65.4263306
  27.2262669   0.9945992  64.7951355  26.0531731   0.8947100  65.7463760
  31.1240025  22.8010960  76.3690872  30.5303974  22.2510834  75.8578644
  31.7807369  23.0956459  75.7380829  51.2502098  18.4717426  32.2489319
  50.9096451  18.2526894  33.1162605  51.9043465  19.1510162  32.4130135
  80.2829285  64.3612900  77.2698212  80.6629257  63.6264992  77.7514038
  80.1555099  65.0410919  77.9315338  86.7165375  19.4083061   8.0728102
  86.2774200  18.9569073   8.7936764  87.3270721  20.0076923   8.5020123
  20.6866722  14.0133696  79.3181610  19.8932610  13.8172121  79.8164139
  20.3768864  14.5079613  78.5594482  55.6245155  52.4236946  36.6763344
  56.3416901  52.4966164  36.0465889  54.9849968  51.8559380  36.2463379
  18.0567188  57.4888229  58.2937927  17.8490868  57.9934158  57.5073433
  17.3157520  56.8918648  58.3979149  56.5828323  32.3925095  27.6594048
  55.6941452  32.7478981  27.6467018  56.7240028  32.1329727  28.5698681
  29.5387115  47.6031761  48.4726181  30.2766037  48.1514130  48.2058182
  29.9221306  46.7375145  48.6135292  51.2686539  10.3204107  13.4237223
  51.5956688  11.1085587  12.9900007  50.3292351  10.3182487  13.2400799
  74.4231415  50.4264946  78.9387665  74.0220490  50.5208778  78.0747986
  74.4409714  49.4819145  79.0926590  80.4638290  33.3494339  31.5801163
  80.1604233  32.4432640  31.5250778  79.8055954  33.8519821  31.1001034
   9.5264702  65.5680847  67.1056366  10.1171989  66.2127380  66.7161560
   9.9250126  65.3574066  67.9500427  43.1409645  55.6643333  85.3414001
  43.9221649  55.5917816  84.7930450  42.4719772  56.0239410  84.7588425
  64.9495850  42.2284393  56.8036575  64.8181763  42.4700737  57.7204857
  64.0645370  42.1263809  56.4536400  84.2518768  26.0419636  36.7766304
  84.3819427  25.1748714  37.1606445  83.6604385  25.8910961  36.0392876
  67.4595795  16.7123222  88.4296646  67.8594971  17.5797405  88.3673630
  66.5211792  16.8736153  88.3315277  35.3112869  43.4604340  12.3939009
  35.1146164  44.0360909  13.1329346  34.5099831  42.9527245  12.2659149
  64.2023621   4.8863626  64.5354614  64.5378494   5.6275654  65.0397415
  63.7339935   4.3524542  65.1771774  79.8479004  11.1305866  80.5882339
  79.3141556  10.6743574  79.9376907  80.4039001  11.7159271  80.0739746
  21.6555061  40.4254646  11.3937168  21.2696877  39.6793594  11.8527431
  21.9898911  40.0568008  10.5760946  20.2857780   2.6428909  68.9568176
  19.7369404   3.0926013  69.5992889  20.7292137   3.3480113  68.4852219
   2.5550222  68.7868118  12.4658155   3.3429413  68.4338531  12.8791361
   2.8836946  69.3425064  11.7591276  64.3867035  44.7560120  19.7595615
  63.7187195  44.9449577  20.4186001  64.1269150  45.2762413  18.9992294
  30.7341080  45.3305969   4.4544034  30.7093430  45.1273003   3.5193698
  31.6607513  45.4792366   4.6427336  53.9779091   9.4291954  71.7107697
  53.9133148   8.8482924  72.4688034  54.3796196  10.2272835  72.0541611
  22.7029781  54.0512238  44.8780479  23.3484306  53.9061317  44.1862564
  22.7988338  53.2953339  45.4574203  24.7024803  67.7325745  34.1364861
  24.4237099  67.5556870  33.2380295  24.4513607  68.6433563  34.2902565
  63.9101982  66.8097610  29.9014511  64.0702438  66.9938431  28.9758549
  63.4138718  67.5662918  30.2137814  81.9965439   7.1040597  38.8803787
  81.2600403   6.5012197  38.9822311  82.0071487   7.6088057  39.6936150
  43.5991364  44.9113770  31.0418224  43.2538338  44.0926476  31.3977413
  44.4849854  44.6921959  30.7529240  56.4652176  56.7572823  31.8157406
  55.8149796  56.3553963  32.3918610  56.3192558  56.3440132  30.9647789
  10.0569000  64.9893417  79.5022278   9.9787216  65.3715210  78.6281281
   9.8418570  64.0647202  79.3794708   1.7430694  31.2109604  84.8138657
   2.0101058  31.2541637  85.7320480   1.1780552  31.9740353  84.6925964
  29.4472694  46.6751022  27.4653854  29.4462605  47.0806046  26.5983219
  30.0075912  45.9050484  27.3690090   6.5652523  20.9651909  75.8628387
   7.3427076  20.5285168  75.5148239   6.2863283  20.4120636  76.5925522
  72.5551453  20.2456093  57.0139618  73.3672028  20.5434113  57.4239731
  72.3668365  19.4075890  57.4364471  44.1460228  12.6201620  69.5913620
  44.4868698  13.4409513  69.2358932  44.8762016  12.0056543  69.5175400
  76.1248474  28.6820526  31.4684429  76.2250366  27.9251804  30.8910866
  75.4604034  28.4131031  32.1028023  15.5818892  17.5554295  54.2649498
  15.9921236  18.1828938  54.8601189  15.3693085  18.0685177  53.4853477
  28.3552704  31.8846893  68.8914642  28.9178200  31.1775379  69.2072296
  27.5822983  31.8454704  69.4546814  48.2505188  61.9124184  63.8884506
  48.5771027  61.0922623  64.2584763  47.5119667  62.1506767  64.4488144
  82.5128860   9.9762630  31.3153496  83.0107651  10.5881157  30.7731438
  81.6178589  10.0334444  30.9808521  70.2589874  29.4538097  63.8906593
  70.2447433  30.0649357  63.1540756  71.1738281  29.4389038  64.1718521
  55.3441315  11.5977936  22.3441944  56.2511063  11.7984314  22.5752201
  54.9549866  12.4483595  22.1408825  17.9716396  56.5079727  50.7335510
  17.9899845  57.0474281  49.9430542  17.4604053  55.7375450  50.4859428
  74.8391418  28.9342957  78.6986084  74.6707306  28.9213257  79.6407852
  75.7915344  28.9972248  78.6263809  34.5282936  50.9284401  78.3528061
  33.7687798  50.4158821  78.6296692  35.1826515  50.7741394  79.0341568
  81.6551971  12.5579062   1.6845465  82.3506622  11.9636879   1.4026448
  81.7562332  12.6111088   2.6349118  16.7222309  40.5551529  74.8246155
  16.6461620  41.4604683  74.5232086  17.5672779  40.2600098  74.4854660
  49.5623055  11.5366125  15.8240232  49.2420845  11.5360966  16.7260704
  49.3289337  10.6718206  15.4865265  55.7230721  67.1718521  10.5282030
  56.1567535  67.5122757  11.3106737  55.2661667  67.9278564  10.1595297
  85.2810364  34.3649826  73.5376205  85.5493546  34.7069359  74.3904495
  85.9200592  33.6795311  73.3425903  78.4758377  46.3343048  51.7317352
  78.1412201  47.2292213  51.7899666  77.7049561  45.8028145  51.5330276
  43.2439308  42.3773651  75.2348557  43.8914757  42.7280273  74.6233368
  43.4314957  42.8203506  76.0623932   7.4339867  60.4345169   2.0436633
   8.0336609  61.0952034   2.3902435   7.8306808  59.5986862   2.2891276
   6.5923090  46.2326012  30.1513844   7.0670214  47.0546265  30.2745056
   7.2217240  45.5537643  30.3947926  18.7330894  45.8309708  77.0427704
  18.5955334  45.9741402  76.1063919  19.6556759  46.0430489  77.1845093
   4.5362206  40.9959755  74.1743927   3.9386749  41.6798286  73.8718796
   4.3538160  40.9154968  75.1106033  30.3796082   7.5370307  76.7982330
  30.2911358   6.5969968  76.6409378  30.0111923   7.9465733  76.0154343
  63.7363014  65.5702133  51.1413002  64.3021469  66.2787323  50.8346176
  64.2314301  64.7718201  50.9578896   0.8814843  46.6261559  50.2117119
   1.0913197  46.8523827  51.1178131   1.5507272  45.9886360  49.9628792
  20.6108952  57.8474426  41.2694931  20.4244919  57.0989952  40.7026482
  20.8165474  57.4586563  42.1196594   5.8941197  70.0104752  60.4346848
   6.0464020  69.0876923  60.2309418   5.7092872  70.4155121  59.5873222
  17.7127399  54.2307930   6.8371558  16.8282661  53.9185905   6.6461968
  18.2864456  53.5318527   6.5231862  50.6940346   3.7668648  48.9481697
  49.8643265   3.3927200  49.2445374  50.5130081   4.7013917  48.8475761
  66.2523880   1.6689225  47.9446869  66.5554504   2.4032524  47.4106941
  65.8371124   1.0740407  47.3202744  34.7992897  38.2929878   6.5696907
  34.1571350  38.9917221   6.6947536  35.1625366  38.1425095   7.4424105
  22.4745579  18.8004932   5.6906238  22.0112743  18.5701885   6.4959559
  23.3401031  18.4041576   5.7905259  34.9489517  10.2482843  19.3104897
  35.2789230  10.5902605  20.1413937  35.5166092  10.6411724  18.6474400
   2.3898377  37.2082405  87.7768860   2.2494383  38.0861130  88.1316528
   1.7257991  37.1170464  87.0935364  63.9709091  16.6692333  60.3536148
  63.3019257  16.7527599  59.6741180  63.9951744  15.7331419  60.5520515
  47.0842628   5.5279469  82.6487961  46.3664360   4.9619017  82.3649826
  47.5691566   5.0000033  83.2831345  28.2406769   9.9584942   5.2974496
  28.5082645  10.6105747   4.6498237  29.0369225   9.7754879   5.7961807
  60.7454491  22.5782967  57.5413666  60.8914948  23.0764256  58.3455849
  60.5563240  21.6892071  57.8413353  50.5720863  34.3311691  35.9471741
  51.3164177  33.8268394  36.2755775  50.7507477  34.4413071  35.0132675
  47.6871185   2.3256130  71.4651184  46.9047241   2.8012216  71.1860352
  48.3415565   3.0079346  71.6147079  34.1799507  48.0532646   1.9792550
  34.7837601  48.7824593   2.1203966  34.6466980  47.2875710   2.3140600
  64.4373627  56.9285507   8.4067917  65.3301163  56.6577568   8.1925459
  64.2031784  56.3996887   9.1694784  51.3707161  35.7917061  70.7705765
  50.6717072  35.2084160  70.4749603  52.1598091  35.2503471  70.7484131
   7.7258587  44.7857552  17.1317291   7.0906487  45.1515617  17.7472992
   7.3065405  43.9926949  16.7978745  83.6300430  47.4720497   7.3152175
  84.0311966  46.7756195   7.8351078  82.6952820  47.4093132   7.5114760
  13.0027800  31.0705166  64.8719635  13.7222538  30.4849720  64.6359024
  12.2115459  30.5666485  64.6814499  71.3798294  11.9022713   5.0641122
  72.2169266  12.0455456   4.6225486  70.8994751  11.3137789   4.4817309
   7.9194899  64.0164871  10.6480465   8.0170145  64.8259659  11.1495094
   7.9441133  63.3223076  11.3066387  41.7923775  54.0465851   5.8946767
  42.6613312  53.6486740   5.9477468  41.2509537  53.3833122   5.4666991
   8.4999914  21.1164150  51.4782715   8.7602596  21.8761120  51.9991837
   7.7386150  21.4160786  50.9815445  76.3543549  44.4017754  46.2216911
  77.1698914  43.9727440  45.9627190  75.7024307  43.7009277  46.2150612
  35.7637177   9.0141201  74.4630737  35.4357834   8.1292000  74.3030472
  36.2253151   9.2477703  73.6577377  18.5728836  13.5420809  55.6178970
  19.3175907  13.6679897  55.0298615  17.9712868  12.9830313  55.1261902
  48.3839645  22.2392120  40.2918625  48.6903267  23.0534649  40.6910667
  47.8799782  22.5214787  39.5286102  57.4374962  56.6749992  85.4253159
  57.9191093  57.1143456  86.1262131  56.5924759  56.4544258  85.8171310
  82.1067963  31.8231010  80.1015778  82.1390762  32.4064941  79.3433914
  83.0242233  31.6870594  80.3383408  28.9406166  35.3911781   6.2098207
  28.1294765  34.8851776   6.1624341  29.0464478  35.7568550   5.3315773
  71.6653748  51.3538170  32.6286316  72.1979675  51.2149315  31.8455029
  71.1862717  52.1634369  32.4519653  46.3730240   2.2022324  28.5704746
  45.5729218   2.7276011  28.5627537  47.0645027   2.8223281  28.8019257
  13.2207403  31.2724915  86.7840424  13.3551807  31.0892296  85.8542175
  12.3182106  31.5867214  86.8381805  24.3443623  48.3273239  67.9246674
  25.2853184  48.4901924  67.8590240  23.9440384  49.1905289  67.8205109
  41.2880821  48.2309494   6.9626303  42.0473099  47.8218117   6.5474119
  41.0116234  47.6019402   7.6290746  84.8425293  63.1021080  86.3430634
  85.0761795  63.9523888  85.9706955  85.6617813  62.7668724  86.7073135
  60.9314194  23.9478359   7.4566236  60.7030869  23.6121902   8.3234787
  60.5708160  24.8343658   7.4404306  23.0760498  60.9197960  35.2991791
  23.3248997  61.8435173  35.2668991  23.7190876  60.4789658  34.7438354
  37.7365685  13.3729076   5.6594186  38.1768112  14.0416212   6.1840506
  38.4203606  12.7316084   5.4660435  33.2025833  42.5076599  27.8444195
  33.7192688  42.4483223  27.0408363  32.4625282  41.9186554  27.6973686
  51.8628273  34.6079407  51.2649117  51.3196564  33.8255501  51.3601112
  52.7598648  34.2910385  51.3704224  35.3907890  55.0764236  55.4126740
  34.4482994  55.1574364  55.2664604  35.4982262  54.2118034  55.8090630
  32.3196259  47.6370544  81.1200104  32.6578484  46.7428513  81.1672897
  32.8648643  48.1320038  81.7315445  31.1421089  37.2691422  87.9845352
  31.4508762  37.3861923  87.0860977  31.5812035  37.9600258  88.4806290
  12.9124308  46.9207687  60.0884857  13.5516081  47.5791893  59.8161545
  12.0895395  47.4035263  60.1661301  54.1146889  15.1752262  46.5024681
  53.6317978  15.8100882  45.9733162  54.1919861  15.5893097  47.3619957
  53.7520370  67.7054214  82.6035004  53.2136765  67.5416641  81.8291702
  53.3789024  67.1388855  83.2788086  68.9281693  47.4957275  73.2951965
  68.6221542  48.3978729  73.2018433  68.1276169  46.9710884  73.3052750
  19.1756687  27.8213940  76.8552475  19.6573582  27.2659645  76.2422943
  19.6514473  27.7351284  77.6813354  58.2525520  15.5531330  52.6310959
  58.2508926  14.9386864  51.8971443  59.1795692  15.7185211  52.8029060
  54.1437073  32.6432533  24.5190010  54.3095169  33.2647247  23.8101196
  54.3942833  33.1141129  25.3138199  35.2599220  59.4972420   6.1714153
  35.1897163  60.2686539   6.7337551  34.9427643  58.7754631   6.7142577
  77.9443359  43.4977837  41.6950684  77.0505829  43.4957428  41.3523827
  78.0028229  42.6970901  42.2163200  73.9950180  40.0810852  74.1206741
  74.2812271  40.8399506  73.6123047  74.6586456  39.9864235  74.8039551
  72.6595078  15.0744562  67.7902756  73.0622635  15.2655029  66.9432068
  72.2787476  15.9076614  68.0678101  47.6041985   0.1095131  18.3254738
  48.2176323   0.5175632  18.9365597  47.8549080   0.4542626  17.4684277
  12.5634527  13.3025637   4.7674098  12.9990425  12.5078316   4.4593606
  13.2693691  13.8369226   5.1312432  77.6971741  33.1292343  64.7393646
  77.1697159  33.5139236  65.4393845  77.2915726  33.4458656  63.9322319
  59.7017174  64.1568680   9.4669943  58.9168282  64.5094986   9.8863134
  60.4084702  64.7326050   9.7589931  75.3251724  38.7649345  42.0225792
  75.0374603  38.3728867  41.1981049  76.2652588  38.5880203  42.0567131
  54.7943153  71.0094833  87.2332916  55.1418877  71.0979462  86.3458252
  53.9231644  70.6315918  87.1127777   7.8939505  43.4825401  42.7363625
   8.4447336  43.1527519  43.4463692   7.6775789  44.3777580  42.9971275
  54.8514748  70.1358109  15.2782707  53.9037056  70.2686768  15.2959366
  55.2110176  71.0010376  15.0824623  34.0790253  31.7563114  60.2880859
  34.6026917  30.9563351  60.2428741  34.5781937  32.3981934  59.7830620
  27.6901112  42.9451637   3.3824027  26.8507118  42.4864006   3.4167299
  27.4697151  43.8253517   3.0775685  22.1735325  58.1609421  64.4508057
  21.4887314  58.8148460  64.3104935  21.7207813  57.3206902  64.3785172
  22.2408104  70.0120239   6.7008700  22.4779606  70.1921387   5.7911725
  23.0320683  69.6336517   7.0842490  46.1506805  40.7447052  53.3731461
  46.3055992  39.9016266  52.9471741  45.7541313  41.2879066  52.6920319
  71.0720673  15.6743374  84.5952911  70.6195526  16.4118328  85.0046387
  71.7718887  16.0778675  84.0818253  16.5764256  44.6878967  52.1602402
  15.6565628  44.9044113  52.3125801  16.7893181  44.0525475  52.8437881
  38.2839508  68.1499252   0.3087232  38.6475601  68.0118256  -0.5658895
  38.3613586  67.2976913   0.7376007  58.0572357  35.2234993  60.8616867
  57.5713882  35.9323883  61.2831841  58.4604568  35.6319275  60.0956383
  73.3479080  39.7535286  82.8091812  74.0063400  40.3645058  83.1399460
  72.6645050  39.7519417  83.4794006  27.3759060   6.6369171  15.1836872
  27.1268711   7.1855335  14.4398909  27.3860188   5.7467432  14.8319492
  37.3659630   5.0280309  43.5914345  38.1622658   5.5412803  43.7282257
  36.7836990   5.6137033  43.1075058  19.2019863  39.0767174  59.3952408
  20.0918961  39.3167458  59.6534691  19.2092361  39.1232300  58.4392014
  35.3764381  68.2735596   1.3946007  34.8399658  68.4024734   2.1767817
  36.2241669  68.6568298   1.6197560  20.8673000  17.5621109  80.6439972
  21.4522648  18.0936050  81.1839676  20.6283760  16.8240528  81.2047272
  55.1256638  10.3581886  19.6034946  55.9080124  10.8968534  19.4851627
  54.4361267  10.9832230  19.8273296  80.2052612  53.9338112  46.1679459
  80.5655823  54.6858330  45.6979828  79.4476624  53.6666718  45.6474571
  65.7057190  35.4802170  77.7594223  66.2382736  34.9076805  78.3115234
  66.3420486  35.9717407  77.2400742  74.9363708   8.9751434  30.2135181
  75.4481888   9.5025969  29.6002712  75.5036087   8.2329607  30.4224243
  81.3042679  13.9285326  75.0455704  81.6191406  13.9103508  74.1418228
  80.7256927  13.1689644  75.1129456  69.3863907  58.6310234  63.3350372
  70.0532913  58.7893181  62.6668930  69.2595139  57.6823044  63.3267555
   9.5808592  62.3136520  78.6324005   9.3441353  62.0688667  77.7378159
  10.3968296  61.8427086  78.8016205  53.6060715   8.3664999  33.9339180
  52.8088150   7.9998150  33.5516167  54.0364418   8.8149481  33.2059708
  39.0235748  59.6214981  55.7202454  38.3502464  59.0568199  55.3407707
  38.5598068  60.4271469  55.9484520  30.2244930  31.3490982  17.4111176
  30.2244511  31.2497654  18.3631496  30.1821041  30.4531708  17.0768261
  39.3172607  47.4698563  54.2124214  38.3981743  47.3682938  54.4598045
  39.3069458  47.4896355  53.2554817   3.8115954  59.5513077  23.2033997
   3.6401746  60.4816399  23.0573483   3.6654024  59.1439133  22.3496494
  36.7746735   9.9106779  87.5635757  36.4209785   9.0442352  87.7645874
  36.7451553   9.9657345  86.6084137  50.3274994  59.8274727  75.2365875
  49.9953537  59.7550354  76.1313858  51.2371674  59.5352402  75.2943878
  13.7902803  59.6970978  48.6282997  13.4641981  60.5411263  48.3160210
  13.3728838  59.5799599  49.4816971  45.9639130  13.6169844   5.9304199
  45.4340706  14.3991842   5.7766056  45.8422089  13.4242582   6.8600841
  13.7834911  10.3908424  87.7174149  13.5583515   9.7791796  87.0164032
  13.1254206  11.0828638  87.6519852  20.7657909  32.3636513  83.7900772
  20.2420959  33.1225548  83.5330963  20.8433800  32.4372025  84.7412872
  70.0950394  66.8539658  44.4611130  69.7134933  67.5036850  45.0514793
  70.3727036  67.3587418  43.6967010  58.9982338  38.0439224  18.2266521
  59.9387474  38.2209854  18.2443848  58.8557587  37.4334717  18.9500351
  63.5018196  53.2763786  61.1359444  64.3092117  53.2409554  60.6230164
  63.4427872  54.1862946  61.4271507  69.3471909  68.7752457  50.1884346
  68.7840424  68.1806793  49.6928711  70.2304382  68.5903397  49.8691940
  16.6465054  39.7107925  55.8865051  16.2587795  40.4697800  55.4507980
  16.1989574  38.9581604  55.4998856  36.6042366  51.1342354  60.5894470
  37.3659592  51.4003792  61.1043968  35.9465942  51.8059387  60.7698746
  31.3744602  67.7923584  15.4773664  31.7924328  68.4515686  14.9233131
  31.9121437  67.7689590  16.2689342  67.3423538  16.0423222  30.0029640
  67.1452332  15.4016724  30.6862946  68.0693283  16.5543957  30.3572655
  48.1366806  43.3703537  42.1492996  48.5483131  44.1114922  41.7048836
  48.0940819  43.6355858  43.0680313  14.3720322  59.2267494  53.6305161
  14.1037312  58.5484581  54.2503281  15.2367926  58.9477043  53.3295937
  41.2856750  51.7623940  35.5617180  41.6609917  52.1677361  36.3434219
  40.7896271  51.0144234  35.8944473  81.1532288  56.8491898  54.3150101
  80.5486374  57.0746651  53.6079979  80.9658661  57.4876556  55.0031128
  70.6769180  51.8656006  18.7678394  71.1526337  52.1408195  19.5515347
  70.0073471  51.2638283  19.0930748  69.4862442  35.5208092  87.0232697
  68.8820801  34.8376122  86.7326508  69.8882599  35.1639709  87.8152771
   8.5165768  52.4903564  68.6915207   9.2340813  51.8672562  68.5767746
   8.1250296  52.5676346  67.8214874  14.5820704   4.6231165  60.6398277
  14.6000423   4.3918576  59.7111588  14.9514236   3.8598380  61.0839195
  53.7788582  40.4165192  43.7795029  54.4275818  39.8482704  43.3641930
  53.1247444  40.5712891  43.0980225  84.3637390  29.1651344  40.1191864
  83.5926132  29.2661552  40.6772156  84.2103424  28.3483582  39.6442337
  68.0471344  17.4577236  83.4902344  68.3627548  17.5101967  84.3923798
  67.9115753  16.5224915  83.3379364  82.7983170  71.4186172  62.9816093
  82.2715302  71.3141556  62.1892624  83.5768890  71.8934326  62.6907310
  67.4000168  26.9847717   2.9141312  67.3360443  26.1577682   3.3918390
  66.8342133  26.8651619   2.1513770  58.4854126  41.7874260  24.9798622
  59.3660355  41.4125557  24.9942455  58.4916649  42.4405327  25.6796093
  34.7624283   5.2854867  20.0923538  34.3489761   4.8655090  20.8466129
  34.9070625   4.5722685  19.4705544  48.2638474  11.5054560  68.1440353
  48.8767853  11.0067806  68.6842804  47.4982147  10.9366713  68.0633011
  53.0685577  48.9136009  58.0359993  53.1567955  48.5816650  57.1425438
  52.6857758  49.7846489  57.9311829  50.4646492   3.2404335  32.7541656
  51.0767555   2.7125363  32.2414474  50.9797440   3.5472820  33.5003242
  11.7778406  12.2761002  49.9895973  11.2671032  11.4925194  50.1930199
  12.4904957  11.9599972  49.4342308  82.2786636  50.9997292  41.5195885
  83.0548706  51.4465446  41.1818161  82.2643051  50.1618614  41.0569801
  14.4658680  53.9509315  67.3991776  13.7032366  53.3729935  67.4239426
  14.2799740  54.6211052  68.0568619  73.9839706  36.8258667  58.9241180
  74.4112778  37.2943306  58.2070541  74.6690292  36.2624779  59.2840080
  73.7982254   8.4706736   8.4671574  73.9666595   8.7322674   9.3723822
  73.9282761   7.5223556   8.4637432  70.4233170   4.7010336  67.9380875
  71.3358307   4.8142071  68.2040634  69.9522018   5.3969359  68.3963394
  65.8915787  55.7745514   0.8885992  66.5293427  55.1663666   0.5149659
  65.5188446  55.3030014   1.6335431  56.8161812  38.5709343   8.9270029
  55.8697319  38.6159668   8.7912188  57.1552277  38.1790237   8.1222134
  53.8060226  54.3846741  76.2787247  53.9328690  55.2004280  75.7942810
  53.4193230  54.6578140  77.1106491  43.0566177   4.5895882  56.3801384
  43.5389519   4.3060880  57.1568069  42.1857452   4.2067046  56.4860306
  10.4326620  53.9572067  49.9112701  10.0231314  53.0927467  49.8762245
  10.7500095  54.0355988  50.8109245  66.9722824  40.3556328  85.5011444
  67.5377121  39.8617477  84.9073410  67.5346298  41.0493698  85.8457108
   3.1528323  33.1575317  74.4465485   3.8797612  32.7013931  74.0225906
   2.8013692  32.5212212  75.0692978  26.9362450  47.6663399  47.6045036
  26.9770679  47.0830269  46.8466721  27.8382263  47.7101288  47.9219055
  45.4869080  45.7149239  61.3033981  45.1132889  45.7734795  62.1827240
  45.6202545  46.6250877  61.0387230  12.9413118  17.2031708  78.9555359
  13.4708643  16.8748436  78.2288971  12.0516806  17.2433128  78.6045685
  36.6402664  62.9064140  19.6570835  37.0991058  62.0884705  19.8485737
  36.3116188  62.7935371  18.7651844  72.4042206  25.6714478  66.0939178
  71.6600952  25.6732101  65.4918289  72.0339813  25.3927860  66.9314728
  68.3119659  19.3382854  78.6310043  67.4487991  18.9397717  78.7422180
  68.2140884  20.2234783  78.9818344  10.5590019   6.0823426  73.4917068
  11.1702490   6.5225816  74.0822983  10.8379297   6.3493128  72.6158295
  80.4847107  49.8787804  87.0145874  81.1938858  49.4474182  87.4912720
  79.7140198  49.7556152  87.5687561  12.7775545  52.6661911  38.9151955
  13.1710424  52.4518890  39.7610512  12.7037172  51.8245544  38.4652710
  66.2181091  51.7495422  39.7921715  66.3001175  52.0589447  40.6942673
  65.6040573  52.3601913  39.3844070  46.4369736   7.7101240  80.7881241
  47.3297005   7.8854632  80.4905777  46.5341072   7.4731297  81.7104187
  51.7932243  50.4218941  64.6212997  51.0334625  50.9559364  64.3893814
  51.4210930  49.5886955  64.9103165  22.1884060  43.8221626  61.0916100
  22.4278412  44.7097664  60.8250275  22.5621147  43.2593918  60.4134789
  86.1527176  19.9613705  12.4382429  86.4657135  19.3275146  13.0836058
  86.0184174  19.4465733  11.6425180   0.1007259  32.7087097  54.6294136
   0.7472150  33.3977661  54.4761734  -0.4506080  32.7192650  53.8470116
  55.3949432  38.2709503  18.9383163  55.4442940  38.6005325  19.8356304
  56.2035713  37.7722397  18.8215237  37.3136482  30.6780224  69.3834534
  37.0685577  29.7709064  69.2009659  36.9435997  30.8568287  70.2479324
  58.0907173  43.7358437  27.5729179  58.3267784  43.0974350  28.2459278
  57.5588608  44.3844490  28.0340767  68.8251572  61.4988441  76.8626328
  69.0550537  62.2829971  76.3641510  67.8882141  61.3814774  76.7058105
   4.6807356  54.3182411  21.4158745   5.1127095  54.6204109  20.6169205
   3.8361759  54.7687416  21.4165745  14.0392971  45.2252197  52.7360878
  13.6090984  45.6413612  53.4830742  13.8334188  45.7936211  51.9939537
  14.5697842  26.8564281  10.1106586  14.8439827  26.3899441   9.3210773
  14.3990297  26.1650124  10.7502050  69.4524231  29.6076183  82.3513794
  68.8429871  29.9133854  83.0231857  70.2515106  30.1114826  82.5056763
  25.0632553  57.4599533  69.1086197  24.3533745  57.4659119  69.7507019
  25.8288517  57.1634750  69.6007538  25.1403561  64.2217560  72.7457581
  24.6677170  64.7092133  72.0710449  24.7771683  63.3372688  72.7009506
   6.1235433  67.5480194  79.3594666   6.7431893  66.9671097  78.9180908
   5.3917351  67.6270142  78.7475433  56.8375511  50.9357185  70.7946930
  56.5544090  50.0226173  70.8427734  57.5314865  50.9368973  70.1353912
  63.8261566  55.4540253  69.1581726  64.4329376  55.1504593  69.8333664
  63.4601555  56.2646370  69.5119858   1.3936412  46.1303062  41.4363556
   1.0210664  46.0214577  42.3113251   1.7305468  47.0262260  41.4292526
  38.9562035  34.4156609   6.7592249  39.0550880  34.0059929   7.6186585
  38.9099617  33.6808624   6.1475315  69.7569046   5.5342278  25.0716953
  69.6987610   6.2691717  24.4611969  70.6841812   5.2967634  25.0730324
  30.2085304  63.2851639  15.8643055  29.4366608  63.7920341  16.1163597
  29.9108906  62.3754539  15.8726635  82.6296082  23.1962929  46.2846184
  83.1830444  23.4620361  47.0190048  83.2380142  22.8137550  45.6523666
  83.5957336  30.9465618  56.0691490  84.4217529  31.2491264  56.4464836
  83.8044891  30.0933743  55.6887207  54.1834335  33.7437439  61.3154449
  53.8296280  32.8699226  61.1496239  53.4164047  34.2771530  61.5237007
  68.6160736  48.0146103  13.0922804  68.4416428  47.8049545  12.1747551
  69.1975555  47.3155594  13.3913374  17.3013973  48.5592995  18.6107807
  16.6518841  49.2142105  18.3549347  16.7970867  47.8894882  19.0725746
  48.2775803  43.0376015  44.9456978  47.5436707  43.3731194  45.4605141
  49.0466385  43.1969872  45.4928513  14.7356319  49.4984474  17.6585312
  14.3974380  50.2794456  17.2204647  13.9778280  48.9184074  17.7328014
  13.5447769  41.0862350  17.2431183  13.5502310  40.1406670  17.0944386
  14.0072498  41.4500694  16.4881535  13.7982006  68.9879990  69.2491074
  13.7039404  69.6083145  68.5262299  14.2355042  68.2308807  68.8595352
  25.0495338   9.7236862  12.8653374  24.7935219  10.4415007  12.2861719
  25.8985271   9.9911242  13.2173605  29.0244122  42.3376579  18.3560390
  28.6657467  42.8114166  19.1064663  28.5252953  42.6627388  17.6067486
  57.0964737  34.8232193  67.4812698  57.1457710  35.7762108  67.4063797
  56.4638863  34.5627594  66.8117752  63.6055298  13.0132618  19.7349453
  63.4158440  13.3307705  18.8520870  62.8288383  12.5107183  19.9807682
  52.8803749  57.7954636  63.8098259  51.9475479  57.9026566  63.6238861
  52.9106636  57.4969559  64.7187881  65.9975891  49.1624298  78.4154434
  66.6759567  49.7409019  78.0669937  66.2541580  48.2882919  78.1217117
  46.3657379  36.9447060  77.9317780  46.9605560  37.6946411  77.9365005
  46.8000031  36.2911034  78.4799118  74.3299255  15.8384600  57.6368790
  73.8666458  15.5062351  56.8679619  74.6510010  15.0535192  58.0807381
  12.6745338  36.7257843  54.1282845  12.9403601  35.8645058  54.4504128
  13.2949343  37.3338165  54.5303192  23.0950565  38.2540817  62.5083313
  22.1481800  38.2482758  62.3682480  23.3202724  37.3363113  62.6606712
   5.7254958  49.3348808  17.5951099   6.5982113  49.0764847  17.2987461
   5.2999663  48.5113220  17.8336639  69.0497437  70.9078369  59.1350479
  68.9872055  70.5896301  58.2344551  69.1202240  70.1139908  59.6652069
  17.0272732   1.1363299  66.2980957  17.5463676   0.5050284  66.7963257
  17.6756878   1.7054412  65.8834839  59.3421555  14.9931097  31.6018028
  59.8554153  14.2412472  31.8976078  59.9838333  15.6960497  31.5000610
  67.4355087  57.5765839   3.4184160  67.4330978  57.9375725   4.3049331
  66.9383011  56.7618065   3.4902301  44.1002960  42.5766106  15.7113571
  44.4000359  42.4547501  16.6122112  43.3031654  43.1002159  15.7929239
  26.0684013  24.8119030  86.0034027  25.7572842  24.7680340  85.0992432
  26.9524803  25.1724491  85.9352646  38.7872238  18.0641403   4.1754117
  38.4695168  18.9612255   4.0727930  38.1039925  17.6245060   4.6815257
  78.7741241   6.6786098  42.1244278  78.0946732   6.8685269  42.7713470
  79.1363831   5.8358741  42.3979187  74.1035690  36.4003677  34.5156822
  74.0792999  36.8636055  33.6783943  73.4986496  35.6673851  34.4015007
  22.4168530  16.3699379  65.0633469  22.0189247  15.5341282  65.3068771
  21.8307648  16.7291908  64.3972626  55.1254578  20.1459370  23.8209877
  54.2519836  20.3249416  23.4728050  55.2831841  20.8526096  24.4470615
  57.5957031  52.0952988  60.0947304  57.9864883  52.7205811  59.4843712
  57.2469292  51.4009590  59.5357323  73.8164749  13.6151762  84.5273590
  73.5663147  13.3280954  85.4055634  72.9931870  13.6393080  84.0396729
  29.2230854  43.0093689  72.2184143  29.4172535  43.9355125  72.0742416
  28.9476662  42.6860313  71.3606110  44.4271049  54.3823586  58.2960396
  44.2303543  53.4586182  58.1403885  44.4960899  54.4554558  59.2479477
   2.6785867  28.5295563  74.1155548   3.3461273  27.8440113  74.1410446
   1.8507396  28.0619926  74.2263947  40.6885338  11.8845434   7.7412844
  40.1545181  11.1084509   7.9108148  41.2517548  11.6325521   7.0094948
   3.2386544  70.0181198  58.3316383   2.5747709  70.3445053  58.9390602
   2.7700543  69.3940811  57.7773628   6.1880102  17.0694427  19.3571396
   6.2925706  17.7192268  20.0521793   6.9974232  16.5591164  19.3826199
  48.5852356  60.8712502  21.5059910  48.4638023  60.9884605  20.5637875
  47.6977539  60.8781090  21.8645477  76.9663391  62.1162033  36.3987465
  76.1615067  62.2797546  35.9070892  76.9456329  61.1778908  36.5868111
  71.0795441  43.6266670  80.3413620  71.6998596  42.8998299  80.2851868
  70.4589844  43.4674454  79.6301804  21.2066116  62.6449547  19.9247456
  22.1468487  62.6345596  19.7456455  20.9236298  61.7434654  19.7715454
  13.3848820  22.5958881  81.5261841  13.6439381  23.4648781  81.8327408
  13.8426151  22.4898033  80.6922455  10.5223150  36.9470749  87.2332916
  11.0074844  36.1262360  87.1492081   9.6120548  36.6761246  87.3526382
  51.7340736  26.0210342  53.2305832  50.9352875  26.0705490  52.7054939
  52.3563461  26.5871582  52.7739525  44.8233604  46.9307556  -0.1586827
  43.8783188  46.8851471  -0.3037528  44.9883728  46.3023720   0.5442670
  82.8652802  18.1973839  18.8876781  82.6947098  17.3484936  18.4796066
  83.7940216  18.3601112  18.7227631  73.6543808  37.9071770  45.3755722
  74.4485703  37.6252556  45.8294716  73.6612091  37.4164696  44.5537491
  51.5685997  28.5822258  38.7092705  51.0375481  27.7873898  38.6597519
  52.0795174  28.4792862  39.5121422  41.0006027  51.0950928  17.8934765
  41.9268875  50.8806915  18.0042095  40.6928711  50.4875259  17.2208710
  83.3723526  28.7993660  87.4474411  84.2696075  28.6979828  87.1298218
  82.9882584  27.9267044  87.3627701   1.6297303  10.3846865   4.1950340
   1.1959304  10.5273275   5.0362849   2.5637937  10.3844147   4.4042163
  33.2629509  56.6843643  26.0632954  32.7604828  55.9028168  25.8332176
  33.8723640  56.3870201  26.7388935  28.1367455  50.2403564  41.9940414
  27.4696789  50.1278534  42.6712418  28.6827908  49.4572372  42.0632782
  31.6103821  57.0767555  28.5427017  32.3756866  56.5030441  28.5053864
  31.4995441  57.2679367  29.4740429  31.0693951  65.9338531  31.0196018
  30.5384445  65.5466232  30.3236294  31.1734390  65.2308044  31.6608009
  69.9880676  50.9639435  22.2808075  69.7368164  51.7484169  22.7683582
  70.7729797  50.6458588  22.7268639  12.1089563  13.7758379  75.2912216
  12.5194845  14.6041470  75.0430222  11.1734686  13.9746180  75.3309784
   8.0758972  31.7586803  23.7945995   7.9902534  32.4691696  24.4302902
   9.0189466  31.6767826  23.6525383  31.7742310  45.6249008  74.2037964
  31.0699100  46.1182861  73.7833939  31.3236294  44.9537811  74.7164230
  23.0718327  69.1899719  77.0876236  22.7669621  69.9572525  76.6033020
  22.4452267  68.5015411  76.8647919  29.2942562  41.2082062  42.3164291
  28.3941231  40.9159660  42.1729431  29.8332481  40.4635048  42.0497093
  29.0449371  65.2135239  65.6559143  29.4548836  64.9651718  66.4844666
  28.5662994  66.0176849  65.8570786  16.6908779  58.9733810   3.3833559
  16.4538383  58.2054291   2.8634565  15.9829454  59.5978050   3.2247519
  74.3047180  24.1369438  81.0190811  73.9994812  24.9149418  80.5524139
  73.6703720  24.0173397  81.7258606  10.3312035  35.4310646  57.5514488
  10.1805964  35.1720238  58.4605408  11.1318064  35.9548836  57.5811577
  41.7932014  69.6045761  83.7263641  40.9471474  70.0347977  83.6025162
  42.4247131  70.3231354  83.7595291  60.6407700  24.8485775  86.2405701
  61.1085587  24.9729595  85.4147720  59.7159996  24.9262333  86.0060349
  68.1086807  60.7927017  50.3401947  68.0912018  61.1095695  49.4371338
  68.6353760  61.4388771  50.8106003   1.2669022  42.4929047  82.2046661
   1.1330556  42.0508575  83.0430679   2.0973587  42.9573936  82.3087006
  54.0864944  46.4887657  42.5519180  54.6307678  45.7424316  42.3009529
  53.6497917  46.7500839  41.7412148  14.2510614  15.5833187  16.2079105
  13.8467951  16.3386803  16.6347923  13.6394529  15.3464851  15.5107183
  46.1651230   2.4819393  20.8960743  46.7861023   1.7863805  20.6797085
  45.3091774   2.1174352  20.6708488   6.3518553  59.9474106  48.0874062
   5.4788799  59.5781822  48.2208824   6.7618804  59.9112968  48.9515877
  41.1082649  22.2609062  87.6525345  40.6145134  21.4437428  87.5840836
  40.4421577  22.9472084  87.6135864  56.4698296   3.4202819  18.5354919
  55.7181435   2.8825276  18.7845402  56.3097649   3.6459739  17.6191559
  76.8393402  30.4138260  14.1604891  76.4053802  31.0640202  14.7128992
  76.5342941  29.5713997  14.4973755   5.0706534  46.5859146  41.5390205
   5.0592813  46.8464661  40.6180344   4.4175811  47.1485329  41.9551811
  20.0738277  41.5803871  27.0995789  20.8785172  41.2773361  27.5201359
  19.4769650  41.7601242  27.8259945  76.9155731  44.5265770   1.7505013
  77.0913544  45.4672241   1.7732161  76.8667984  44.2697296   2.6713066
   7.2194109  14.9303055  16.9636574   7.8120227  14.2627945  16.6180096
   7.7948980  15.6487017  17.2262478  41.2088051  32.8061714  67.7714310
  41.0920715  32.7521896  68.7199478  40.6278954  32.1315117  67.4198456
  69.2768860  37.0550690  39.9056435  70.2123184  37.2080536  40.0390472
  69.0820465  37.4773598  39.0690193  48.9578667  52.4629326   7.6672583
  49.4350548  52.8097382   8.4210815  49.5374146  52.6232414   6.9225068
  72.3100128   1.6043589  29.6323948  73.1233826   1.7013576  30.1276321
  71.7164230   1.1532519  30.2327175  17.6857777  47.4439125  14.6765823
  18.3003139  47.8452530  15.2909946  16.8463879  47.4538078  15.1365385
  58.1488838  25.4182224  74.4722977  59.0866814  25.5003796  74.6455460
  57.7728653  25.1511269  75.3110504  46.8123665  28.9839134   9.0608597
  47.5348167  29.2662544   9.6217384  46.7370872  29.6739197   8.4017286
  36.2056160  29.9828663  60.2995529  36.8161240  29.7912025  61.0114365
  36.2929268  29.2397575  59.7025604   5.6134963  55.3971825  52.4049263
   6.2613883  54.7256241  52.6181793   5.6222181  55.4433937  51.4488831
  23.9384537  63.6060410  61.0310211  24.0989838  62.6820946  61.2227974
  24.4313335  64.0789871  61.7015610  58.5101814  45.2703705  78.3708344
  59.1373405  44.6434898  78.7312851  58.9530830  46.1164627  78.4356689
  54.4819565   8.3544693  52.9476089  54.3745995   8.6338196  53.8568230
  54.6315804   7.4106655  53.0031013  52.9501038  26.9352646  21.9776230
  52.1143646  26.9722519  21.5124302  53.2945099  27.8266602  21.9225845
  12.9491968  55.7718353  25.3835125  12.5747910  54.9919662  24.9738121
  13.8316126  55.8342476  25.0178890   3.8868561  53.4956512   2.7842729
   4.1694808  52.9944611   3.5492332   2.9845023  53.7462959   2.9821761
  79.7844620   2.2014697  20.7599583  80.5967941   1.9668059  20.3113194
  79.6940689   3.1432540  20.6146908  13.3928204  59.9254150   0.2968149
  13.9919491  59.1801300   0.2540673  13.7760191  60.5032272   0.9567567
  75.2376251   4.2209034  66.5858154  74.7335129   4.5101495  65.8252640
  75.1114120   3.2723734  66.6101761  28.2384300  44.0627480   6.3239250
  28.0828552  44.2226334   5.3930836  28.8816395  43.3540726   6.3409925
  18.0353317  18.2943478   4.7629547  18.2208748  17.4486752   4.3547354
  17.5205421  18.0773106   5.5402055  10.5656042  59.1250496  48.3612061
   9.6203470  59.2642365  48.3033485  10.7604532  58.5079956  47.6558609
  59.8312340  11.2507820  57.5564346  59.0408287  11.4304361  58.0655632
  59.6877174  11.7015114  56.7242813  45.3224449  30.3735409  44.9496765
  45.9364929  29.6852684  44.6938248  44.6212502  29.9106121  45.4082031
  51.3315506  11.5361814  36.1401329  50.4185257  11.8232632  36.1543922
  51.6405792  11.6759577  37.0352287  12.1373739  39.7136917  67.5804825
  11.7699738  39.0029564  67.0550308  11.3907032  40.0620384  68.0676880
  57.7833519  19.5226269  30.3501072  58.2986031  19.4088326  29.5514832
  58.0904312  18.8291702  30.9341030  78.4673843  18.7007694  62.9452057
  77.5283585  18.5726185  63.0795212  78.7231140  19.3263340  63.6230736
  81.9808121   4.4475694  76.2652588  81.5396729   5.2946548  76.2014084
  82.7130966   4.6032305  76.8617096   2.2438467  62.6812439  18.3729820
   1.4783509  62.2576103  17.9846764   2.5012693  62.1007538  19.0892200
  85.7044830   3.9835732  30.3800926  86.3804245   3.3317423  30.1944695
  85.6603241   4.0173783  31.3356762  85.9142609   9.8106508  58.8132362
  85.1786499   9.2063961  58.9131279  86.2316055   9.9512053  59.7052956
  42.2388153  42.6412430  32.5509796  41.2992477  42.8240929  32.5485077
  42.4318161  42.3913689  33.4546089  10.6668806  30.9745483  24.4665413
  10.1911650  30.3668137  25.0327435  11.5898123  30.8069344  24.6571579
  76.9412918  25.7936592  36.6237221  76.1715927  26.2210064  36.2480049
  77.3978195  25.4177151  35.8710709  70.8066940  64.1444016  33.7193527
  71.5404968  64.0258026  34.3224258  70.1105042  64.5179062  34.2597580
  68.8148041   1.6266831  82.9515610  69.1270370   2.4469779  82.5696487
  67.8775024   1.7666208  83.0861359   5.5449238  69.3417969  27.0428963
   5.0119147  69.3126678  27.8374310   5.3388643  70.1886597  26.6471634
  75.8383942  65.1005783   4.3769403  75.9585800  65.4194870   5.2714148
  75.8563919  64.1470032   4.4581966  49.2616577  13.4930153  42.5235939
  49.5419044  13.4791632  43.4387474  48.3103218  13.3948088  42.5629196
  74.5144424  32.2287216  32.2518501  74.0613480  31.5005112  32.6768723
  74.2518921  32.1707306  31.3331909  79.9812775  61.8691025  67.7822800
  79.3815308  62.2699394  67.1530991  80.3153000  62.6040993  68.2965164
  42.0640411   5.6860719   7.5970612  42.1751747   4.8077507   7.9609733
  42.3449364   6.2733755   8.2987757  65.0906601  33.7838593  13.7523575
  65.3682175  34.3536491  14.4696684  65.6909485  33.0393257  13.7918835
   6.1403656  56.4087677  37.2302933   6.9313250  55.9551125  37.5215225
   6.2322221  56.4636536  36.2790947  80.3957520  24.7424889  13.5140963
  79.5142441  25.0886726  13.6531258  80.9390717  25.5186081  13.3774586
  82.8278656  22.9656506   5.2635193  81.9421997  23.2250156   5.5175853
  83.3963852  23.4004669   5.8990965  82.0145569  43.0070000  43.3162842
  82.1464920  42.1834373  43.7859383  81.8029785  43.6418076  44.0007439
  42.3016052  62.9589272  38.5275879  41.9062614  63.6414452  37.9852715
  43.2397156  63.1476555  38.5039787  65.9187317  17.5948105  49.5636787
  65.5576935  18.1145592  50.2818336  66.0400925  18.2224331  48.8512230
  54.3356247  33.5036201   4.5109315  53.5993576  33.9691544   4.9076872
  54.0294647  32.6008644   4.4241934  52.5564461  22.1089993  62.9201736
  52.4843025  21.2903137  62.4294815  51.7118988  22.1988525  63.3616447
  39.5846405  59.9151535  88.0301437  38.6362228  60.0415344  88.0577850
  39.7217674  59.2848358  87.3229446  21.7213249   2.7252588  62.2164688
  22.3609943   2.7430685  61.5046120  22.0002480   3.4253178  62.8066788
  38.1864395  17.5556183  11.3433285  37.9042358  18.4422550  11.5679722
  38.7237816  17.2799187  12.0859509  40.4583893  36.3281937  24.8547802
  41.2492409  36.6703262  24.4379654  39.8128014  37.0276947  24.7540550
  65.5418549  49.5651054  51.9972382  66.0687180  50.3584518  51.9010887
  66.1767197  48.8797874  52.2058411  50.7565842  43.0527458  78.5453186
  50.5715981  42.9081802  77.6173553  51.5052109  43.6492119  78.5502167
  39.0059242  38.8882484  42.3412132  39.5589752  39.6677742  42.3932419
  39.0357285  38.5142250  43.2218094  86.4685364  21.7985249   1.4224459
  86.6136703  21.7031765   0.4811295  86.3132248  20.9063225   1.7324264
  46.5955429  40.9115295  55.9919167  46.9202003  40.0449333  56.2365303
  46.5653076  40.8947411  55.0353432  35.9909019  42.7775688  81.0130081
  36.6680679  42.7529411  80.3369370  35.5687561  43.6289558  80.8982697
   0.4703861  54.4825630  29.1015339  -0.2563821  54.7626762  28.5451374
   0.1280190  53.7281418  29.5809765  57.9443970  41.3936920  39.8794289
  58.0195465  40.5002899  39.5441399  57.9710999  41.9458275  39.0979805
  12.4283714  32.9912872  83.4700165  11.7892885  33.6764946  83.2743225
  12.0657053  32.2030220  83.0658569  48.3400612   8.6931705  15.6392012
  49.2628059   8.4396849  15.6163845  48.0717354   8.7035322  14.7204380
  51.3524246  50.8354111   2.6693292  52.2590752  50.7787056   2.3676620
  51.0389099  51.6735420   2.3295040  21.3669224   4.1232505  83.4239426
  21.7692528   4.9324889  83.1085205  20.6938915   3.9212170  82.7739868
  67.7239380  25.6638927  75.3394775  68.5750198  25.6612320  75.7775269
  67.7601776  26.4173946  74.7502823  65.6131592  51.9201126  13.7061214
  66.1615906  51.9402733  14.4903698  65.8024216  52.7456894  13.2602129
  47.5915260  50.7175140  14.3417168  48.2336197  50.4471169  14.9980965
  47.3622055  49.9089127  13.8836641  10.9599781  34.4815369  73.5648880
  11.0140982  35.2269058  74.1629868  10.0223656  34.3063507  73.4847336
  53.2431602  51.3621902  16.2094975  52.4991570  51.0206566  16.7055264
  53.8735771  51.6307983  16.8778229   1.3859868  63.1059265  12.5641432
   2.3108492  62.9258156  12.3955593   1.3263608  64.0611877  12.5763597
  47.0569458  28.8346157  40.2715454  47.6543045  29.4330311  40.7201996
  47.2276535  28.9789047  39.3408051  79.3711929  31.0432110  58.5856781
  79.4262390  30.0897903  58.5209465  80.2814026  31.3381195  58.5577812
  14.7970400  14.4380245  84.3955688  15.5536575  14.9825821  84.6128693
  14.0764313  15.0595207  84.2921371  54.6147232  16.7067375  68.4227600
  54.1448250  16.0651340  67.8900604  54.1932068  17.5416985  68.2193069
  54.3324814  30.4707565  80.9309769  54.8884201  30.7294178  80.1959534
  53.5152969  30.9498310  80.7933960  53.2467918  53.6663704  61.3698769
  53.1997185  54.6221695  61.3483276  52.3852119  53.3911400  61.6831779
  50.1051712   4.7476354  72.6137848  49.2855682   5.1341214  72.9221878
  50.0957108   3.8562167  72.9623718  71.9186783  28.3561153   6.4298992
  71.3330994  28.9975300   6.0275102  71.3845596  27.9326553   7.1019306
  43.3274498  13.3232708  19.5185604  42.5960007  13.7479143  19.0703468
  43.4177361  13.8060713  20.3401337  49.3367538  66.9151459  69.0982742
  49.6867256  67.7904282  69.2645035  50.1088676  66.3501892  69.0682983
  58.5467300  31.3982697  30.5621395  58.5886078  32.3507690  30.6471233
  59.4421082  31.1374512  30.3464890  81.9938965  31.0818577  10.7937956
  81.5377045  31.8219776  10.3933716  81.9727020  30.3972664  10.1251278
  79.7569580  36.5800781  60.7299576  80.6536026  36.8881378  60.5982018
  79.3576431  37.2403641  61.2963562  28.0771103  34.6230850  31.5452862
  27.8928890  34.9359360  30.6596107  27.7128162  35.2978020  32.1182442
  75.6631927  56.4922333  70.7057037  76.5050888  56.9073334  70.5182419
  75.6597977  56.3759079  71.6558075  39.0230026   9.9566736   4.2384319
  39.7742424  10.4213781   3.8697588  38.2917824  10.5662622   4.1386633
   5.6514869  60.4792976  77.7175751   6.3355947  60.5237656  77.0495529
   5.5878158  59.5489769  77.9336319  41.4724731  57.2807503  68.6613922
  42.3618240  57.5959549  68.5003586  40.9279633  58.0666924  68.6162949
  32.6445923  59.6129723  18.3014870  33.1341896  59.0334320  18.8851490
  32.3557739  59.0451088  17.5871048  36.0607300  51.4616394   8.4897814
  37.0132980  51.3688202   8.5051651  35.7321396  50.5628510   8.5107183
  17.7205067  48.4056625  72.9253082  17.6187458  48.9392548  72.1371689
  17.2299118  48.8769951  73.5986481  58.3138237  36.2892647  20.3896084
  58.2227287  36.6779022  21.2596054  58.2638855  35.3456573  20.5423813
  31.7080612   6.9973164  14.0750999  31.4839458   6.0896187  13.8699417
  32.3444328   6.9318361  14.7871227  45.0884705  70.3639450  68.1660995
  44.8568115  70.9713440  68.8686829  45.2944069  69.5445786  68.6160507
  84.4016876  12.7199526  85.3929138  84.0479507  12.6725006  84.5047455
  84.0774612  11.9283752  85.8224640  62.1028023  48.0609627   1.8436202
  62.2097511  47.1535759   2.1290014  62.9462357  48.2903099   1.4534212
  81.4549713  40.3105202  64.3925934  82.1972198  40.3657265  64.9944611
  81.4197769  41.1716423  63.9761009  14.2478590  45.2629776  61.9141464
  13.8390112  45.7564583  61.2031250  14.9787254  45.8122826  62.1975708
  34.9912529  41.3791122  15.8097219  35.8838272  41.3128014  15.4703884
  35.0488472  42.0293808  16.5097694  70.4954300  40.9223785   9.5917282
  70.0712509  40.0734520   9.7167492  69.8400879  41.4532089   9.1389847
  75.9849854  71.0022278  33.9517326  76.1200409  71.7369156  33.3532143
  76.7184906  70.4127045  33.7766533  63.4489822  21.4340515  77.6818466
  64.3608627  21.5500793  77.4149094  63.1621780  20.6469212  77.2188110
  77.6139221  17.8242607  70.9362259  77.6476440  17.5891895  70.0089569
  78.1053009  18.6437073  70.9936066  26.7620239  39.7780151  37.9353294
  27.4974422  39.1678810  37.9912643  26.0925312  39.3017769  37.4441986
  22.0749168  42.9088821  72.1331558  22.2531967  42.4247627  71.3268814
  22.8301353  42.7283669  72.6928864  63.0862198  61.3258133  23.3369656
  63.8135757  61.7325935  23.8078346  63.1289062  61.7030296  22.4582634
  76.9876328  42.9402695  23.1126633  77.2906494  43.0033875  22.2068882
  76.2352448  42.3498764  23.0729313  34.2488327  61.1783104  15.6850586
  34.1852188  60.3177147  15.2708607  34.1262398  61.0045853  16.6183453
  67.0403976  21.4235420  24.4482307  66.8460846  20.7293339  25.0779514
  66.1819382  21.7542381  24.1838245  84.1607895   2.1442323  37.8103523
  85.1025620   2.2694006  37.6935577  83.8082809   3.0313084  37.8815117
  84.1828003  55.1935844  23.0668354  83.5824280  55.4496727  23.7669811
  84.9843674  55.6847305  23.2470875  51.1718597  56.4672928  47.5501862
  51.1154785  57.4172974  47.4474945  51.8173027  56.3394203  48.2453728
  41.4220657  28.2589264  60.6395340  41.8030739  27.7305431  59.9381943
  40.4804306  28.0996418  60.5748787  23.0463257  31.0208225   8.5421381
  23.4944630  31.6968842   9.0504122  23.7316742  30.3873672   8.3293848
  36.4576454  29.5649433  77.2096939  37.0294762  29.7274990  76.4594879
  36.7184181  28.7002201  77.5266876  49.5138779  16.5576134  76.3526993
  49.5450554  16.4730492  75.3997498  48.6311188  16.2733021  76.5896301
  82.3773880   5.9080458  30.2278099  83.0147171   6.1500373  29.5558853
  82.8208923   6.0919123  31.0558968  58.8452759  42.2130356  55.8186111
  58.5643959  43.0902405  55.5581284  58.0302124  41.7232780  55.9283295
  50.1769409  10.4749823   9.8643446  50.6023445   9.6657057   9.5809078
  50.7672195  11.1702824   9.5738974  72.6337738   4.4671059  13.3804340
  72.4383621   3.6180551  13.7768650  73.0072021   4.9843655  14.0940323
  70.7157135  64.4930496  42.4182587  69.7842941  64.7136841  42.4144630
  71.0042038  64.6871719  43.3100662   5.8749385  52.5107346  57.2647247
   5.7735143  51.5620308  57.3415565   6.7938709  52.6349220  57.0272942
  39.8617325  62.0374794  21.9318581  39.2256241  61.3895416  21.6289120
  39.4244843  62.8795738  21.8056774  78.1169739  24.8743496  34.4391899
  78.4818802  23.9909897  34.4916458  77.2501450  24.7528038  34.0518074
  71.3608017  21.7493019  51.0553513  71.4295273  21.5925770  50.1135750
  71.4797592  22.6943321  51.1502037  54.1624718  46.1192093   6.4083853
  53.4645348  45.6949692   5.9092493  54.0987434  47.0442123   6.1706090
  60.0854912  66.1583099  30.7038441  60.4891548  65.7458038  29.9402180
  60.5211449  65.7527161  31.4534645  12.5995893  27.8244514  64.7246628
  11.7021656  28.0570812  64.9628754  12.5262737  26.9517860  64.3382568
  52.0529251  28.1554413  12.6417027  51.2736855  28.1908703  13.1964636
  52.4888420  28.9951210  12.7871265  74.8133163  25.2938690  14.8128824
  74.5839386  24.5476837  14.2589655  74.5828705  26.0609894  14.2888069
  84.1581955  43.8221474  26.5621223  84.3027725  42.9784126  26.1338215
  84.3209763  43.6508980  27.4897041  55.0462494  30.9992065   8.6863384
  55.7658882  31.6006622   8.4950190  55.1460991  30.2948475   8.0459175
  74.9509583  20.2551136  69.2059784  74.5256042  19.4905968  69.5943451
  74.4149246  20.4646931  68.4411392  26.6229439  65.2416306  70.0462952
  25.9084377  64.6571045  69.7932281  27.4183941  64.7566147  69.8266373
  59.3228188  29.5756397  10.3139353  60.2201576  29.5035591  10.6392422
  59.4207191  29.8106060   9.3912010  66.0223694  30.3264084  57.4706688
  66.2245712  29.3908100  57.4723663  66.8628006  30.7527809  57.3029747
  72.3274384  36.6861725  86.6059418  72.7889633  36.4547310  87.4119492
  71.4471893  36.3287964  86.7229156  15.3245153  53.3119240  59.6683044
  14.9192591  52.5479088  59.2580910  15.9088240  52.9456482  60.3321266
  58.5201454  10.9655380  51.8689842  59.3696556  10.5725470  51.6686821
  57.8828506  10.2911530  51.6338348  56.4021988   9.4842482   0.6492496
  55.5078049   9.5927525   0.3259499  56.5392456  10.2324333   1.2303430
  21.3119335   6.9210243  73.8721924  21.6359253   6.8463321  72.9745941
  22.0523853   7.2740259  74.3655014  80.0869141   3.9992383   9.8671608
  80.4893036   3.1322613   9.8155241  79.7474518   4.1585727   8.9864740
  80.4283066  43.7027435  24.2209148  79.5962296  43.3117523  24.4873848
  80.2316437  44.1447029  23.3949451  71.3335114  32.6088371  43.9848671
  70.7680969  31.9570179  43.5705338  72.1456909  32.1377258  44.1710091
  26.5045719  47.9972229   0.5131742  25.5901833  48.2424927   0.6544915
  26.9007034  48.0377922   1.3836141   1.0215850  62.2682762  32.4941292
   0.6405761  61.5019836  32.9229240   0.5436011  63.0112686  32.8625374
  47.4648323  71.5039825  87.3218307  46.5773811  71.6029968  87.6665878
  47.8461876  70.7964859  87.8416977  49.7095299  47.3840103  69.8936844
  49.8578720  46.5799026  69.3960495  49.6056595  48.0627060  69.2267380
  36.9803505  56.1223717  11.7395630  36.2014389  55.5780373  11.8545809
  37.6185646  55.7601624  12.3541565   2.2793536  41.8473282   6.2079716
   2.9779656  41.4531059   6.7302399   2.0178370  42.6229210   6.7042532
  78.5878754  21.6463223  50.9808159  77.8855057  21.9054413  50.3843536
  79.0171204  20.9125099  50.5409317  76.5950165   2.7361717  12.1187601
  76.0140762   3.2882450  12.6421652  76.9511032   3.3257725  11.4540739
  57.1211090  23.9376793  78.8128815  57.8131180  23.2808437  78.7359238
  56.6078644  23.8399582  78.0108490  60.7439423  15.6447277  55.4453697
  60.9230347  14.8736067  55.9834518  61.4638329  16.2448883  55.6397820
  84.0708694   6.6325688  53.3870659  84.2619858   7.4908466  53.7653084
  83.1437225   6.4884520  53.5764275   1.2033769  37.4209366  65.7303543
   1.1492186  37.9779778  66.5068893   1.8245200  37.8695450  65.1566315
  60.5214539   3.9911511  13.7891560  61.3483658   3.5400512  13.9593296
  60.4932022   4.6929264  14.4394989  46.1259193  22.3654041  61.0724068
  45.8171692  23.2130165  61.3925018  45.5344353  22.1520195  60.3507080
  17.2573662  52.3975906  33.0345154  17.1580639  51.8592339  32.2493134
  18.1530170  52.7315331  32.9842606  57.2727547   3.4767153   9.1288252
  57.7141800   2.6618819   9.3684492  57.7380142   4.1543608   9.6192961
   4.2216234  13.5449066  76.8049240   4.6967869  13.9690838  77.5194321
   3.5542870  14.1818943  76.5496902  59.1279984  20.9818401  66.6300735
  59.0013466  21.1944675  67.5547256  58.2713966  21.1321507  66.2302322
  21.7546062  69.4629440  40.7695427  20.9537582  69.9116211  40.4983253
  21.9278870  69.7939682  41.6508102  34.9717369  57.6261749  46.0539436
  34.0769463  57.4327469  45.7743530  35.2609406  56.8297920  46.4993286
   0.8037693  60.1353798  55.6966553   1.1060971  60.9270859  56.1416664
   0.5905439  59.5286942  56.4056664  13.3116531   7.2323985   1.5807012
  12.8921614   7.7204518   2.2892642  13.7247019   6.4863801   2.0155344
  10.3194761  67.9314270  50.1047516  10.3529816  68.2531281  51.0056496
   9.3904963  67.7660599  49.9438705   2.4128675  38.0938797  17.9223099
   2.7913952  37.6536255  17.1613083   2.2251794  37.3866158  18.5393829
  66.7639236  65.6767273  46.2053986  67.2550888  65.2731552  45.4897652
  66.7006836  66.6001892  45.9615860  52.2471008  63.3758430  23.0368423
  51.7352562  63.6954575  23.7798710  51.9351387  62.4816170  22.8980446
  38.3475189  45.0205612  46.0943604  38.2066650  44.8363762  47.0230522
  37.8610344  45.8291893  45.9340858   5.6304626  58.7361069  39.9012718
   6.1514735  57.9629021  39.6846352   6.1357088  59.1827278  40.5806007
  44.2996788  11.2697296  18.3628445  43.8155556  11.0013399  17.5819302
  43.8486481  12.0580473  18.6651020  83.3391571  59.6163292  72.9729309
  82.8363724  60.2460251  73.4895706  83.3164139  58.8105659  73.4891281
  18.2971420  62.6692734   4.5593133  19.1304932  62.9193115   4.9583597
  18.4827671  62.6310997   3.6210608  74.0507584  48.2605553  72.7741470
  74.5409241  47.6637383  73.3396378  74.2278519  49.1301117  73.1329498
  42.8908157  11.9031630  82.5626755  43.5245247  12.6034470  82.4069595
  42.2014084  12.3154030  83.0832596  24.6342926  66.7148819   9.2521152
  23.9371033  67.3187561   9.5080223  24.3320389  65.8583145   9.5540648
  56.2995796  15.7434044  28.5396061  56.0284958  16.5855370  28.1741505
  55.9306717  15.7356997  29.4228268  51.4025040  33.2040215  87.9730911
  51.3779716  32.4653473  87.3648224  50.5192566  33.5714111  87.9394684
  33.3433762  70.7074966  85.3668594  34.1674957  70.2212677  85.3923187
  32.8575706  70.3955765  86.1303558  44.3107262  57.5567665  67.9039459
  44.7961884  57.4284668  68.7188644  44.8413429  58.1771965  67.4041977
  10.9200516  37.3171425  37.2354813  11.5605164  36.6638680  36.9539299
  10.1602564  37.1654320  36.6734085  82.4525528  35.2508125  70.2845230
  82.9602661  34.5105171  69.9522171  81.7454376  35.3608971  69.6488419
  57.3920822   7.2723527   1.0314496  58.3390808   7.3143749   0.8985626
  57.0706215   8.1238747   0.7351273  39.5348473  39.2919159  46.8330879
  40.3101196  39.2730713  47.3941841  39.1837616  38.4026489  46.8797226
  56.4226227  24.2902832  81.4098206  55.5637360  23.8854523  81.2887650
  56.7827339  24.3570366  80.5254593   6.2458878  47.2340622  38.1601028
   5.4163275  46.7994461  38.3580132   6.2008247  48.0638733  38.6350975
   2.1754000  69.6881561  71.8778458   2.1545820  69.0590515  72.5989685
   1.6862786  69.2619934  71.1740189  63.2019844  51.1883774  65.2588425
  62.9322166  52.0566101  64.9594574  64.1586380  51.2206993  65.2563400
  49.9083138  17.4039574  73.3900833  50.6591415  17.9288197  73.6675873
  50.2633858  16.8078537  72.7306747  18.6748409  24.1574631  62.3634720
  18.3305645  23.2676659  62.2862244  18.0420170  24.6116714  62.9197655
  69.1168060  32.5316658  15.4700089  69.9983063  32.1701660  15.3777876
  68.5859985  31.7945232  15.7718334  56.8125877  61.9000473  37.5392761
  57.6605911  61.6004448  37.8669319  56.9746399  62.7938423  37.2374420
  63.3052025  32.0873070  74.4007187  62.5330696  32.4021683  74.8707199
  64.0418701  32.5172386  74.8351288  16.4475460  50.9351273   7.3063846
  15.7888861  50.3938713   6.8711338  17.1669617  50.3322716   7.4941087
  16.4188614  12.3008327  54.2142334  15.9896145  12.5217915  53.3876991
  16.3064346  11.3538542  54.2968407  24.4601555  68.6661758  64.2215500
  25.1532574  68.0064545  64.1967773  24.8729076  69.4600906  63.8815918
  79.9370804   4.6850643  52.0940933  80.0969162   3.8299899  52.4935112
  80.7502136   4.8894625  51.6322899   1.6629182   7.4610109  68.2721939
   2.3120875   7.9545650  68.7734070   1.6410449   6.6003757  68.6905975
  83.3995972  36.3111420  12.5031004  84.2270584  36.1652679  12.0445633
  83.5452118  37.1085472  13.0121870  11.8841248  56.8222427  56.1964760
  11.0338364  56.3938332  56.2949944  11.7420959  57.7129669  56.5169029
  10.0404873  65.9538269  12.5035744   9.9799671  66.6320648  11.8308468
  10.6580372  65.3159943  12.1457548  54.1123428  58.5624199  70.7689438
  53.4324188  58.2637825  71.3728867  53.8086510  58.2781410  69.9068604
  67.8489532  15.5690994  35.5752106  67.7262268  16.1471233  36.3282433
  67.1071701  15.7619801  35.0018120  34.8144226   7.0862665   7.9683657
  33.9207611   6.9467645   7.6550913  35.1397514   6.2074471   8.1634846
  38.6866417  27.4136982  47.7937927  38.1734047  28.1985950  47.9855156
  39.2988319  27.3430023  48.5262222  32.3481255  16.0470753  72.3998566
  32.4699135  16.7946205  71.8145523  33.0987549  16.0823250  72.9927673
  81.6977692   5.7068944  54.6563072  81.9280624   4.7872767  54.7885895
  80.7412796   5.7215519  54.6902771   2.2253475  14.8544836   0.7609325
   2.8219638  14.1553154   1.0282227   1.8217868  14.5302238  -0.0441924
  61.8666267  49.7492790  27.9456863  62.6379890  49.4081116  28.3982773
  61.3519058  48.9715652  27.7301445   9.2102413  62.0319824  86.1569748
   8.9425497  62.9302292  86.3512115   8.5569820  61.4871597  86.5958939
  43.4469414   9.2606220  81.8474808  43.3090820   9.0365610  80.9271469
  43.3294411  10.2099152  81.8830795  75.6495132   9.7954493  40.0168037
  75.0489044   9.0895481  40.2559738  75.5075150  10.4670630  40.6838913
  84.1498642  36.1884079  32.8144417  84.0237656  36.8983688  32.1849289
  85.0998688  36.1155701  32.9061852   0.9402409  63.1829376  74.6518936
   0.3997590  63.7964821  75.1495667   0.6963027  62.3209229  74.9890213
  31.5558491  66.3291092  41.0590401  30.9142475  65.6435394  40.8730965
  31.5537205  66.8781662  40.2749748  80.7310715  70.5230331  74.0371780
  80.6522293  70.5004272  74.9908600  80.2249222  69.7680817  73.7370453
  20.5791664  52.7258606  88.2265167  19.9514732  53.4477463  88.1931305
  20.7094517  52.4792137  87.3108673  73.4094086  43.7495880  38.0397072
  72.5698166  44.2027779  38.1167259  73.3924103  43.3608475  37.1651649
  72.2926025   6.9490013  83.8950958  71.4241714   7.1149778  84.2618713
  72.7088699   6.3584113  84.5229111  67.0215683  32.6690559  72.0741501
  66.1100998  32.4717407  71.8584518  67.1947021  32.1632347  72.8681259
  70.9477081   6.6024737  37.3216324  71.6136856   6.3769131  36.6721497
  70.5976791   5.7590566  37.6086197  56.0138168   9.5023556  74.8144150
  55.1501923   9.1220522  74.9748993  55.8531151  10.4439230  74.7523193
  66.1946030  19.4829979  83.5108414  66.9266281  18.8667984  83.5365753
  66.2417068  19.8745956  82.6386795  33.8419228  55.1925583   8.2195244
  33.4536209  55.1134491   7.3482056  34.3499069  54.3887253   8.3292427
  84.8415146  22.1766472   9.2689342  84.9516144  22.4597511  10.1766567
  85.7329102  22.1271019   8.9236956  76.8193665  33.4782219  33.2339287
  76.7483597  33.8288307  34.1217690  75.9692307  33.0705414  33.0687065
  30.1793518  21.6444607  13.1681499  30.7227592  21.2751503  12.4720535
  30.4068890  21.1345901  13.9456387   6.8445048  67.4703979  68.2291946
   7.1987901  68.2907333  67.8860245   7.3272672  67.3226318  69.0424194
  25.1500015  52.7758598  43.9302979  25.1153831  52.3076134  44.7644348
  25.9879150  52.5184708  43.5457420  72.7571106  47.1204910  16.3117390
  72.3577576  47.9636917  16.5256538  72.0336914  46.4951363  16.3544598
  50.6100731  34.1881218  45.8178406  51.3239136  34.5125313  46.3668594
  50.3799362  34.9313774  45.2603073  28.5802917  25.6346149   2.0291986
  27.8551903  25.2768402   1.5168923  28.5685349  25.1324673   2.8440249
   8.8897486  42.2133026  11.9757595   9.3600502  42.5195198  11.2003365
   9.2161112  42.7644997  12.6870270   2.6857350  30.7850380  72.3330383
   3.3445976  30.3559036  72.8789062   1.9302053  30.1981182  72.3635635
  25.2956963  22.3902435  11.0052443  26.1633701  22.4479275  11.4053030
  25.4525051  22.5318756  10.0716581  11.1840391  30.6400623  12.1435146
  10.3772974  30.1814442  11.9088488  11.8556318  30.2419491  11.5897083
  77.7322922  43.1565628  25.6916428  77.3081436  42.8021164  24.9101696
  77.8858261  42.3929558  26.2480259  66.1167603  18.9696503  32.7803459
  66.2767487  18.7566280  33.6997261  66.9639816  19.2726212  32.4537506
  24.6988564  70.2789993  71.1121063  25.2131958  70.3675079  71.9145126
  24.4133053  71.1702271  70.9111176  11.6767607  51.0890846  23.3924294
  10.8274870  50.8058395  23.0536976  12.3053131  50.8101196  22.7265968
  71.4863358  25.8808537  68.6809616  71.0000000  26.6393719  68.3579178
  72.2084732  26.2561989  69.1848145  24.7439022  59.6581726  45.4635506
  24.7492390  60.0024490  46.3566780  24.8575554  58.7137489  45.5702248
  58.8933945  42.2951965  29.8819122  59.8441162  42.3517075  29.7861557
  58.7630463  41.7779160  30.6766815  17.4946766  14.7943954  80.9250641
  17.8251133  13.9817896  80.5420303  16.6304359  14.5642929  81.2662048
  65.9224701  31.2322826  46.1276169  66.1471786  30.7732506  46.9369545
  65.8129959  30.5360889  45.4798813   9.2527218  41.2668228  29.7533703
   9.9260139  41.3344154  30.4303799   8.7748871  40.4661789  29.9698811
  27.4598656  68.0991592  54.4295998  28.0624046  68.8408051  54.4856339
  27.0424023  68.1938782  53.5734558  69.2228317  61.1230240  36.4193459
  69.9411316  60.9710960  37.0335083  68.7355118  61.8551712  36.7971191
  45.4616585  66.9572678   1.9372706  44.9274750  66.2883759   1.5089432
  46.1676064  66.4666824   2.3582180   9.7759418  33.6529007  25.8704853
  10.0442419  32.8060074  26.2268887   9.4227180  34.1281891  26.6225243
  33.0917053  52.5926056  42.1038437  33.5537910  51.9074135  42.5867767
  33.3524475  52.4606094  41.1923523  81.7225723  45.5063400  48.3577042
  81.3273315  44.6348572  48.3345795  81.5750504  45.8125725  49.2525139
  80.7267685  10.6378555  43.9746132  80.1376648  10.2976999  43.3011971
  81.4395142  10.0001297  44.0136757  18.5649719  22.2529354   8.4523630
  18.5225849  22.1743050   9.4053860  19.4950600  22.3773346   8.2634335
  15.8630018   7.2036290  82.2342758  16.6697521   6.6901722  82.2760620
  15.4691515   7.1018186  83.1007385  47.8458977   3.0593641  38.5077019
  48.7375450   3.3876948  38.6234360  47.2910347   3.7241435  38.9156570
   8.5078087  37.6004562  65.0574188   8.8349590  38.3525467  64.5638962
   8.1411743  37.9793472  65.8563232   5.4874029  68.8817368  56.9440689
   4.5544724  68.7976456  57.1410484   5.7738638  69.6361008  57.4589615
  77.0225372  51.1246643  43.3891487  76.5111008  51.4466591  42.6468658
  77.6291046  50.4913940  43.0053749  64.6949310  24.2880917  58.4424629
  65.4363708  23.8062878  58.8090210  65.0883789  24.8855114  57.8064461
  18.4759998  51.5223427  41.0738716  19.2228165  51.6284485  41.6631432
  18.6606102  50.7134781  40.5964928  16.4581776  50.6892433  73.6103058
  16.0654793  51.4453506  73.1740417  17.3026619  51.0082703  73.9285812
  27.0006828   8.1723604  78.0020828  27.3549023   7.5980549  77.3231659
  26.0810623   7.9172177  78.0757980  28.0063820  58.3730469  81.3410950
  28.9531345  58.2388115  81.2977905  27.9052544  59.3045158  81.5369644
  48.3461800  20.7036190  50.2430458  48.0288200  19.8040733  50.1634750
  47.6494942  21.1627789  50.7121201  41.2784843  23.5306282   9.0443296
  40.3862419  23.7515984   8.7772846  41.1768303  22.7634678   9.6076803
  46.2468567  33.6089592  19.4117889  45.6725883  32.8434029  19.4310989
  45.6500778  34.3544197  19.3456497  74.7333603  37.6301537  62.9673195
  74.4824295  38.2812500  62.3120842  74.8625336  38.1355133  63.7699127
  35.1248207  60.3735428  12.1009016  34.9220123  59.8158607  11.3498392
  35.9411087  60.8117599  11.8603430  11.6925049  47.1537743  76.9200516
  11.7324858  47.8052750  77.6201859  10.8074112  46.7939377  76.9779892
  18.6239681  12.9916897  14.4623251  19.4804268  12.8158369  14.8519239
  18.3328991  13.8024454  14.8796816  72.5157471  37.6325836   4.7039280
  71.8518753  38.3220291   4.7169571  72.0425034  36.8496819   4.4222608
  23.1174755  62.4616127  58.4425468  23.5265713  62.6840935  57.6062584
  23.3894958  63.1616592  59.0359917  47.4418182  38.4590874  56.6090164
  48.1972618  37.8712997  56.6021996  47.0413437  38.3244629  57.4679260
  17.1183357  30.7286320   5.6753259  17.7106361  31.4255981   5.9575500
  16.4715748  31.1717110   5.1261315  69.4589844  28.0200901  31.2491112
  68.6636658  27.5436649  31.4872684  69.2725372  28.3788242  30.3814831
   1.1273483  42.2396736  12.7848034   1.9461373  42.3221779  13.2736893
   1.1418861  41.3459511  12.4423399  41.7064705  59.2759972   4.0115199
  42.0193100  58.3810616   3.8793960  40.9729042  59.3655586   3.4031672
  10.9464521  16.5154705   1.0746636  11.2991781  17.3913097   1.2318902
  11.3790636  16.2235279   0.2722614  81.3351822  37.2005081  19.7343159
  81.6893387  38.0863914  19.8118572  82.1061020  36.6331482  19.7385330
  10.3730707  56.0160332  30.3759441   9.8024969  56.2949142  31.0921173
  10.5116777  55.0815582  30.5301418  58.3213196  24.8316841  84.8222275
  58.1232529  25.4206886  84.0941620  58.0938988  23.9614029  84.4949265
  13.1160107  20.4426098  68.1761322  12.5553236  20.0501461  67.5069275
  12.6438885  20.3018761  68.9968185   4.6382751  68.6463394  47.5249290
   3.8861976  68.4208603  46.9774170   4.3978138  68.3410492  48.3996887
  52.3542404  49.9087296  87.2618408  52.3875656  49.1513519  86.6774597
  51.6697121  49.6927109  87.8950806  40.7668533  10.0779934  67.1717682
  39.9890022  10.5820837  66.9328613  40.5226479   9.1675367  67.0054398
  53.8163071  11.2278919  10.4085836  53.5752563  10.3727427  10.7647371
  53.2363396  11.8451796  10.8544836  70.4068680  34.3904648  75.3604279
  70.2441559  33.4630356  75.1883011  69.5609131  34.7323914  75.6497116
  11.7997160  34.6719475   7.7943606  11.7940378  35.4612999   8.3357687
  12.7192984  34.5500565   7.5582652  39.0392532  36.2666397  66.4989243
  39.2056656  35.6690788  65.7699127  39.8301163  36.2156448  67.0357361
  58.7555962  44.0790558  22.2517262  59.2009850  43.4319458  22.7986336
  58.7559624  43.6932411  21.3757248  10.0680256  49.0370750   4.2993550
  10.9272614  48.6310768   4.4138603   9.4617939  48.4438896   4.7430272
  74.2054520  29.3053551  75.6928406  73.4049377  29.7644157  75.4385223
  74.5908356  29.8556881  76.3746338  55.1405525  66.5128250  42.6602325
  56.0268898  66.5754776  43.0161972  54.8144760  65.6702423  42.9763947
  67.1809158  58.6098213  76.8449020  67.4756622  59.1603584  77.5703506
  67.2630234  57.7149620  77.1746216  46.0944977  46.9820213   8.7973442
  45.6500511  47.2742500   8.0015421  45.9375153  46.0382347   8.8265362
  82.2624054  64.6649628  35.0596352  82.0099869  63.8272781  35.4479713
  82.7221451  65.1255264  35.7615967  57.3619347  19.0623264  81.7655563
  56.8203850  19.6488323  81.2373810  56.7338219  18.5496521  82.2743454
  71.5176163  57.2765656  76.6072540  71.2295990  57.8383331  77.3267593
  70.9552841  56.5042343  76.6665192  12.5532913  64.4927368  42.8873634
  12.9382143  64.3522186  43.7524185  12.7395163  63.6852417  42.4083023
  61.8157883  46.9502373  20.2857056  62.0028992  46.8261032  19.3552170
  61.7666206  46.0626297  20.6406193  50.7903900  28.2987442  72.1422577
  51.2235832  27.7784214  71.4656219  51.4988441  28.5701981  72.7258987
  84.1299286  58.8835945  24.4732533  84.2820435  58.8353195  23.5294514
  84.5285416  59.7125969  24.7380104   3.9057088  66.4601135   0.9404246
   3.2916245  66.1883698   1.6225457   4.3357310  67.2357941   1.3004682
  15.4025707  38.5622330  87.3830719  15.2720165  38.2857780  86.4760132
  14.5173178  38.6852684  87.7257385  77.8555298  22.5770359  24.6078167
  77.6441727  21.6440983  24.6422520  78.7742920  22.6243858  24.8721390
  15.5884418  36.8156433  49.6615219  15.6208057  37.6795158  50.0725060
  14.6870909  36.5214920  49.7929573   8.5961704   5.4453821  89.3350906
   8.3300409   6.2868414  89.7057037   8.5168104   5.5646653  88.3886719
  56.3971901  71.7479401  49.4559555  55.8070869  71.9720078  48.7363701
  55.9179649  71.0930786  49.9636307   9.5998459  26.3296623  79.9597244
   8.9622812  25.6542530  80.1911697   9.5255356  26.4134998  79.0091019
  48.8606033  38.7365646  40.6233139  49.4421539  38.8147316  41.3795700
  48.6222878  39.6387901  40.4101715  63.4491348  10.5197153  87.4600449
  63.5682755  10.1121063  86.6022034  62.9657326  11.3254232  87.2773209
  36.0675812  61.3723373  36.5328484  36.6180038  62.1550751  36.5085602
  36.0118408  61.0903053  35.6198425  83.0475693  16.9089203   6.9062448
  83.3229523  16.0789700   6.5169125  83.8155136  17.4753265   6.8308487
  51.2621956  13.6910877   9.3198853  50.3875275  13.7666140   9.7013044
  51.7632179  14.3972931   9.7279119  16.6150913  36.8964233  52.7806587
  17.5309105  36.7194710  52.5657349  16.4165287  37.7155075  52.3268890
  25.0950222   2.2253509  67.4117508  26.0130711   2.0135345  67.2427826
  25.1121635   3.1277785  67.7304382  58.7554626  28.1711960  16.0128555
  58.5241280  28.1648445  15.0840521  59.5971870  28.6256943  16.0469379
  32.5454903  27.9182072   9.8171921  32.5705376  27.8053761   8.8669958
  33.2603111  27.3708782  10.1423035  14.4415054  66.1738586  29.3780479
  14.1569977  65.4004517  29.8650112  13.8760099  66.1921844  28.6059666
  48.8297272  24.9438343  65.3834915  47.9836006  24.5558643  65.1603699
  48.8214302  25.0034580  66.3387985  18.3653755  48.9531212  63.1272774
  18.8367920  49.4717979  63.7791748  17.5518513  49.4355469  62.9800529
  83.6122131  59.4775352  18.7580109  83.4767532  59.9480667  17.9355240
  84.1290283  60.0780373  19.2951698  52.5297623  16.3184128  44.3689995
  52.5669098  17.1607475  43.9158745  52.8274879  15.6829300  43.7180367
  48.0913963  17.3225040  31.9893188  48.2384720  16.3880978  32.1358948
  48.8247223  17.5969124  31.4387150  29.3970146  35.9839859  13.6180706
  28.4726353  36.2162437  13.7064514  29.4719582  35.6328049  12.7307796
  23.8190098  52.8224297  83.8672943  23.0250301  52.5721169  84.3397064
  24.5311909  52.4250031  84.3683701  61.4957542  11.6865921  65.9740753
  61.2019958  11.5888424  65.0683212  61.5857620  10.7892408  66.2948456
  59.7469635  20.8483124  82.3126602  59.4600182  20.2563820  81.6173096
  59.7013817  20.3208961  83.1101456  24.6790123  53.0441933  59.4583626
  25.2296219  53.8270340  59.4730377  24.6313419  52.7677078  60.3735199
  82.1105499  14.5356226  72.4518509  81.6033783  15.3253880  72.2640305
  82.9840775  14.7248125  72.1092300  11.9498835  -0.3066107  -0.1509092
  12.2159557  -0.2177598   0.7642645  12.0065374   0.5812441  -0.5040894
  31.3447113  63.3593712  47.6902046  31.0154057  63.3587914  48.5889778
  30.7986717  64.0006943  47.2354698  25.7586784  56.9286919  12.5104780
  25.4401550  57.5270462  11.8346472  26.0223293  56.1436691  12.0304174
  38.6081276  62.1354332  51.6098366  38.2923546  62.2754936  50.7171440
  38.1348495  61.3604126  51.9124680  27.8804932  11.6553745  85.2899628
  28.7888680  11.8984556  85.4688492  27.9262123  10.7369394  85.0242233
  62.4805298  42.7946663  55.4061356  61.8253098  42.0970039  55.4197464
  61.9949379  43.5840073  55.6456680  21.5015736  50.3515968  60.7976036
  21.9689922  50.6505890  60.0176315  21.8526783  50.8887291  61.5078468
   5.1253290   3.9008031  72.1891479   5.2640791   3.7713478  73.1273499
   5.6654630   3.2294598  71.7722702  68.8079147  23.8833103  63.6072311
  68.6451569  24.6739559  63.0928154  68.6087189  23.1631165  63.0090027
  23.8105965   4.2909031  70.4691467  24.4851990   3.7537308  70.8845825
  24.2128181   4.5930161  69.6547928  35.5774689  59.9068260   3.4639812
  35.3734360  59.6566238   4.3650928  35.2055397  59.2045784   2.9303629
   7.7803516  62.2674446  22.6840248   8.6648245  61.9383049  22.8440475
   7.2059007  61.6155853  23.0856667   5.1742568  20.4570694  78.1901093
   4.9498711  21.0297737  78.9235153   5.2102680  19.5805264  78.5730057
   5.4034557  43.7218742  18.9510136   6.2516413  43.3065758  18.7950020
   5.4923687  44.1323853  19.8111343  56.1238785  20.2612991  16.3424149
  55.4248695  20.3629227  15.6964331  56.8570747  20.7603741  15.9824476
  71.1966324  38.4914169  46.9853249  71.4831543  38.2585793  46.1021919
  70.4836502  39.1153831  46.8490944   9.3883095  28.1169796  55.8610420
   8.5422897  27.7440243  55.6132812   9.8415937  27.4042759  56.3113976
  49.3213997  20.3765011  34.4399223  49.5702324  21.2941093  34.3289680
  50.0429115  19.9911098  34.9370384  71.5500565   3.9496028  76.8087006
  72.4347763   4.0566912  77.1580276  71.2307587   4.8437304  76.6869736
  83.5879974  46.1259766  13.6106768  83.1061935  46.8447075  14.0199680
  84.2351456  45.8671913  14.2667742  61.2331276  19.8621826  19.6025257
  60.6675110  20.6306114  19.6788578  60.6605225  19.1765118  19.2587070
  76.8792191  15.0733738   7.3858161  77.0203705  16.0103493   7.5214028
  77.0364609  14.6807451   8.2445068  52.3350945  52.3077240   8.4576254
  51.7454224  52.5439072   7.7415686  51.7725410  52.2788467   9.2315321
  65.2469940  40.2193489  52.1362610  64.3867493  39.8115845  52.0365639
  65.0618210  41.1561584  52.2020683  42.1499176  11.0023661  13.4900274
  41.8525391  10.3600340  12.8456631  41.3569489  11.4777536  13.7378950
  41.5984688  24.0387650  19.4435883  41.6484337  23.0836735  19.4044037
  42.2941895  24.2902813  20.0509968  34.1652298  10.6734276  70.8759766
  33.3504524  11.1712132  70.8083191  34.7488518  11.0811729  70.2361679
  17.6190605  62.4267273  74.3534470  16.9252701  62.7560539  73.7821121
  17.5890903  61.4763565  74.2433014  73.4065933  64.9212494  49.8058624
  72.4548035  64.9479218  49.7077827  73.5965195  64.0165482  50.0542107
  72.8984604  54.4076958  83.9080734  72.1317902  54.9330254  83.6790085
  73.6444855  54.9374886  83.6270142  60.0897789  70.9564362  63.9983711
  59.1718597  71.2256699  63.9640999  60.4471283  71.2151108  63.1488876
  75.6167984  11.6473627  87.7962341  76.0619659  11.0482359  88.3954849
  75.0015411  12.1273413  88.3505859  57.4916573  29.4509430  84.3647232
  57.6215401  29.1032200  85.2470245  57.1324158  28.7157784  83.8680267
  82.2662888  65.3467712  60.2251663  82.6564865  66.1810532  59.9644928
  82.7221146  65.1112595  61.0332451  22.3488617  44.7440948  81.0242462
  21.8497276  44.1651878  80.4480820  23.0107727  44.1764603  81.4190826
  45.2850723  13.1693735  77.3170319  45.9467354  12.6240540  77.7425461
  45.3223000  12.9154043  76.3948898  82.1609879  38.3595428  25.6008720
  82.9757080  37.8652000  25.5109482  82.4416809  39.2709618  25.6831150
  40.9468040  62.4225578  44.3916397  41.0893517  63.0272865  43.6634789
  40.4717026  61.6878891  44.0033493  80.9338074  43.2418022  38.3029633
  80.4867783  43.0728073  39.1323242  81.1752625  42.3737640  37.9798012
  82.3839645   7.4263706  76.2264252  83.2254791   7.8823276  76.2126999
  81.9803467   7.6431813  75.3860016  42.9856377   0.4424109  83.3462067
  43.3380165   0.6574813  82.4826050  43.6422043   0.7696556  83.9610748
  45.6341171  65.2213898  82.3635635  46.3678246  65.0414200  82.9513702
  45.6496964  66.1710739  82.2448578  40.8364487  19.3601665  15.6626768
  40.2079086  18.6418724  15.5904398  40.6962585  19.7136726  16.5410919
  39.5114594  50.9817009  75.4558868  39.6038399  51.2137070  76.3799362
  40.2036057  51.4743423  75.0148926  10.1980009   8.3222485  17.4494762
  10.9953575   8.1062784  17.9330177  10.4188004   9.1189928  16.9671097
   0.2324960  33.3584862  83.2242432   0.8054374  33.2496147  82.4652252
   0.0825779  34.3023567  83.2777405  40.9700127  61.5619812  64.5811768
  40.8586464  61.1230469  65.4244843  40.6921082  62.4637299  64.7419662
   6.9261789  52.6514320  49.2436180   7.4832687  51.9226112  48.9702988
   6.3525329  52.8087540  48.4936752  44.6112366  25.3284321  11.9199448
  44.8928452  26.2227058  11.7270641  44.8620987  24.8258972  11.1448603
  60.9357605  66.4610062   3.8458173  60.6720810  65.9231873   4.5924459
  60.2553711  67.1311722   3.7812126  68.5589600  66.1601944  67.7527618
  68.8776779  66.9476242  67.3116226  68.5106659  66.4061279  68.6765671
  48.1828804  39.2889977  30.1176014  47.4754829  39.0550537  30.7185078
  48.7330704  39.8913574  30.6182842  44.4486580  56.0345802  48.7916946
  43.5196953  56.1892319  48.6203995  44.8951607  56.3760376  48.0169220
  71.8751602   0.6917776  75.4911804  72.3456345   0.3594866  74.7266769
  71.9051590   1.6437367  75.3957596  85.6953125  57.4605598  82.1357269
  85.2306137  56.9327888  81.4863052  86.5598221  57.0546913  82.1999893
  53.3268929   5.6772051  43.0862808  52.5160255   5.1728129  43.1519318
  53.3894653   5.9105926  42.1600800  32.6720581  53.6471062  35.1901779
  32.9078026  52.8775978  35.7083626  32.5646362  53.3125496  34.2998047
  41.6373940  43.6817818  16.5112267  41.4105301  42.7595291  16.3919983
  41.4365692  43.8610191  17.4297981  13.1065502  51.8289566  17.1971588
  13.0561943  51.2032394  16.4745426  12.2436638  52.2428360  17.2161713
  70.9294968  51.5509377  37.4909363  71.2501297  52.1235504  38.1877480
  70.3135834  50.9631195  37.9283791  81.7577362  71.2163696  77.3766098
  82.3032379  71.8009796  76.8503952  81.8803177  71.5195618  78.2762070
  22.0600624  27.7236919  89.2090530  21.1340313  27.6734066  88.9720459
  22.5257778  27.4875832  88.4068069   7.9881825  67.2631531  48.8601913
   8.0214577  66.5779343  48.1926498   7.0569835  67.4662933  48.9486923
   4.3991876   0.3461041  50.1329117   4.8872824   0.3382127  49.3095436
   4.8128352  -0.3350957  50.6630936  81.1448517  47.7564926  58.4560623
  81.0035324  48.6603966  58.7375298  81.7713394  47.4039917  59.0881119
   3.2964258  61.2351799  20.4171047   3.4716320  61.5290947  21.3110561
   4.1506333  60.9609604  20.0833874  52.7678452  45.4591446  49.4399681
  53.1517143  44.9416389  48.7321091  52.6028633  44.8251610  50.1378746
  63.4571533  18.4076958  18.5350018  62.7077446  18.9958191  18.6284485
  64.2189255  18.9872398  18.5432491  59.3031082  12.9210339  12.4823065
  58.5857086  13.2742872  11.9562054  59.1812363  11.9722729  12.4472141
  79.5181808  61.4090004  86.9697418  80.4721909  61.4783287  86.9337769
  79.3398361  60.9940987  87.8137131   1.2562158  50.3656731   2.9074883
   1.9691546  49.7481461   2.7443554   0.6203523  50.1857567   2.2150006
  26.9368896  59.1555519  67.5881271  27.6986866  58.6216736  67.8136673
  26.1943302  58.6858482  67.9678879  84.3246689  22.5243664  18.9553318
  84.2814255  23.1133347  18.2020206  83.6670685  21.8532238  18.7726955
   5.8488083  35.8190956  17.0974312   6.7941942  35.7886429  17.2442322
   5.7177472  36.5851440  16.5386600  18.1110401  51.5785446  23.2057896
  17.9998569  50.7715187  22.7032185  18.9763622  51.4940681  23.6061840
  62.7093010   1.9274470  21.0991211  62.4128914   2.5157750  20.4046841
  62.0312729   1.2535429  21.1477318  53.8096504  46.6097412  45.2663116
  54.0587616  46.5629425  44.3432808  54.2164917  45.8397217  45.6635284
  44.0595093  64.7925644  52.7626228  43.3482933  64.8856812  53.3964462
  43.8994865  63.9459038  52.3457336  30.2752514  32.8610573  64.3451462
  30.0623035  33.2278175  63.4870262  31.2264805  32.7552567  64.3310394
  70.3488846  58.9363899  53.3569946  71.0908203  58.7424774  53.9298401
  69.5797806  58.8294601  53.9167137  11.7671843   5.6007595  78.9510803
  12.0350790   6.1751599  78.2337723  10.9715223   5.1746693  78.6323318
  84.5120773  38.4085655  29.1116753  83.6619720  38.5345345  29.5332050
  84.5447617  37.4727020  28.9133759  19.3210697  37.9493027   7.0566521
  19.5844440  38.0020142   7.9753942  18.3665504  38.0179901   7.0768051
  11.3091297  42.4991226  46.6630135  11.6609945  41.7287674  46.2169418
  12.0788202  42.9398766  47.0229340   0.3633739  69.1847916  62.4989319
   0.9855052  68.6240158  62.9623108  -0.4079744  68.6325226  62.3714409
  26.8546753  47.2345695   8.5548887  26.4859734  46.7065125   7.8467579
  26.1057167  47.7105865   8.9136353  81.4182663  26.1915760  29.4095554
  81.4821243  26.3837852  28.4740295  82.3073807  25.9453907  29.6647243
   2.2441859  12.5207071  56.1080017   1.7793454  11.8412151  56.5963097
   2.5732956  13.1165724  56.7809525   8.1663628  54.3822403  28.3686466
   7.7352519  55.1568604  28.7296715   8.6242514  53.9937057  29.1140404
   5.9302187  46.1822395  84.1455994   5.1917467  46.6360092  84.5517807
   5.7433305  45.2530518  84.2794418  52.0875854  56.8767242  50.0281067
  51.3092422  57.4037857  50.2087021  52.8108292  57.5034676  50.0465889
  71.7700195  34.8539467  20.5425167  72.5843201  34.3508453  20.5363789
  71.2209854  34.4130821  21.1909218  46.4332275  41.8728943  49.5228462
  47.0311203  41.8212967  50.2685661  45.6532173  41.3968849  49.8078575
  44.6242294  35.8112679  59.2596855  43.7034035  36.0687828  59.2150383
  44.6244087  34.8818970  59.0305481  47.6862221  55.4782410  67.5041122
  47.1079445  55.5577698  68.2627258  48.5683632  55.5661774  67.8651199
  64.0584183  25.5740681  49.1546974  64.2632751  25.5122433  50.0876732
  63.1282730  25.7984772  49.1280785   0.0055362  24.7426624  62.5489960
   0.1625913  24.4290237  61.6583786   0.8460415  25.1072407  62.8262405
  12.7037144   7.5903921  88.0051804  13.1204185   7.5486865  88.8659058
  13.2011833   6.9737039  87.4681015  73.2134552  53.4073143  68.0001068
  73.6559372  53.3307724  68.8454361  73.2972336  54.3323631  67.7688065
  23.3402309  27.7298222  66.8408203  23.2474518  28.1704731  65.9961624
  23.3623123  26.7978535  66.6236191  53.3744240  24.0174904  66.1707840
  53.7477150  24.3740559  65.3647079  54.1298141  23.6951599  66.6624374
  43.2618408  69.0592270  30.1510487  43.7066040  69.6410980  30.7673664
  43.8882179  68.3526382  29.9941368   1.7880731   9.5527973  75.9026642
   2.5603027  10.1165237  75.8567734   1.0819100  10.0834417  75.5339050
   0.9554362  13.2083101  17.5245762   1.0136079  14.1292725  17.7788925
   0.0274009  13.0703497  17.3349743  36.1162186  42.8462524  61.3858719
  36.5170555  42.1155853  60.9150352  36.3297348  43.6165123  60.8592377
  70.8230209   7.1738343  86.7126770  70.4116974   7.5610628  87.4854050
  70.7702789   7.8578300  86.0451431  29.4582539  60.3962097  47.1641502
  28.8813496  61.1160278  47.4196358  30.3286190  60.6738930  47.4497833
  81.7248306  -0.0852806  59.9923363  81.2429962  -0.4897018  59.2708740
  81.1437836   0.6054340  60.3109779  60.1942139  40.1734009  20.0061970
  59.4121170  40.5542679  20.4055653  59.8571548  39.6081161  19.3111591
  53.3888550  29.4465599  29.7280025  53.4644814  29.8794174  28.8776226
  53.9305267  29.9745750  30.3145390  35.9782333   9.4600286  15.6389332
  36.6459656   9.8745861  16.1852951  36.4052620   9.3364038  14.7912331
  44.5698967  13.9150505  62.2036667  44.9184952  14.7924328  62.0458298
  43.7571220  13.8858767  61.6989136  82.2384033  22.4925156  23.5615196
  83.1526566  22.2295036  23.6673183  82.2423019  23.0709686  22.7988873
  62.6234207  54.9063721  25.5735073  63.4407120  55.1912613  25.1647205
  62.1589203  54.4384766  24.8795738   4.7844748   8.9078140  37.3174667
   4.5725541   9.0765858  36.3994026   3.9883416   8.5187387  37.6794395
  55.1054649  68.4978409  63.6383629  54.8674202  69.1908035  64.2542953
  55.3671150  68.9631042  62.8438187  46.6149673  12.9538164  43.0043106
  46.6928482  12.0295238  43.2406387  45.6832428  13.0769196  42.8227310
   3.2327411  62.2521706  38.6246300   2.9385231  63.1580238  38.7200012
   3.6690085  62.2304535  37.7729073  22.7439251  32.7974854  73.2743912
  22.0735703  32.1787949  72.9844284  22.9007492  32.5687523  74.1905289
  86.2458725  24.0713558  65.3727264  85.4599075  24.6044865  65.4921341
  86.4504242  24.1515427  64.4410858   0.0259979  65.8100815  55.2073631
   0.9434364  65.7058487  54.9550285  -0.3299558  64.9217224  55.1887131
  61.4101448   4.7369637  41.5602455  60.7881203   4.1667242  41.1084213
  61.4203758   4.4139543  42.4612427  35.2423744  26.9693623   7.4322872
  36.0568733  26.9531727   6.9297328  35.3298721  26.2464657   8.0535736
  67.2382889   7.5056663  21.7667313  68.1335068   7.4112830  22.0921631
  66.7043381   7.0094886  22.3871651  16.4127331  61.8057175  21.3316669
  16.7182655  62.1689301  22.1629066  15.5448294  62.1897163  21.2070808
  55.0660019  27.6608715  61.7442741  55.4968796  28.3624973  61.2561150
  55.5550613  27.6049442  62.5652046  28.1308270  53.5986519  56.7142830
  27.7764854  53.3393707  55.8637276  27.4993763  54.2330246  57.0535088
  47.2256050  69.2121811  33.8617935  47.3276672  69.7179871  33.0555801
  47.0974884  68.3113022  33.5647469  68.6217804  58.9595070  20.0585804
  68.2941513  59.1992798  19.1917477  69.0724106  58.1261024  19.9222126
  11.2502403  60.2268105  33.5709686  10.4297590  60.4942665  33.1568298
  11.9328327  60.5838051  33.0027657  59.6404343   4.4104962  17.3491287
  59.9548302   4.6303644  18.2260799  58.8958321   4.9952178  17.2080479
  21.3635693  21.5628185  67.6073303  20.9093246  22.3106880  67.9953842
  21.5625858  20.9920425  68.3495178   8.2875595  15.0681438  83.9690247
   8.1369963  14.9345264  84.9048157   8.9265938  15.7796354  83.9284363
  71.4418869  55.4634399  37.5973206  71.8347397  54.7271309  38.0660973
  71.5508270  55.2438431  36.6720428   9.5044794   1.2198370   3.5526524
   8.7312479   0.7709585   3.2108142   9.6012392   1.9902155   2.9928434
  56.4323044  27.9813824  64.1246796  56.0063248  28.6126251  64.7045975
  57.1172905  27.5854683  64.6634598  41.6263542  59.0609512  26.2122002
  41.8602066  58.1643028  25.9722805  41.1459808  59.3941536  25.4542732
   9.0220079  28.1744289  61.8777199   8.4624043  28.8320446  61.4646606
   9.8711348  28.6064720  61.9702110  78.4367523  65.2434769  58.6522255
  77.5537491  65.0354004  58.9575729  78.9971313  64.5968552  59.0812759
  60.9844551  32.9266167   8.1366072  61.5866280  32.4560776   7.5602307
  61.0335388  33.8363419   7.8429732  26.7875118  17.3036709  73.8240509
  26.3971806  17.0496521  72.9877777  27.5172176  16.6955776  73.9423141
  36.1443214  14.7295847   0.3543000  36.7179794  14.6126490   1.1115801
  36.7403946  14.9148264  -0.3713801  79.9654922  14.0334253  23.5784969
  80.4633713  14.5522480  24.2102985  80.6290817  13.5331116  23.1035538
  43.8581161  47.6550484   6.0140924  44.2422638  47.3440971   5.1943521
  44.4164581  48.3863716   6.2780085  63.9890938  51.1381226  83.0884476
  64.4760284  51.9428215  83.2661819  64.4067917  50.7727165  82.3085556
  64.1544647  37.4286575  42.4459648  63.9563560  37.7218895  43.3353462
  64.8288345  36.7588654  42.5592384  82.9651031  20.8920727   7.5107641
  82.0314484  20.9858131   7.6997690  83.3937225  21.4992962   8.1139221
  75.9662247  50.6589127  16.0177841  75.3906326  51.0575752  16.6704674
  75.8566360  49.7166138  16.1454411  52.5490379   0.5373636   5.4434710
  52.6652260   0.2300890   6.3425345  52.0464439  -0.1563150   5.0163431
  54.7278786  51.1684799  51.6463699  53.9417915  51.4166832  51.1598587
  54.9151268  50.2748032  51.3591270  45.3964081  68.8084183  38.9235573
  44.9713783  69.4073868  39.5374146  45.4981537  69.3202515  38.1211166
  37.3542595   0.3614810  87.2558594  37.6751366  -0.5173906  87.4579849
  38.1416969   0.9053537  87.2363815  56.7118607  24.1506557  15.7020741
  57.1435280  23.3361530  15.4442425  55.8131027  24.0556278  15.3867340
   1.1613133  68.5258636  19.7237759   0.3136992  68.3133392  19.3331184
   1.0313525  69.3850632  20.1251831  11.4379997   4.8849187  14.7898092
  11.2892771   4.0183301  14.4114733  11.9914045   5.3335924  14.1505384
  55.9463997  10.8723984   3.1435943  55.5626221  10.1185770   3.5915916
  55.2717934  11.5496368   3.1935053  21.6774597  42.9767532  79.2830887
  21.7007370  43.1736870  78.3466568  20.8274670  42.5580101  79.4187241
  11.2745323  68.7810898  71.1961517  11.7733307  68.7278824  72.0113831
  11.9180117  68.6050491  70.5097275  83.2075882  50.4008293  23.0513134
  83.8751297  51.0863724  23.0767441  82.8542633  50.3774681  23.9406090
  39.2740936  65.8526459   1.1729783  39.3904915  64.9789352   0.7997339
  40.0358810  65.9744644   1.7396125  78.3411560   7.4432726  11.2520437
  78.3974838   8.0658102  10.5271254  78.7078018   7.9136524  12.0007391
  13.7782555   3.8559406  16.2560101  12.9848118   4.3279071  16.0031719
  13.4729290   3.1825507  16.8639202  45.1772461  56.3987999  72.7468185
  45.1917839  57.1460876  72.1488342  44.5875168  55.7702675  72.3304062
  25.1337166  65.6966858   3.7514696  25.9369678  65.2193375   3.5437148
  25.3507938  66.6141815   3.5862124   7.8016272   7.5387955  20.4706516
   7.7671480   6.8271885  21.1099148   8.4494686   8.1478825  20.8249760
  48.7955017  62.7983780   0.2334401  48.3505249  63.2245636  -0.4990847
  49.5461731  63.3626518   0.4187111  48.4122543  65.8003998  34.1022606
  49.1389732  66.1097794  34.6429977  48.8316841  65.4384995  33.3216591
  63.9729080  67.0101471  40.3487091  63.5830269  67.7589417  39.8975639
  63.4052582  66.2729492  40.1238785  71.7887115   5.0875926  31.2267227
  71.0457306   4.7270122  30.7427845  71.3903122   5.6077180  31.9245644
  73.0801163  15.8569832  41.1826401  72.4069443  15.5156403  40.5939484
  73.0961151  16.7980080  41.0081482  58.2684021   8.8672829   4.7343946
  58.6285210   9.2905245   3.9550276  58.2287369   9.5646057   5.3889160
  64.5309219  48.4264717  58.2842598  64.6961517  47.5927353  58.7245026
  65.0419769  48.3761940  57.4764709  48.9053841  60.3410225  49.1728516
  49.3405037  60.3624840  50.0251694  47.9728050  60.2857361  49.3813515
  44.6477814  16.1840210  42.2957611  44.8335114  15.8022728  43.1536674
  43.7040405  16.0710392  42.1825638  27.1985683  18.6788845  10.1066618
  27.7891922  19.3322334   9.7317896  27.0368538  18.0637455   9.3913412
  21.9388676   9.4128914   4.5697031  21.0132980   9.2474632   4.7491093
  22.2604427   8.5929680   4.1948085   3.4423146  25.8814831  59.4247131
   3.5796323  24.9508514  59.6016350   3.4260061  26.2899685  60.2902222
  51.7329140   3.5782423  17.4624519  50.9663086   3.0050490  17.4622364
  51.6247864   4.1231174  16.6829319  35.4700470   7.1721396  76.7535706
  36.2978134   7.6495948  76.6981812  35.5017662   6.5524154  76.0247574
  62.4971848   9.7490702  63.1151733  61.7201042   9.9056606  62.5786514
  62.6512680   8.8070107  63.0443573  38.8328896  67.3495026  62.1171837
  38.2280197  66.9942780  62.7684746  38.2713051  67.6177750  61.3899384
  56.4665794  45.0825424  67.4554901  57.1875610  44.4667816  67.3241196
  56.3664093  45.5181580  66.6090622  57.2893600  51.0521774  66.4817581
  58.0047302  50.9178429  65.8601151  56.5456276  51.3126640  65.9383926
  49.2023849   9.4488678  22.8183479  50.0953712   9.1064520  22.8578892
  48.6824760   8.7227526  22.4738445  77.3744965   2.8622990  36.0046616
  77.9738464   3.5984080  35.8815498  77.3350906   2.4394643  35.1468239
  35.8094521  38.4605103  72.9858322  35.7226562  37.6226082  73.4403915
  36.4816666  38.3046188  72.3224716  77.4117966   0.9211993  82.7511139
  76.9058228   1.6991525  82.5165710  77.2522659   0.3067581  82.0346985
  81.2106781  47.3717995  41.8808174  81.1009598  47.3021889  42.8291550
  80.3903732  47.0359726  41.5195084  27.5239716   6.0281639  26.9106770
  26.8274918   5.5800548  26.4307346  28.3331776   5.7146363  26.5067940
  61.4434700   2.2105212  61.3752403  61.5437508   1.2636241  61.2774544
  62.2208900   2.5783613  60.9550667  84.9842072  46.7607307  41.3078461
  84.8321838  45.8611565  41.5974808  85.8481293  46.7371063  40.8963699
  63.7094841  23.0703049   0.9076921  64.4466400  23.6730824   1.0051364
  62.9343948  23.6297169   0.9579756  60.3183746  38.8300362  44.5208626
  59.5037155  38.7552071  44.0239029  60.2694969  38.1266403  45.1682243
  71.8855820  42.3856125  43.0985107  71.6617355  41.9441071  42.2792473
  72.0789261  43.2867088  42.8399162  25.8895874  65.4398575  79.4985199
  25.0667400  65.8444595  79.7732086  26.4260025  65.4260025  80.2911682
  84.4733963  26.4157200  62.4494476  83.6259537  25.9730835  62.4957542
  85.0435257  25.9019775  63.0215149  15.4174118  63.9056396   8.1623020
  15.1559925  64.8264160   8.1701651  14.9664192  63.5221863   8.9145002
  39.6151619  50.3071365   0.4219852  39.4005661  49.9104233   1.2662604
  39.2762146  49.6894608  -0.2259514  72.2192078  47.9015007  58.3469238
  72.5597916  47.7485008  57.4655418  72.5661011  47.1765862  58.8669205
  69.2842407  58.2309990  50.9162445  69.9000931  58.4217377  51.6237602
  68.9540405  59.0885963  50.6484299  74.4804688  22.8207550  20.1156960
  74.4113464  22.1637096  20.8083324  74.4789352  22.3138809  19.3037167
  48.5832710  70.6135254  24.1414433  47.6599884  70.7168427  23.9110069
  48.9808655  70.2177658  23.3658600  45.7583961  44.3695831   8.8011713
  44.8974953  44.1527977   8.4432812  46.2553215  43.5537186   8.7406073
  65.5249634  30.7538586   8.2600765  65.4795685  30.5207520   9.1873484
  66.0471802  31.5558052   8.2400036  35.6187782  33.6605606   9.8059483
  34.7433052  33.3073425   9.9641161  35.9405022  33.1727333   9.0478249
  82.7936783  21.3824635  34.2247543  82.4874496  21.6101513  33.3469086
  82.4845505  22.0986481  34.7795105  80.8937225  45.2286034  36.2127075
  79.9851151  45.4723167  36.3895416  81.0942230  44.5601120  36.8678017
  76.6795349  44.9667511  80.1995239  76.3968964  45.7738304  80.6296005
  76.7768250  45.2076797  79.2782669  43.1239510  64.5159836  79.5209274
  42.2061157  64.4972076  79.7919617  43.1165848  64.9768906  78.6820374
  73.9743958  35.7039452  31.7383900  73.9466248  35.7833862  30.7848969
  73.2738800  35.0861511  31.9477654  68.5603409   9.6518707   6.0251760
  68.3656921   9.1279421   5.2481027  69.1923752   9.1266565   6.5160069
  67.3174210  66.7146225  11.8133068  68.1178131  66.3461609  12.1872549
  66.8289948  65.9546738  11.4968529  61.7085419  29.1336594  41.7471695
  61.8367424  28.6183529  42.5435715  62.3979034  28.8340797  41.1544952
  63.6481934   3.2540703  54.0878563  63.5011063   2.3334606  54.3048210
  64.3824539   3.5166183  54.6429825  67.0785751   0.3051499  29.1451740
  66.8562164  -0.6246610  29.0978546  67.9579849   0.3221927  29.5227699
  71.5831680  28.2706909  73.8680191  71.0174026  28.2287636  73.0970612
  72.1483307  29.0268059  73.7095337  82.1603775   4.7605371  88.5905533
  82.5816956   3.9015656  88.6204224  82.7781525   5.3138247  88.1125641
  68.4301453  20.9932098  74.7719574  68.3849640  20.0769577  74.4986877
  68.1195831  21.4853916  74.0119934  37.4773140  61.1797066  11.1747456
  38.4114037  61.2453308  11.3732567  37.3598366  61.7206230  10.3938227
  24.0678425  51.7442703   5.8247037  24.2882061  51.5546989   4.9127092
  23.4306679  51.0705833   6.0621648  86.6379623  27.6167564  61.3698578
  86.8417969  27.2044182  60.5304184  85.8709030  27.1419849  61.6899223
  25.1237869   6.2382216  78.0128021  25.8346958   5.6878152  77.6843262
  24.6664333   5.6857343  78.6466904   5.6746993  66.7099762  52.8341560
   5.8223705  67.6371460  53.0206528   5.0767918  66.7082901  52.0866699
   5.2331452  24.6253300   4.0929251   4.6088700  23.9012394   4.1398826
   4.7514429  25.3290577   3.6582272  79.2730484  54.7615204  28.8941078
  80.1947861  54.7230263  28.6388645  78.9071655  55.4697304  28.3642044
   1.2130046   3.8997891  14.8832855   1.1739177   4.8559327  14.9055004
   2.1483116   3.6976852  14.9075012  28.8513546  62.2277069  39.7792053
  29.5536404  61.9507980  39.1906929  29.0403996  63.1482277  39.9612274
  10.1896658  66.6891785  87.2216873   9.6098623  66.7239151  87.9825058
  10.6269045  67.5406494  87.2146835  84.9490891  11.3084764  62.8759537
  84.0307617  11.0730658  63.0081749  84.9393997  12.2595158  62.7679596
  47.1165924  62.6094704  81.1255112  46.7889290  62.2532501  81.9513321
  47.1470146  63.5555115  81.2680435  45.2242966  33.2770004   8.6151962
  44.6893272  32.8724556   9.2981186  45.1737785  32.6674957   7.8788643
  56.7969551  21.6389751  27.1551189  57.6127510  21.9082508  26.7329826
  56.1246109  22.1843605  26.7467804  52.1002235  15.1715651  79.3262634
  52.0177460  14.5286541  80.0306091  52.2549248  16.0018444  79.7767487
  38.9210587  34.0631371  71.9331818  38.6621437  34.7412910  72.5571213
  39.8657417  33.9715309  72.0573196  71.5585480  70.1378326  84.6413269
  71.8962097  70.4352798  83.7964935  71.6940002  69.1903076  84.6332397
  37.0050354  16.8635387  71.7223816  37.5300102  17.5790215  71.3636093
  36.2721863  17.2990913  72.1576538  20.7597389  22.4035149  80.4094162
  20.2241936  22.8526764  79.7554474  21.6306133  22.3570423  80.0148926
  51.3035927  41.5852432  29.6781006  50.7105331  41.4582901  30.4186363
  51.8827477  42.2956161  29.9541130  85.3735886  32.5281219  20.4429321
  85.4304276  31.9784546  21.2245102  85.9063187  32.0730019  19.7907848
  23.1890602  38.1533546  84.3403015  22.5459595  38.7218361  84.7639542
  22.8800316  37.2656593  84.5212097  81.9456177  47.2232170  75.2246704
  81.9621658  46.9234962  76.1335907  81.0148926  47.3004723  75.0148621
  56.2174568  61.5404091  11.2126808  56.3296394  60.6833611  11.6239157
  55.8035507  62.0777931  11.8880548  25.7451267   1.2850606  80.3990784
  25.4449234   1.0969588  79.5098495  25.9490318   0.4264002  80.7696915
  63.7679672  45.8916473  11.0550261  63.7676086  45.3352242  11.8338861
  63.5785980  46.7690773  11.3874273   2.1079144  53.7555161  80.5396118
   2.2424984  52.9806175  81.0851822   1.6985968  54.3925514  81.1251678
  26.3607750  55.9265785   3.5231519  27.0770168  56.4428291   3.8929052
  25.5768700  56.4493904   3.6916523  71.9209290  34.2444305  16.0083084
  72.3273773  33.6566086  16.6450920  71.0416412  34.3999939  16.3531132
  26.4834366   7.2825317   9.6146116  26.0988655   6.8507466   8.8517895
  27.3116474   6.8242531   9.7570210  17.4637413  42.3119202  39.5284004
  16.6715107  42.6847725  39.9151573  17.3213215  41.3657761  39.5560226
  52.6464653  48.9012489  68.5008774  52.7186279  48.4279594  69.3297501
  52.0797539  48.3515129  67.9597168   2.4322829  62.3269844  47.4265137
   2.4413865  61.8987427  46.5704994   2.0624247  61.6717491  48.0182037
   8.6466684  64.8996124  71.4687958   8.0682602  64.8666992  70.7068329
   9.4980974  64.6162720  71.1355972  24.6701908  21.8229256  13.7812042
  24.8455219  20.9429054  13.4479532  24.5020485  22.3466053  12.9978027
  72.8984070  42.8505135  67.9889221  73.3210907  42.4076233  68.7247314
  73.1298599  42.3211365  67.2257538   5.4697351  43.5744629  45.5993233
   5.7135806  42.7748451  45.1330833   4.6545849  43.3507271  46.0484390
  29.0505848  65.0940475  62.8146133  28.9805470  65.2061920  63.7626381
  29.8041210  65.6290207  62.5651741   9.0179024  52.3010445  11.8863153
   9.9284620  52.5240173  11.6929340   8.5239983  52.6438141  11.1414671
  19.0489788  63.3475533  53.1646080  19.3285522  64.2558441  53.0502396
  19.8463154  62.8813629  53.4159126  12.0906219  26.5825233  80.7934418
  11.1825771  26.4963360  80.5031738  12.0935946  27.3677769  81.3407974
  71.4266739  45.3270912  12.5451107  72.1238632  44.7575035  12.2199564
  71.8855209  46.0878830  12.9013243   4.9475665  37.5518112  76.6408920
   4.0752459  37.9184532  76.4964523   4.7926493  36.6208115  76.8004990
  13.4915495  34.4051361  35.3009911  12.8808651  34.6457443  34.6042824
  13.7362280  33.5010834  35.1033745  20.8924923  42.0782013  88.8325424
  20.5771904  42.6720963  88.1512833  20.1405468  41.9583092  89.4125671
  14.3357992  22.8909988  56.6987801  14.2963648  23.7935333  56.3823853
  14.7433138  22.9575195  57.5623436  49.5610390  48.3533669  60.5688858
  50.4831543  48.0990486  60.6043167  49.1617889  47.7236137  59.9686852
  63.8477249  46.3336296  27.2062817  64.1149597  45.6437683  27.8136578
  63.9244843  47.1419678  27.7131653  75.8534088  26.3189754  69.5090332
  74.9939041  26.3420506  69.9296951  75.6616974  26.3361835  68.5713806
  62.7711029  31.4150467   7.0423064  62.6055641  30.7598228   6.3644347
  63.6936722  31.2975559   7.2687860  35.7999496  51.3980255  63.7068825
  36.6065788  51.8650589  63.4890327  35.1709404  51.6846657  63.0447540
  73.4573669  21.3230820  54.7216110  73.7621689  22.1787205  55.0236206
  73.2691574  20.8384972  55.5253448  55.0485229  44.4726753  13.6995678
  54.4598465  43.7232399  13.6099186  54.6655388  45.1465988  13.1379805
  58.6636124  15.0062847  84.1940842  58.6940956  14.9537144  83.2388153
  59.1188660  14.2187204  84.4919434  66.1708221   4.1573520  83.6741714
  65.7043304   4.8441510  83.1978073  65.7565689   3.3434072  83.3876038
  77.7703323  23.3954010  55.2504349  78.2877274  24.0556183  55.7115669
  77.8709793  23.6160240  54.3244629  84.0348816  59.9735947   7.1425028
  83.4320984  60.1183929   7.8718281  84.7640381  60.5700073   7.3123860
  59.5784988  63.9457169  34.1564522  59.7784424  63.3497696  33.4345779
  59.5397797  63.3817558  34.9289017  66.2496109  62.9106407  82.1010056
  66.0679855  62.8383636  81.1639786  66.4649353  63.8339577  82.2327194
  71.1179428  50.2084618  57.8246689  70.2439728  50.0017548  57.4934692
  71.5121231  49.3558617  58.0088501   1.2117776  41.4674454  29.6126804
   1.8833007  41.1911278  30.2363281   0.3972757  41.1055527  29.9617538
  43.5715561  70.0949860  40.4987793  43.0208740  70.7022476  40.9929619
  43.2274895  70.1317291  39.6063118  82.4011536   4.5802555  50.8695679
  82.3749847   3.9179156  50.1790237  83.0180435   5.2375889  50.5477028
  79.8209152  52.5283699  15.5211773  79.0538940  52.4877472  14.9499836
  79.4831238  52.3159943  16.3912487  54.6779060  30.9451885  68.4928131
  54.5380859  31.5886364  69.1875458  55.4687729  30.4752445  68.7572327
   4.1245356  10.9440632  77.2276840   3.3189816  10.9890108  77.7427521
   4.2115536  11.8160439  76.8425751  82.1614838  42.6479340   4.2348146
  82.4147186  42.8133202   3.3266549  82.1009064  43.5181656   4.6288457
  61.2664909  35.9048691   7.4290361  61.0247650  36.7396545   7.8302040
  62.0685616  35.6447639   7.8820958  78.0635071   3.7912509  60.6369553
  77.5279312   4.4562125  61.0696411  77.4338455   3.2469440  60.1642151
  15.8078794  31.8853531   3.8192563  14.8892717  31.6984253   3.6257355
  15.9134188  32.8127670   3.6071379  75.2528915  44.0220833  34.5009346
  75.8006668  44.5442734  33.9148521  75.8569260  43.7006989  35.1703224
  45.4657784  42.8835831  30.5122795  45.1694336  42.0992966  30.0504265
  45.4699516  42.6306801  31.4354553  26.8381653  61.5226135  78.1081848
  27.3942719  60.7852898  77.8565292  26.7090797  62.0132294  77.2964783
  44.3397751   3.5540302  87.4215927  45.1946793   3.2319410  87.7072983
  44.3856659   4.5014768  87.5499268   7.9699445  52.5183105  54.5778542
   8.1355762  52.9039650  53.7175789   7.1369700  52.0575523  54.4774208
  63.6296959  69.7298355  68.9338074  62.6924133  69.5781784  68.8124390
  63.6948357  70.1543503  69.7892456  42.1006737  22.1308804  62.0512695
  41.7687950  22.9847565  61.7738075  42.7902451  22.3356094  62.6827812
  53.5771484  67.1206360  37.7499695  54.0075607  66.8618393  38.5648308
  53.1635399  67.9595184  37.9535179  75.7901688  -0.0278270   9.4264755
  76.0920181   0.8736114   9.3145437  76.2503052  -0.3394583  10.2058296
  67.5432281  63.7409096  37.0215340  66.8350525  63.3312492  36.5246391
  67.1981812  63.8180962  37.9110374  31.0911903   5.8701315  10.9673595
  31.0337658   5.5371499  11.8629360  31.7413635   5.3091645  10.5444851
  85.6616364  65.3349609  85.0934372  86.3224716  64.8850098  84.5670624
  85.1388245  65.8218765  84.4564056  45.9530716  54.0083656  28.5579224
  46.8274574  54.3967743  28.5292301  45.9267273  53.4215965  27.8021183
  22.2702961  55.0868683  57.6264801  22.6721153  55.0402412  58.4940071
  21.8735580  54.2250404  57.4996529  55.7871017  69.8882294  82.7280502
  56.0756950  70.3801041  83.4968262  54.9473152  69.5092316  82.9875717
  37.8648911  57.9685936  19.3292618  37.6197739  57.7911263  18.4211578
  38.8128738  57.8379555  19.3513737  68.7881012   2.0935767  42.4091606
  68.4246750   2.9514892  42.6285629  69.1534424   2.2055550  41.5315399
   9.4049158  52.6440887  56.9512138   8.8292351  52.3311462  56.2534370
   9.2584810  52.0340652  57.6741676  45.1224899  56.1276093  10.5767422
  44.8978691  55.3090820  10.1342611  45.4447975  55.8548660  11.4357882
  55.7126427  18.6132526  63.1338043  55.3886528  19.2985554  63.7182884
  55.5937767  18.9724274  62.2545433   0.0247739   6.3220253  33.0797958
   0.6584524   6.7525897  32.5059509   0.4474946   6.3119321  33.9385376
  78.0241928  50.9927177   7.6468868  77.8207092  51.7897720   7.1574712
  77.9089203  51.2391624   8.5646067  40.9048920  14.3333702   9.0322199
  40.6519165  13.6602821   8.4004068  41.1196594  13.8464355   9.8278341
  53.8515511  50.9126320   1.5125117  54.4171791  50.1652069   1.3184594
  53.9930077  51.5158463   0.7828873  25.7786007   0.7956344  84.0160065
  25.4966393   0.1600891  84.6738892  24.9875622   0.9849454  83.5113754
  37.7979889  49.5772133  78.6118622  38.3545341  48.8165932  78.7790222
  37.2318535  49.3056068  77.8893967  17.1279697  68.9635315  85.0678940
  16.3713379  68.5902557  84.6157761  17.8762360  68.4730225  84.7276993
  54.3478050   8.6977940  40.6359253  53.4558716   8.9504547  40.3974915
  54.6877136   9.4490633  41.1220207  70.0419617   9.4716673  45.5179901
  69.1094284   9.2670355  45.4491882  70.0946045  10.1142483  46.2254868
   6.6781521  21.8896484   4.3920798   5.8046613  21.4997616   4.4272013
   7.2650728  21.1881752   4.6743793  66.5199127  27.0630035  56.8586197
  66.1017761  26.7129440  56.0719452  67.2506790  27.5859776  56.5289116
  66.5015106  19.7347736  47.8161659  67.0679550  19.5255470  47.0734711
  66.5869141  20.6821384  47.9231071  44.6116371  37.8005753  67.9037476
  44.3611069  38.6735992  67.6015930  44.2252007  37.7291489  68.7765579
  77.4953003  27.8337650  22.6028709  78.2510605  27.6820583  23.1703644
  77.5095367  27.1031628  21.9846096  12.8516788  46.5461845  63.8715782
  13.5677834  46.1925926  63.3439445  12.8265705  47.4766769  63.6484451
  25.3356495  64.8709793  63.2775497  25.6695557  64.5326462  64.1083755
  25.8941116  65.6238327  63.0837440  49.3545418  22.0203972  72.1171112
  48.8249893  21.6502666  71.4108505  50.2361526  21.6836147  71.9571991
  62.4161148  16.7967300  16.6191349  62.5944138  17.4239616  17.3198643
  61.4831886  16.9037132  16.4335766  26.7423077  67.0914001  64.0929184
  26.9566212  66.6971207  64.9384079  27.5003586  67.6373138  63.8841934
  64.1473923  65.7399750  17.1031723  64.7580032  65.5834198  16.3828430
  63.6232262  64.9404755  17.1508770  85.3739166  41.7088966  44.7500229
  85.9783401  41.2964211  45.3670921  85.2915573  42.6101990  45.0616341
   1.5680848  64.3312988  88.7915192   1.0366925  64.9358521  88.2734756
   1.8093425  64.8319550  89.5708618  14.3823776  49.2108917  49.0411301
  13.6157436  49.2482529  48.4691963  15.1058865  48.9830780  48.4572906
  51.4158592  64.4630051  52.4051971  50.5961609  64.9477692  52.3086128
  51.6924095  64.2788391  51.5075150  79.0309830  57.8084793  33.1268921
  79.1716309  57.1516075  32.4450073  78.4424973  58.4479752  32.7256889
  48.5277405  58.7839317  59.0718193  49.0318947  59.5959167  59.1241837
  48.5412369  58.4357147  59.9633331  23.7621346  41.6080284  49.5698280
  23.6940041  41.8839149  50.4838753  24.6676350  41.8023262  49.3278580
   4.7252502  52.4059830   9.6762180   4.2914524  52.9732323  10.3136206
   4.9380383  51.6125107  10.1674957  25.8613911  31.9801865  84.2021637
  25.0279160  31.5706730  84.4342270  26.4224396  31.2500210  83.9407959
  70.3727264  67.8989410  55.4067192  70.9723663  67.9774017  56.1486778
  69.5926666  67.4816895  55.7722778  54.0540123  14.9063892  13.0386438
  54.9312096  14.6335268  12.7697506  54.2046623  15.6199408  13.6586285
  34.3747597  64.8082047   3.0127151  35.2519569  65.0317535   3.3238082
  34.5217552  64.3782043   2.1702611  71.0832138  20.2702370  86.0522995
  70.7347183  21.0155945  85.5631943  71.0914993  20.5642529  86.9631882
  51.8903427  69.0883484  19.1278629  52.1162758  68.4835510  19.8345509
  52.2097969  69.9388657  19.4292049  57.5383301   2.1856773  14.2424812
  57.6400833   1.3808593  13.7344007  57.6294327   2.8883448  13.5989056
  80.4030533  35.9574356  76.4032593  80.8304214  36.4075089  77.1319656
  79.7025833  36.5510902  76.1327972   8.4911518  68.3998871  70.3782883
   9.3758345  68.0586929  70.5092621   8.4669628  69.2066422  70.8928680
  65.5104294  37.5558243   8.1278982  65.4661713  37.8154030   7.2076306
  65.9552917  38.2842865   8.5611086  32.6940308   7.0891571  62.8651428
  32.7969246   6.4287453  62.1799431  33.5236092   7.0704927  63.3423004
  54.1105690  37.4381828  72.0026855  54.9965172  37.1301842  71.8117371
  53.5796776  37.1035385  71.2799149  86.7017288  60.2705421  17.8460026
  86.1706848  60.7991562  18.4416504  86.1849060  60.2239838  17.0416641
  32.8054886  48.5265312  63.4605942  32.4997482  49.2937012  63.9445381
  32.1374931  47.8600693  63.6213493  65.9626923   6.3245263  19.5770988
  66.3138885   6.8033538  20.3278446  65.4251938   5.6333914  19.9639664
  21.0547276  51.1531258  81.7273026  20.7214355  51.6696396  82.4610367
  20.3774242  50.4952126  81.5703201  70.3272934  10.3002138  12.8925295
  70.1202011  10.4507561  11.9702053  69.5503998   9.8658257  13.2446327
  19.3911362  65.9688568  10.2760925  18.7184258  65.6341553  10.8691101
  18.9020615  66.4328079   9.5965471  69.3431091  28.1335754  28.4319477
  70.2733307  28.1313839  28.2063084  68.8923264  28.1849995  27.5891056
  85.4451675  35.6903152  39.9640770  85.8639603  36.0594101  39.1865082
  85.0842590  36.4480972  40.4242401  33.3941231   4.2005877   9.3480959
  33.1078987   3.4042544   8.9007044  34.3498344   4.1474123   9.3437490
  34.2311363  69.9504700  29.8158855  34.9419022  69.3262634  29.6695747
  33.4395638  69.4125366  29.8324451  50.7328796  65.1591339  21.7282963
  51.4969788  64.8133240  22.1896019  50.4738617  64.4557114  21.1330376
  11.1155109  36.7395210  75.5992355  11.4972706  36.9962730  76.4386215
  10.4947615  37.4388046  75.3945312  51.7631760  11.3763990  19.9771137
  51.1306686  10.6643114  19.8817272  51.2273827  12.1683760  20.0210915
  70.8113327  30.0670528  57.2157364  70.9670258  30.1402531  58.1573486
  71.6734848  29.8802395  56.8442268  45.1561928  35.5464706  66.5355148
  44.4239197  35.5461578  65.9190750  45.0094109  36.3189278  67.0813980
  69.2005844  53.6663780  86.6428986  70.0031128  54.1772385  86.7487183
  69.2903366  52.9471092  87.2680588  56.6298027  24.4057369  23.0316544
  56.2587891  25.2293587  22.7150669  57.5742111  24.5604305  23.0514965
   1.8605914  19.1323452  57.0517006   1.4268897  18.4419460  57.5531845
   1.2091860  19.4039192  56.4050560  55.8048096  -0.0090116  20.8088760
  56.6928673  -0.3307846  20.9639435  55.8441658   0.3941585  19.9416180
  57.3887634  57.1168365   5.1788139  58.1736870  57.6646004   5.1700063
  57.6084251  56.3929596   5.7653127  48.9893303  18.8657513  10.1528559
  49.7992973  18.7687836  10.6536388  48.6314964  17.9793987  10.1021891
  86.0163651  55.3190651  35.5722008  85.2058411  55.8025932  35.7318420
  85.8725281  54.8807144  34.7335167  67.4798431  61.9905968  10.1009111
  68.4139862  61.9065552  10.2920790  67.1433487  61.0959854  10.1526241
  73.7284241  63.1037369  81.3747253  74.2896805  63.0964394  82.1500778
  74.2184753  63.6128807  80.7290878  42.0407143   2.9232886  75.0574188
  42.1177292   2.0641193  74.6425400  41.1371002   3.1904321  74.8890610
  44.2518730  55.8328819  39.3552437  44.4911041  56.1572571  40.2234497
  44.2442665  56.6136589  38.8015671  41.8721886  56.6089783   2.0640471
  42.5919838  56.8281670   2.6557269  42.2470703  55.9709892   1.4568661
  42.8237076  71.8331070   1.1012802  42.4268951  71.6211319   0.2563896
  42.6051979  71.0887451   1.6620060  35.2819138  21.9399509  11.8282852
  34.4798660  21.7138233  12.2992601  35.9019394  22.1851120  12.5150871
   9.8810225  34.0468369  55.2107620  10.2508183  34.6702118  55.8359680
  10.2507124  33.2021065  55.4676552  52.4082947  71.6380997  10.7619514
  52.5878220  71.5671539  11.6994848  51.6098022  71.1265793  10.6316071
  43.2021179  69.3661346  47.1622009  42.8756943  69.3234711  48.0610085
  43.9897461  69.9071198  47.2188568  18.0058575  31.9709301  12.3686905
  17.9688873  32.9270439  12.3420019  18.9058743  31.7731762  12.6277170
  56.7282410  34.2083092  23.4485683  56.6220131  34.1686211  22.4981098
  55.9088745  34.5883636  23.7654839  51.6843147  19.3844490  18.5984325
  52.6334648  19.5024967  18.5608444  51.5481987  18.7650871  19.3154373
  15.4396191  41.0890274  36.7143364  14.7054892  41.6384621  36.9889450
  15.4207897  40.3454704  37.3168297  31.4340649  40.1649017  45.1623802
  32.1547737  39.9396896  45.7506752  31.7394905  40.9432907  44.6964874
  14.9269629  11.5225229  51.8966408  15.5834637  11.9178066  51.3230667
  14.1346941  11.4812231  51.3610725  33.6330681  65.5376968  73.1810684
  33.5870514  64.6092224  73.4092102  32.7245750  65.8374634  73.2128677
  46.4120026   9.5806255  68.2036057  46.7058334   9.4261093  67.3058167
  45.4565926   9.5559702  68.1505203  44.2721863  23.2381134  70.2914734
  43.6290512  23.4000435  69.6012573  44.6177979  22.3668842  70.0971909
  32.3574524  13.2727280  69.6044540  32.0544243  12.4776926  69.1659088
  32.5685310  13.8744268  68.8905640  77.4337997  65.2761459  11.8930569
  77.0513077  64.5387039  11.4175472  77.7885437  65.8440781  11.2090664
  22.8017826  46.7811890  42.3132553  22.8914490  46.6021576  41.3772316
  22.6105404  47.7178879  42.3607063  32.5610428  22.1763496   8.9218216
  31.7876759  22.6509609   9.2265873  32.4824028  21.3094635   9.3200121
  51.5528946  64.0449905  44.2233086  50.9213371  64.6950684  44.5311470
  52.3698006  64.2767487  44.6651039  68.5188675   6.1670995  28.3741932
  68.9419479   5.3112917  28.4436741  68.1219711   6.3085570  29.2336693
  77.3199768  56.3522797  49.1660309  76.3743820  56.4430618  49.2836304
  77.6235199  55.9405098  49.9750671  56.5854492  24.2847710  46.8459854
  56.7624168  23.4154930  47.2055244  57.3240929  24.4574165  46.2621803
  18.3105526  55.4438744  47.4191170  18.0923233  54.5178909  47.5247765
  19.2550068  55.4511337  47.2636032  76.9298706   3.8522964  78.3634949
  77.4798889   4.1346641  79.0942383  77.4848785   3.2540629  77.8631821
  25.2153244   8.6797047  71.4558792  24.4697857   9.2229099  71.2002792
  24.8207054   7.8967881  71.8399963  36.6735992  57.0136681  51.7345009
  36.6744080  56.5726624  52.5840569  37.4278526  56.6466331  51.2733955
  78.8727798   1.6882915  45.7260323  78.2021561   2.3661222  45.8099213
  79.0581894   1.6496215  44.7877579  20.0826721  46.3222809  62.5996094
  20.8120060  46.6474228  62.0717964  19.3936176  46.9767227  62.4849777
  49.5711174  52.9074097  72.4409866  50.4018822  53.3651886  72.5694427
  48.9055176  53.5362816  72.7197876  83.7684784  64.6159363  62.4965363
  84.3120499  63.8307610  62.5618286  83.1866074  64.5681686  63.2550697
  68.8659744  68.8748322  60.8334961  69.5042648  68.2459946  60.4967766
  68.3021164  68.3586197  61.4095345   0.8831185  18.1052876  14.0973101
   1.7698756  18.1143093  14.4576054   0.3979858  17.5111160  14.6698818
  55.4853745  45.3343887  86.4908676  55.6210098  45.0222588  85.5962143
  54.9648743  44.6477318  86.9077759   8.6567030  52.4756393  65.5679169
   8.1693964  51.6597557  65.4534607   9.0118170  52.6663284  64.6997147
  47.6244583  49.3612785  20.2787704  48.5406380  49.3838959  20.5550575
  47.3701401  48.4427605  20.3675060  31.4926510  70.4897690  41.1939659
  31.1794949  69.9211426  40.4905243  30.6975193  70.7704086  41.6469994
  48.8877678  39.9327888  63.7387009  48.9262085  39.4967957  64.5899734
  48.3350296  39.3638535  63.2029533  51.7002182  61.9389992  78.0975189
  52.3247948  62.0373039  77.3788605  51.7076454  61.0023918  78.2948685
  79.0144196  58.6528091  62.5083160  78.5173035  57.9427109  62.9143562
  78.4575348  59.4244843  62.6114197  21.0113850  51.3194466  18.8356514
  21.4704971  52.1345596  18.6330738  21.1640873  50.7624664  18.0723152
  38.4477234  59.4206772  67.2664185  38.5774269  58.4788895  67.3779831
  37.8843346  59.4952774  66.4961853  83.1252899  28.0369167  60.6110382
  83.7248764  27.5342331  61.1624413  83.5087738  28.9132919  60.5772209
  64.3880539  55.6384010  33.1277657  64.8473816  56.0550995  32.3986473
  64.5502930  56.2153320  33.8741302  12.7049112  28.7551079   7.8277125
  13.2111921  27.9459438   7.7558365  13.2774143  29.3540726   8.3069963
  29.1901474  17.4399490   4.5023847  28.8886681  18.1835461   3.9804609
  28.7784595  16.6782589   4.0942502  52.6559410  68.0037537   9.2118969
  51.9771080  68.0463104   8.5383940  53.1886215  68.7853165   9.0647850
  81.6435776  56.5335007  31.7522640  81.8839035  56.8539200  32.6216354
  81.1700821  55.7186508  31.9197712  25.6422882  53.5273018  52.2150421
  26.0445747  54.0760269  51.5417709  26.3701134  53.2706985  52.7813072
  82.4898148  45.9428902  33.3300629  82.7358627  46.8634872  33.2395248
  82.2993164  45.8364258  34.2620506   0.2636248  52.7605019  78.7594757
   0.6730957  52.9925194  77.9259644   0.9988253  52.6014442  79.3514328
  39.7066231   2.2914541  31.8372841  40.0293579   1.7874751  31.0902386
  39.9946022   3.1876996  31.6639538  69.0043182  13.2022762  27.1062107
  68.2675476  12.9023933  27.6386299  69.6800156  12.5367947  27.2358246
   7.8505940  60.4912872  36.5228004   7.5055723  59.7836342  37.0672417
   7.8116407  61.2658730  37.0838089  30.8216209  14.6777267  74.4581299
  31.0612183  15.1323366  73.6505661  31.3382244  13.8720694  74.4417572
  43.4261742  62.8593483  75.6224594  42.8984413  63.6008301  75.3259277
  42.8085403  62.1296310  75.6701279  81.7507172  33.4680481  20.9782295
  81.1569214  34.1906929  20.7747021  82.0669403  33.1703873  20.1252155
  60.7708588  12.9999628  29.1033363  60.9380569  13.0438805  30.0447960
  60.2793503  12.1871557  28.9850273  41.0422020  36.0574722  40.3572426
  40.1796722  36.4472466  40.4999008  41.2500229  35.6258621  41.1859512
  60.7194366   6.4933338  38.0117798  61.6214485   6.5403576  38.3286400
  60.5603218   5.5587096  37.8799057   1.6409153  55.5998878  31.5832634
   1.3924760  55.1810303  32.4073219   1.4119121  54.9589424  30.9102287
  80.5820389  64.3200531  80.8893356  79.9351578  63.6499176  80.6686935
  80.0922623  65.1421661  80.8674088  41.5210800  38.2406693  53.4259987
  41.1524620  39.0839081  53.1627502  42.3934555  38.4536095  53.7574310
  60.5094948  65.0151443   6.2562695  60.7500305  65.2459335   7.1535487
  59.5663681  64.8561249   6.2944889  15.0363369  28.6459255  63.3715248
  15.0046444  27.8730450  62.8077126  14.5233650  28.4016380  64.1418610
  20.5334721  60.8400955  54.5079765  21.2048512  60.2553177  54.8594246
  20.6054821  60.7440834  53.5583305  12.4152985  25.7028484  87.3009872
  12.4151382  26.5108547  87.8141708  12.6753864  25.0238075  87.9234772
  63.4915199   8.1871147  10.2115765  63.9832306   7.4463215  10.5660830
  63.4264183   8.8027525  10.9416342  80.1666794  17.6385040  84.0957031
  80.3459854  18.2691498  84.7931061  79.2324142  17.4478626  84.1795654
  68.7485962  67.3354568  70.1580658  69.3799438  68.0336990  69.9845734
  67.8940506  67.7526855  70.0489731  55.4820633  49.2899818  41.2220192
  55.5889893  49.5059586  40.2956543  54.7934952  48.6251984  41.2350349
  72.6726837  67.7889099  64.7168884  73.5335770  68.0673065  64.4044876
  72.2531052  68.5963135  65.0140228  54.1866798  38.0318947   9.0608664
  53.3631401  38.2113380   9.5145321  54.0849075  37.1422348   8.7226639
  24.4107342  46.2866707  20.8640747  24.7016869  46.1072502  21.7581577
  24.9762192  46.9994164  20.5666637  68.5560913  16.4232044  43.7541161
  69.3588257  16.9323063  43.8666420  68.7292404  15.8678818  42.9939423
  69.0365219   1.3788800  73.5156479  69.9422531   1.6775937  73.5971985
  68.5373611   1.9714360  74.0777359  81.4175339  50.2597580   7.9885535
  81.9656677  50.2820206   8.7729521  81.0320587  51.1346092   7.9408212
  58.5896721   1.0622765  50.4217606  57.8730354   0.5865068  50.0018692
  58.1548691   1.7189333  50.9658012  54.7176704  12.5678558   8.2052145
  54.5673752  12.1066875   9.0304213  54.3910637  11.9693213   7.5334148
   9.5276194  57.1102562  34.8325310  10.4008713  56.7730789  34.6325989
   9.5141535  57.1897583  35.7863274  63.4316521  15.4604101  34.8984489
  63.5182152  16.2254086  35.4672318  62.6811180  14.9828854  35.2518578
  64.5530472  53.8468323  87.4986572  63.7670822  53.9655151  88.0319519
  65.0093918  53.1101799  87.9052582  18.3489552  41.6832542  29.1939774
  18.5051613  40.8606415  29.6578064  17.4459438  41.6155739  28.8837757
  45.8419609  48.8788681  60.1210518  46.3215294  49.5355568  59.6160660
  45.2433624  49.3875198  60.6680336   8.7696714  20.7857285  81.3920593
   7.9762840  20.6794109  81.9169083   8.9210424  19.9216614  81.0090332
   5.8892374   2.0330591   8.1591816   5.7992802   2.7002876   8.8395824
   5.2208748   1.3818741   8.3724442  22.5623989  24.7924557  77.7675934
  23.2673149  24.4218998  77.2365417  21.8066940  24.2337208  77.5860596
  17.7339306   3.2967820  79.8825302  17.0924931   2.7797222  80.3698044
  17.2066803   3.8903706  79.3478470  76.3260956  33.1160660  51.4681892
  75.7366714  33.6166763  52.0322838  75.8650742  32.2919922  51.3113708
  38.6768875  13.7966042  83.8186569  38.0835686  13.1438427  83.4470291
  38.1012650  14.4996443  84.1196899  83.2829895  17.3798828  57.3306808
  83.9573975  17.5139084  57.9965897  82.4566116  17.4666481  57.8058624
  35.5430603  16.2004223  76.1344070  35.3810158  15.7127609  76.9419708
  36.3883438  16.6262360  76.2772598  31.5310707  43.0345688   7.0580807
  31.0916576  42.5727348   7.7721214  32.2583122  43.4918289   7.4802957
  35.8392944  52.6835136  81.3725739  35.7636566  51.7362289  81.2578354
  35.2289772  52.8884659  82.0809097  37.0734673  68.7242355   5.1873522
  36.9333420  69.6461639   4.9713683  37.9945908  68.5669632   4.9799161
   2.0510740  29.8089027  33.8505325   1.3208177  29.1966305  33.7606430
   2.7771661  29.2709866  34.1662369  75.9468002  12.1932831  20.6339684
  76.3292084  13.0641565  20.5263920  75.8582687  11.8586655  19.7415409
  52.4701843  18.9212170   1.2769380  53.3559227  18.7703876   1.6070099
  51.9097443  18.8385410   2.0484993  66.7120285  21.7576199  14.7463579
  65.8628387  22.0205555  14.3914394  67.0466614  22.5452595  15.1751699
  52.5957031   6.5625410  72.6010208  51.8293533   5.9890690  72.5929718
  53.0513115   6.3649559  71.7827225   5.4081912   1.5887560  20.3408928
   4.9488564   1.4934080  19.5065346   6.0372829   2.2939701  20.1887474
  43.1956978   9.8864555  73.8609085  43.0529976   9.1964464  73.2130203
  43.6973648  10.5541344  73.3931808   7.2493510  40.6476173   8.0131302
   6.6888785  40.8987007   8.7473383   6.6399016  40.3527794   7.3364663
  45.1244698  68.1762161  82.8025208  45.6890259  68.7463226  82.2805252
  45.0690918  68.6089859  83.6545029  69.9867477   0.3308230  48.5792656
  69.5670319   0.1829162  47.7318001  70.9006424   0.5176964  48.3645592
  83.5745010  52.4591713  68.1652069  83.4758606  52.7722206  69.0643692
  82.6791000  52.4031181  67.8315201  79.9619064  35.8529129  45.4301796
  79.1119232  35.4487991  45.2556572  80.4714584  35.6913948  44.6361389
  19.9580879   8.0033627  -0.0093519  20.7722816   7.5356293  -0.1952168
  19.9238720   8.0543718   0.9458753   9.9678717  60.4209709  19.9586754
  10.2282763  61.0108376  19.2512264  10.3799257  59.5856743  19.7379494
  80.3726425  32.6557159  82.0283508  79.5016632  32.3649101  81.7580643
  80.9490051  32.3804474  81.3154297  25.2973766  70.7393341  60.3334618
  24.8378906  69.9342422  60.5720558  25.3491440  70.7114182  59.3780708
  15.7076149   8.4881220  16.6424885  16.6603870   8.5798893  16.6364136
  15.4406900   8.8179722  17.5004997  82.8093185  40.8279343  45.0699348
  83.7242432  41.0745964  44.9346657  82.7244568  40.7335548  46.0186844
  37.3276596  62.3313255  68.8829956  37.6374779  63.0365601  69.4512329
  37.7065582  62.5297623  68.0266724  57.1418724  39.7176018   3.3138480
  57.2083778  39.8693581   4.2565985  58.0298500  39.8584061   2.9853592
  86.0882339   5.7172909  71.4069748  85.3737640   6.3516483  71.4648514
  86.1399231   5.4990020  70.4764328  19.3534546  19.4872189  79.3453674
  20.0053501  19.1046028  79.9326248  18.5298748  19.4259796  79.8293076
  37.1858711  46.4513702  39.2994156  36.7405968  46.4955750  40.1455879
  37.6019592  47.3079605  39.2026863  75.4869232  61.4680176  39.2503967
  76.2133026  62.0856209  39.1657600  75.7196503  60.7435112  38.6697388
  45.8062096  69.5051804  42.7582207  45.9789886  68.5858154  42.5553474
  44.8538208  69.5866852  42.7078018   1.3863761  26.2314243  37.0468140
   2.2086420  26.2841034  36.5596428   1.0634367  25.3465576  36.8766594
  56.4498901  54.6272354  40.4345360  56.8279190  53.8332214  40.8125114
  57.1395187  55.2854080  40.5208931  53.8596344  53.2017403  23.7852936
  53.9115906  53.5525398  24.6743774  54.7596931  52.9555206  23.5719833
  51.2532387  56.8742447  66.4970627  51.2065964  56.3239937  65.7152100
  50.7638702  57.6632500  66.2641983  85.7144318  28.7078304  86.1015701
  86.1831589  28.1122875  85.5168839  86.4025421  29.2320518  86.5113678
  74.4897232  68.9189682   9.5270157  74.8564911  69.7998810   9.4514265
  73.8307343  68.9923172  10.2173672  13.6889000  51.9925690   2.4082828
  12.8321991  51.5776215   2.5088477  13.6365652  52.4496994   1.5689241
  53.6900520  71.4607468  53.8923759  53.3013916  71.9914932  53.1970444
  53.9647598  70.6554642  53.4538689  13.3111258  49.6594086  87.5521164
  12.4977112  49.5624542  88.0472794  13.9544373  49.1514397  88.0464249
  70.0857239   2.3791633  20.5995083  69.1664352   2.6452751  20.5817089
  70.3485794   2.3641281  19.6792297  51.0216064  38.3705940  72.2896423
  50.8849564  37.7081718  72.9669571  51.1343040  37.8683052  71.4826508
  85.5816498  25.2118759  81.2805176  85.7073746  24.9312668  82.1869812
  84.7062759  24.8991051  81.0521927  85.6973038  47.0779686  71.2803268
  85.8810043  47.0576286  72.2195129  85.6456604  48.0095520  71.0665054
  76.6842728  70.5923538  30.2396202  75.9187317  70.4071579  29.6956654
  77.4319916  70.3781815  29.6816959  13.6936884  65.3115845  70.5785904
  13.2798853  65.1769562  71.4311600  13.9303808  66.2390289  70.5710220
  55.3076820  14.8457279  53.6245537  55.6566048  13.9563532  53.6836777
  54.9759293  14.9138346  52.7292709  76.8551788  21.4051285  21.9884892
  75.8990784  21.4432487  21.9629326  77.0624847  21.2020283  22.9006329
  66.5883942  23.1503143  82.1471786  66.1126862  23.4545326  82.9200821
  67.2562485  22.5589828  82.4943542  78.9205704  51.2577477  53.2773094
  79.7556229  51.0800323  53.7101326  78.7582474  52.1865654  53.4421692
  68.1306534  11.1223373  53.2823448  67.5701294  11.0897293  54.0575752
  68.8938522  10.5940628  53.5162163  21.1753616  47.5650139  65.2005310
  21.7385998  46.8221588  65.4177017  20.3038654  47.2984161  65.4931946
  47.6921120   0.4577410  79.0622253  46.7742920   0.1888529  79.0229874
  47.7765579   1.1219331  78.3781586  38.9669647  68.4669876  52.1015244
  39.0784416  67.5658112  52.4043312  38.7675323  68.9634247  52.8952560
  32.0379219  31.3373928  71.4240417  32.6184196  31.5249729  72.1616516
  31.6382027  32.1811981  71.2132187  78.2168427  48.6835442  18.1596508
  77.9170532  49.4141121  18.7006016  78.6442719  49.0994911  17.4109688
  15.4379749  40.3870125  25.3665867  15.5129480  40.7241592  24.4738712
  16.3430843  40.2845306  25.6607094  65.7903137  60.0569038  42.5071869
  65.6929016  60.1935234  41.5648079  65.9042435  60.9368591  42.8662567
  18.8500404  17.0247669  88.2918167  19.7243309  17.3236828  88.0418243
  18.5980339  16.4149475  87.5983887  22.6264915   6.2054195  86.0188522
  23.3574066   5.8160682  85.5388565  21.8457947   5.8894181  85.5640030
  23.3773098  34.7185593  15.9098072  24.2972507  34.8326302  15.6712084
  22.9061661  35.3343964  15.3485584  55.7956123  20.0291500  21.0732861
  55.6936722  20.9772472  20.9899063  55.7750053  19.8680840  22.0166130
  81.8953934  19.6117458  41.6400185  82.7839661  19.9584064  41.5594063
  81.3309937  20.3314266  41.3576279  33.3052750  66.4258270  64.2583008
  33.7302971  67.2446594  64.0031433  32.7835274  66.1787415  63.4947891
  19.4665833  34.5514221  62.5141678  18.7066631  34.1805916  62.9627647
  20.2049351  34.0228195  62.8169060  62.5374794  28.9140434  81.0802917
  63.2060928  28.2677097  81.3070984  62.1196785  29.1291714  81.9141922
  58.5287132  44.9321938  18.7081966  58.4572754  44.0737114  18.2908974
  59.2450600  45.3652916  18.2439766  50.0573196  43.9476013  32.1722260
  49.9138985  43.0137367  32.3257256  49.3121986  44.2194519  31.6363869
  57.3847275  60.4071846  51.2421379  58.2599525  60.2078896  50.9097290
  57.1882706  59.6898232  51.8446541  38.2443008  49.9577599  21.5592995
  37.3769569  50.3589897  21.6137218  38.8308029  50.6832657  21.3450871
  47.2342911  33.4818573  10.9764566  47.2745209  33.3793602  10.0256100
  47.4329376  32.6107445  11.3198748   4.5745740  53.9349632  32.5731201
   4.7217150  53.6341019  31.6764240   3.6223619  53.9889107  32.6544418
  38.8483963  47.4867935  33.2678528  39.6528854  48.0054703  33.2690468
  38.4430313  47.6715698  34.1150665  29.8843803  38.4688416  62.9294205
  29.1559143  37.9869232  62.5378532  30.5120430  37.7913666  63.1810112
  47.1283684   1.4406167  84.8730392  47.8436012   2.0528238  84.7001953
  47.3818092   0.9988653  85.6835098  10.4806376   5.5210423  55.7477722
  10.2065163   6.4110136  55.9692268   9.9101725   5.2683587  55.0218582
  47.8072395   7.0573878  22.0103779  47.4791145   6.3964171  21.4007187
  47.5861435   6.7151031  22.8765125  79.8166351  28.2716999  70.3299255
  79.5992966  27.3985844  70.0033264  79.1008606  28.8276386  70.0219650
  73.5465088   7.7162428  77.1910706  74.0399551   6.9464931  76.9078293
  73.9133911   8.4374390  76.6796951  53.7459984  57.7385254  18.0257320
  54.1719398  58.0091896  18.8390884  53.0575142  58.3890877  17.8879204
  10.6027889   1.4227222  21.6846886   9.6776028   1.1876557  21.7554398
  10.9257259   0.9050125  20.9471798  28.3402901  31.0007534   4.9962287
  27.8034115  31.3441792   5.7104087  27.9757881  31.4029465   4.2078052
  68.9693680  31.7080517  31.7160873  69.1078873  31.6417847  30.7712841
  69.3364487  30.8977108  32.0693970  39.3882217  35.0668144   3.0157628
  39.7030525  34.5692902   3.7704670  38.5547867  35.4384918   3.3046849
  68.9530945   5.8760304   4.9390578  69.6828003   5.8257866   5.5565038
  68.2806778   5.3087511   5.3162608  75.0961075  45.2687454   9.5442753
  74.1533508  45.1210632   9.4691582  75.1725082  46.1597061   9.8857203
  63.2439003  21.9052200  27.0526905  63.5720406  21.0158710  27.1854057
  63.6838875  22.2067375  26.2578754  62.9027061  43.8464203  45.6762123
  63.0638809  43.0651016  45.1472549  62.2447891  44.3373947  45.1839485
  82.7719498  55.8890190  25.1955547  82.5735931  56.7494621  25.5650482
  82.5614700  55.2727852  25.8971119  28.9269829  12.2079887  28.3725910
  29.8295383  12.4630775  28.1813965  28.7719345  12.5247927  29.2624378
  37.4310188  58.8947601  46.6426086  36.5477448  58.5535812  46.5024147
  37.2949486  59.7656631  47.0157623  25.2548332  67.7653275  61.0957603
  25.3824596  68.0744629  61.9926300  25.9882584  67.1700516  60.9409485
  69.5623169  30.5790005  20.7984447  68.6977539  30.1909542  20.6635876
  70.1546860  30.0276909  20.2871838  26.5118866  62.8807602  75.7482529
  27.1542835  62.9463539  75.0416794  26.1575470  63.7659378  75.8327484
  57.8412666  47.7853165  67.9820404  58.5846481  48.3830681  67.9025803
  57.5357475  47.6622658  67.0832901  11.2026320  48.9428711  78.8162918
  10.4491158  49.4453506  79.1260681  11.6047192  48.5980644  79.6135788
  79.0451431   8.8617601  68.2115021  79.9632874   9.1220169  68.1372223
  78.9293060   8.1960335  67.5335464  52.1431923  12.1967611  63.7478867
  51.6670723  11.4713163  64.1519547  52.9585228  12.2550945  64.2459488
  83.8543549  41.2079124  50.3466644  83.4314575  40.4752541  50.7945518
  83.2595596  41.9458694  50.4803391  75.6529465  24.1868210  24.9545326
  76.4452209  23.6906853  24.7486763  75.2217712  23.6760807  25.6397076
   1.8838394  11.5099058  78.6263275   1.5349950  11.1862154  79.4568481
   1.2925210  12.2208176  78.3789902   0.8615560  14.6479568  46.1579361
   1.3938493  14.0342789  46.6641922   0.1089526  14.1312771  45.8700790
  83.1344528  22.7967873  41.7372742  82.2304230  22.5928745  41.4977379
  83.3895493  23.4964962  41.1359749   2.5508256  54.9927216  35.7743530
   2.7272272  55.3974266  36.6236610   2.3632267  55.7292061  35.1924362
  48.0983124   4.1587639  29.2711563  49.0398369   4.1464009  29.0990734
  47.8991356   5.0782337  29.4476128  67.4956589  38.6446037  15.3962326
  66.8858643  38.0041008  15.0299845  68.0842438  38.8564606  14.6717224
  43.8297920  36.1590805  62.3570518  43.5611572  36.2291031  61.4409943
  43.3154831  36.8278351  62.8092613  51.3851967  42.6883240   5.9382915
  51.5563660  43.5969887   6.1858134  52.1741676  42.4148636   5.4703484
  61.3843384  56.2078323  62.2976189  60.9409904  56.1663284  63.1449394
  62.0867081  56.8453941  62.4257851  67.9583435  55.6849365  32.9068031
  68.3064575  56.5183296  33.2238312  67.5593338  55.2829704  33.6784515
  14.7111349  48.8709641  59.9791832  15.3501387  48.8737755  59.2665138
  15.1622181  49.2987633  60.7070236  49.4101448  21.5837708   7.4936576
  49.3159599  22.0400658   8.3298120  48.5320282  21.2560368   7.2994080
  62.2812729  56.7264099  80.0536041  61.8230629  56.3828430  80.8205719
  61.7224083  56.4879456  79.3139877  48.7554932  51.8121414  67.3167572
  47.8772621  52.1577835  67.1571655  49.2377014  52.5481110  67.6936646
  63.0083084   2.9921136  14.5815611  63.0725937   3.5150859  15.3806849
  63.8868828   3.0241899  14.2029991  38.5303841  68.8067780  40.7448921
  37.7237015  68.6508865  41.2360039  38.6384926  68.0226059  40.2067299
  65.4395370  56.3917694  58.0290413  66.3590698  56.1533813  58.1467476
  65.1487045  56.6617508  58.9001083  49.5126762  57.4315720  52.7505226
  48.7893410  56.9477959  53.1492424  50.2711563  57.2199059  53.2947083
  45.6400528  13.3317852  11.4036446  45.3875885  12.8804693  12.2091312
  45.4888344  14.2582645  11.5907326   3.4299436  21.9325562  76.8359451
   4.2260985  21.4011974  76.8308029   2.8176875  21.4520378  76.2787399
   5.9323821  63.6260796  78.4241867   6.0387025  62.9413490  77.7638321
   5.0789738  63.4474564  78.8191833  69.4858017  70.9875565  66.0464020
  69.7546616  71.7214127  65.4937744  69.4841309  71.3445587  66.9345322
  66.5367584  35.6747971  63.8620224  67.0574493  35.0819855  63.3200951
  66.2598953  36.3670845  63.2617569  86.8124237  67.8003235  40.1948891
  86.9962158  68.7113037  40.4241409  85.8924408  67.6756134  40.4279480
  58.8355293  66.6542816  70.7721176  59.1818657  65.7772980  70.9369812
  58.6556435  66.6679459  69.8320694  30.7047691  32.6004295  12.4584885
  30.2521038  33.0949860  11.7753038  30.0238228  32.0522614  12.8484316
  69.8017578  46.4199982  80.9504776  70.2870026  47.2395287  80.8548965
  69.6521530  46.1241035  80.0525360   9.3210487  58.3009453   9.0208702
   9.4640198  58.0401535   9.9306936   9.3067122  59.2577248   9.0453901
  48.9844170  12.8231001   6.3702455  49.0268593  13.1087074   5.4576340
  48.1060104  13.0713949   6.6583133  58.6936684  15.9853897  45.5964813
  59.0011330  16.5964413  46.2660446  59.4456406  15.8679085  45.0159912
  80.0162430  47.8068047  38.5839005  79.1092987  47.6604118  38.8527184
  80.5234299  47.1816788  39.1017838  56.3833389  57.7329254  88.1882553
  57.3390694  57.7063408  88.2341385  56.1806183  58.6338425  87.9363022
  37.9249344  26.9977322  71.0435104  37.4439621  27.1897087  71.8485184
  37.3213577  27.2384892  70.3406830  63.5776520  30.7628956  25.9871254
  62.6479950  30.8043690  26.2112923  63.6614037  29.9692669  25.4585724
  65.7583160  65.8138351  70.4426575  65.9069061  66.2878113  69.6244278
  66.5302582  65.2562943  70.5400620  38.8940659  32.8834763   1.5684799
  38.1956863  33.0225258   0.9288204  38.8971214  33.6815071   2.0970323
  72.4654160   5.0077491  86.3756561  71.9287109   5.7687869  86.5970306
  72.2000504   4.3364916  87.0043335  39.3108826  42.9961052  83.2566910
  38.9717407  42.1159439  83.0938187  40.0070801  42.8690605  83.9012070
  60.3702545   3.9455690  77.2900162  59.4471512   3.6964412  77.3352432
  60.3642426   4.8156977  76.8911743  80.0593414  45.2512207  64.2138672
  80.2601318  44.3638153  63.9164963  80.0419846  45.7742271  63.4123688
  12.4789228  57.8247871  29.9775372  12.2197323  58.4815674  29.3312454
  11.7635422  57.1888313  29.9728889  65.6235046  21.6568775  44.9842453
  65.3019333  21.6752987  44.0828667  66.5151367  21.3159657  44.9135246
  74.1291428  56.1877975   8.1430635  74.5592651  56.6082649   7.3984623
  74.7980499  56.1703758   8.8275251  30.0391636  52.7521935  58.6038361
  30.1018867  53.1294060  57.7263374  30.6165295  51.9891510  58.5783615
  41.5541878  19.2328777  42.9327011  41.6948395  18.5768986  43.6154442
  42.1647186  19.9378204  43.1484413  39.3232460  17.6519165   8.8704901
  40.2287407  17.3419323   8.8853331  38.9992294  17.4874268   9.7560339
  47.6975937  70.5297775   9.5326004  47.2716255  69.6782990   9.6314182
  47.8117599  70.6322632   8.5877752  67.7568665  19.9493790  10.3993206
  67.3362503  20.8084793  10.3638744  68.2853470  19.9741726  11.1970234
  38.9545784  30.3978024  87.1612701  38.2662392  29.9471550  86.6720505
  38.8892746  31.3106804  86.8808823  69.8765030  60.4243546  59.1996689
  70.3675156  60.4199486  58.3780136  69.5371475  61.3165207  59.2711182
   2.8430979  49.3624115  11.4684677   2.8299425  50.2130318  11.9072170
   3.7729132  49.1682434  11.3502531  48.9428864   3.2438743  83.9552841
  49.6462326   3.8888645  84.0295868  48.9480553   2.9890757  83.0326385
  64.8371124  24.9807186  17.4556828  65.7360229  25.2762394  17.6001549
  64.5190277  24.7462730  18.3275127  10.9367380  11.2120810   9.1604223
  11.2846861  11.0443954  10.0362339  10.7731400  10.3417912   8.7970190
  13.3174114   3.0059350  69.1535034  13.6557884   3.6749363  69.7486267
  13.8097343   3.1353319  68.3428802  30.2530670  60.8662148  20.7570953
  30.8033676  60.5725250  20.0310478  30.7778397  60.6962357  21.5393677
  40.1476250  60.1258087  39.0410118  40.7229118  60.2528763  38.2866020
  39.2633018  60.1594582  38.6762161  86.1551056  53.0311852  46.4936447
  85.3241577  52.6095963  46.2744980  86.8230057  52.4289665  46.1658058
  78.0047226  43.8618050  14.4919395  77.9410706  43.7560730  13.5427284
  77.1455841  44.1924171  14.7542543  51.2032051   8.6882887  15.6522379
  51.7491417   9.4171696  15.3574219  51.3856468   7.9850297  15.0290432
  70.4805984   7.1381001   1.0775706  71.4300385   7.0294375   1.1323388
  70.1276016   6.4445019   1.6348363  25.6975708  62.5843239  80.3763199
  26.2688637  62.0400505  79.8344574  25.3935013  63.2739029  79.7861862
  82.9720154   4.5746198  37.4403152  83.3898697   5.3743200  37.1207657
  82.2967606   4.3809519  36.7901154  25.9393177  58.6411705  60.6783371
  25.2456818  57.9836540  60.6256905  26.7134953  58.2012634  60.3271065
  64.1280136  58.8043556  77.7247620  64.2070236  58.0281296  78.2792587
  63.9955368  58.4563217  76.8429718  72.8121262  67.9407120  17.0306721
  72.5423584  68.0353851  16.1171646  72.6737366  68.8075485  17.4123440
  26.8100739  29.8639088  55.0998573  27.0413284  30.4095097  55.8515701
  27.1266785  30.3545246  54.3413773  48.4468880  58.8398933  83.0739899
  48.5881767  59.5578003  82.4568329  48.3781090  58.0603027  82.5228577
  80.9127731  47.8326416  44.6309586  81.1031952  48.6978340  44.2684593
  80.0291367  47.9126396  44.9901581  41.2904167  54.4611855  78.7069168
  42.1632919  54.0691414  78.6820374  41.4241905  55.3181000  79.1119308
  80.9421005  38.8248100  68.4183807  81.3593140  39.6671143  68.2375946
  80.9948273  38.3486481  67.5896912  69.2430191  43.6646919  50.8719521
  70.0033340  43.0878105  50.7988129  69.2250900  44.1435318  50.0433235
  74.1292801   9.6946487  16.5222149  73.4435577  10.2599487  16.1666241
  73.6542892   8.9949713  16.9706192  71.5237579  51.9196167  10.0645590
  72.3925171  52.3159103  10.1312628  71.5069122  51.2611389  10.7590742
  66.2695541  44.1894341  23.3040009  66.2071609  44.7961884  24.0416927
  66.6933060  44.6968117  22.6117363   2.3762343  39.1496239  63.8978081
   3.1747105  38.6476860  63.7343369   2.6127827  40.0522194  63.6842613
  55.1862831  22.3721237  37.2757263  54.5494194  21.9191189  36.7230721
  55.9659805  21.8176384  37.2465668  20.3898678  54.8551903  23.3447628
  19.6167297  55.1119804  22.8422184  20.8543186  54.2432594  22.7737465
  25.5926132  43.7085495   7.2841620  26.1704597  43.5974083   8.0391283
  26.1546268  43.5464516   6.5264688  86.6023331  27.9399109  34.0949554
  86.2704086  27.1143131  33.7421875  86.6185532  27.8061485  35.0426254
  15.2077541  52.5205498  64.8510818  14.9709625  51.6257286  65.0949173
  15.2862759  52.9833031  65.6853027  43.7066841  31.5163765  16.9365196
  42.8276329  31.1375732  16.9395504  43.8699379  31.7500648  17.8502846
  32.0106621  46.8586388   9.9110985  31.1969891  47.3427849   9.7704878
  32.2441330  47.0417862  10.8211432  69.2206039  45.5414925  47.4443970
  68.7231979  46.1079979  46.8545723  68.5537796  45.0903130  47.9620934
  14.2820234  67.4164658  12.0410099  14.6785622  66.8435516  12.6973333
  14.8979073  67.4036179  11.3083744  38.2556076  69.4923859  44.1852798
  38.5358353  69.2878189  45.0773888  37.3092346  69.6181793  44.2544136
  62.4731255  44.2909889  42.5082016  63.3491096  44.6557236  42.6341019
  61.9845924  44.9872818  42.0691757  39.7786789  24.4631748   5.3477497
  39.2582970  24.2903652   4.5631657  40.2851295  23.6618595   5.4805450
  39.5263557  43.5699577  29.3928051  39.4768829  42.7135735  29.8175354
  39.3482628  44.1960258  30.0946255  82.2452087  20.2741871  27.2195606
  82.3521423  19.4574070  26.7320461  83.1171341  20.6691151  27.2194118
  23.6797962  48.0801125  74.0872040  23.8725166  48.0587006  75.0245590
  23.9053879  47.2033997  73.7762146  59.6780586  38.4305954  80.0051804
  59.2041283  37.9258881  80.6661530  60.2705650  38.9884529  80.5091324
  13.4486809  42.6242180  37.9936218  12.5704346  42.8425102  38.3054924
  14.0145264  42.7663689  38.7524643  26.3254108  63.2052765  68.3845901
  26.9708862  62.5350304  68.1601715  25.4828930  62.7542763  68.3298569
  77.4542770  30.9309101   7.5915995  76.8037033  30.7307854   6.9185901
  77.2855606  31.8440628   7.8238029  72.8288040  53.5459404  78.2209778
  72.3487015  54.0307846  78.8922882  72.1582642  53.0317726  77.7712708
  71.1557617  39.7556267  79.5520782  71.6892395  40.5287437  79.7362747
  70.4997101  39.7457352  80.2490158  10.9719496  34.5430756   4.0775547
  11.7623281  34.0452957   4.2867231  10.7497931  34.9933434   4.8925009
  58.8544693  61.9042549  65.8137283  57.9335327  62.1203651  65.9600296
  58.8335648  61.1689301  65.2012787  26.5437126  12.7567835  67.4224243
  27.1690979  12.7629604  68.1470490  26.8837032  13.4063854  66.8070755
  50.4962502  21.3339500  59.5411797  50.1158104  21.5521164  58.6903534
  50.0543785  21.9176178  60.1578751  57.2723618  50.0426483  39.2865410
  57.5181084  50.8060455  39.8091011  57.8414955  49.3416557  39.6042328
   2.1689229  35.8002243  74.8465347   2.5693979  34.9500046  74.6649399
   2.6480677  36.4143791  74.2902374  39.1164284  35.3796768  84.2594604
  39.4400520  34.7056007  83.6618729  38.1667099  35.3693275  84.1404648
  13.6645060  66.0415497  62.2141838  14.1768332  65.8949356  61.4190369
  14.3170967  66.1021271  62.9118118  44.8782692  69.5653763   1.1131928
  45.5534172  69.9867401   1.6450378  44.9169006  68.6424942   1.3642534
  73.0796967  45.2653122  26.8035774  72.8440857  46.1801147  26.6491146
  74.0089340  45.2161522  26.5792255  65.5772400  42.1584778  42.7745056
  65.3852005  41.2665749  43.0640984  64.9545364  42.3194237  42.0655861
  73.9474945  37.5298920  21.5417690  73.8906784  37.5637207  22.4966831
  73.1568680  37.0630798  21.2711773  32.9578629  12.8768415  74.4734268
  33.5239182  12.9070978  73.7021255  33.4856377  13.2617435  75.1730957
  60.8475151  56.3875198  77.6917038  60.6984520  55.9104996  76.8753281
  59.9767151  56.6802750  77.9604721  14.9457273  14.8031473   4.3957071
  15.8811502  14.7397766   4.5885797  14.8092508  14.1950836   3.6691639
  20.3506489  25.1156235  85.3567429  20.3747864  26.0433025  85.5913925
  19.6335068  24.7552185  85.8783264  14.9928713   1.3540854  77.9771805
  15.8356285   1.7538542  77.7622910  14.4601202   2.0792084  78.3036880
  54.8209152  26.7489738  85.4610748  55.2290688  25.9208126  85.2085037
  54.1582909  26.9044952  84.7880402  23.6828575  55.6376801  36.5780716
  24.1475277  55.9213486  35.7907677  23.0325546  56.3229065  36.7323456
  70.4019928  68.1649017  18.7147522  70.0335464  67.6079712  18.0289631
  69.9515533  69.0030212  18.6104183  64.7276611   9.0201445  31.1201172
  65.4179764   9.0961170  31.7788506  64.5501709   9.9223242  30.8540344
  39.9764519   9.9806662  78.8140182  40.1142883  10.8214369  79.2502899
  39.0255013   9.8727961  78.7968521  10.5960932  16.7352123  77.6659851
  10.2838669  15.8356228  77.5685959  10.6667557  17.0626125  76.7693024
  25.9609680  47.1692963  82.3787689  25.3584919  47.3884583  81.6679764
  26.1328125  48.0047150  82.8132477   4.4482007  67.9146194  65.2351990
   4.4973187  67.4362259  66.0628281   5.0314293  68.6638336  65.3566437
  71.9833832  40.4672813  24.8855228  71.5270996  40.0709534  24.1432552
  71.8154907  41.4054413  24.7966728  69.8839493  36.1046371  46.4179726
  70.3087845  36.8004150  46.9196091  69.2780304  36.5641975  45.8366776
  69.1629333  38.6378098  10.1821766  69.4469681  37.7963829   9.8250275
  68.3385086  38.8228951   9.7323961  69.3452454  62.0822830  83.8631363
  68.7535934  61.3823357  83.5869904  69.7899323  62.3510780  83.0592499
  41.1167412  37.3852310  27.8631897  40.3703346  36.9161758  27.4902401
  41.6713486  37.5900116  27.1103897  32.2631073  65.5030670  58.0909576
  32.5311127  64.6502991  58.4332924  32.7845306  65.6167908  57.2963409
  28.5011177  59.4877968  74.8685455  29.4228783  59.2699432  75.0068512
  28.5201511  60.3131027  74.3840408  80.7630081  30.8749943  47.7909813
  80.3097534  30.1683159  47.3312073  80.5354843  31.6646671  47.3001862
  83.5590057  45.1068153  16.5056801  82.6043930  45.0960197  16.5751686
  83.8230667  44.2062569  16.6940880  49.3867989   4.6157861  56.4390945
  48.4734421   4.5072536  56.1740761  49.3541069   5.2461410  57.1586876
  47.1854439  30.0308876  80.8230515  47.2959671  30.9403038  81.1004944
  46.5941849  29.6521759  81.4736023  51.6536827   1.7472450  44.4842415
  52.1857338   1.0009326  44.2082520  51.9031982   2.4529521  43.8876266
  56.6084518   9.8807735  10.3916121  56.7894478   9.3761539  11.1845999
  55.7391548  10.2536840  10.5382195  86.1344376  70.7907257  49.5239258
  86.1908569  71.7428131  49.4427910  85.2005997  70.5980988  49.4397621
  49.0497093  13.9729481  67.3294601  48.5732651  13.1536741  67.4636993
  49.7659454  13.9401636  67.9636307  61.6908493  11.7548523   0.8679747
  62.6200790  11.9721193   0.9425455  61.6751556  10.8039246   0.7597031
  73.2128525  43.8614388  18.6496830  74.0309219  44.1297722  19.0680008
  72.5344238  44.0787048  19.2890224  69.8641968  13.6310291  86.2302780
  70.2966995  14.4139938  85.8894958  69.4854431  13.9102449  87.0638351
  78.5370255  54.7688332  51.3069153  78.4206238  54.3225899  52.1456909
  78.6901245  54.0626564  50.6791344   7.6405787  16.4909248  80.4780121
   8.0430307  15.8486567  79.8934174   8.3511209  17.0937366  80.6970596
  34.5685043  11.8518534   1.1334044  34.8536301  11.6811972   2.0310745
  34.2086372  11.0170755   0.8336132   7.5106211   0.4864182  64.6351471
   7.1241117   0.9204197  63.8745651   8.4055443   0.2810799  64.3646240
  12.2727909  32.2768707  78.5349350  11.4506626  32.7642288  78.5880356
  12.8405352  32.8233871  77.9916000  50.3306770  10.2238522  88.5656357
  51.0644989  10.4363775  87.9889450  50.5038643  10.7192707  89.3661346
  63.4758224  13.4001226  65.2402878  63.0502892  14.2574940  65.2320099
  62.8676071  12.8354549  65.7172089  57.1973648   8.0087605  82.2014236
  57.9314156   8.3816156  82.6896591  57.5384026   7.8817716  81.3160934
  50.2741623  53.7208977  16.5483170  50.6995506  54.1957474  15.8343191
  50.9608765  53.6121483  17.2062187  67.0314713  37.9866104  57.2552910
  66.4982681  37.4981842  57.8824768  66.3973618  38.4793663  56.7343979
  25.5496235  20.7341938   4.1607752  25.3124466  19.9333668   3.6931708
  26.4569740  20.9008217   3.9054682  56.1805763  29.6252041  23.8019485
  56.4260674  28.9751759  24.4603024  56.5960274  30.4350033  24.0983601
  44.9804192  51.9296494  77.0426636  45.6526909  51.6528702  77.6652985
  44.6437988  52.7502060  77.4026718  12.6043100  61.9935455  48.1422691
  11.9103060  61.9994850  48.8014755  12.2550421  62.5184555  47.4220543
  63.5919495  26.3740673  72.2137604  63.2960930  26.8940468  71.4665451
  64.5140839  26.6084194  72.3185501  21.3043118  11.0361567  40.4327469
  22.0358696  10.4751005  40.1753159  20.5549412  10.4430361  40.4864616
  78.7528152  58.3358498  18.7762089  79.4110260  57.9330902  19.3425808
  78.6437454  59.2198296  19.1268005  70.2675476   8.2250872   7.6531086
  70.3927383   8.3717766   8.5906801  70.4107208   7.2858782   7.5364094
  31.5976315  60.7559814  62.2494202  31.3566914  61.6787720  62.3308907
  31.0714626  60.3114738  62.9140930  77.5218658  17.1606827  83.9779053
  77.2918167  17.4747448  83.1034470  76.9145050  16.4389801  84.1406631
  83.3101654  16.8950386  34.1468391  83.3066635  17.7333565  34.6088371
  82.8859406  16.2864399  34.7517166  20.0375576  47.5065460   6.1714277
  19.9116268  47.1974411   5.2743053  20.9195690  47.2158470   6.4033303
  69.7234802   7.3082185  22.9102573  70.5167236   7.6826630  22.5271358
  69.4392166   7.9569435  23.5541401   5.6250010  44.1786995  64.1252518
   4.7554307  44.1674690  64.5251999   5.7556148  45.0895500  63.8615799
  15.4489765  68.2104111  58.2288094  15.0879478  67.5589218  57.6276016
  15.3674841  69.0406342  57.7594223  61.9975586  46.2584419   9.0399675
  62.6944962  46.0289345   9.6546535  62.4536514  46.6564217   8.2984657
  35.7706490  51.5391579   0.0057053  35.3698082  51.3853378   0.8612158
  35.6317978  52.4716835  -0.1596673  80.1844864  60.2179222  46.2203789
  79.3566208  59.7929649  45.9961319  80.5455322  59.6815758  46.9262199
   2.3292706   9.3418941  23.2123356   1.4742332   9.7499666  23.0758820
   2.8041894   9.5025225  22.3969326  65.5258942   8.1548901  57.8768387
  65.3280411   8.4499664  58.7656708  65.0020370   8.7242775  57.3132706
  35.4742661  66.7900620  46.3007965  35.7864265  66.3163452  47.0717583
  35.2364960  66.1033783  45.6777687  46.9339943  54.6118279  33.5498390
  46.1342888  54.7420540  33.0401878  47.6375961  54.6337013  32.9012299
  68.1216431  45.5419159  33.7973328  67.4378967  46.1972656  33.6586342
  67.7465591  44.7290421  33.4585381  30.6486187  44.3870316  64.9421997
  30.1636391  43.7442932  65.4598007  31.5531406  44.3044930  65.2442856
  67.3751678   3.4941382  85.9653854  67.0732498   3.7035356  85.0815125
  66.5896225   3.1925209  86.4216461  15.9451361  34.5318336  54.9935341
  16.4120541  34.1823349  54.2345428  15.0227766  34.5090942  54.7386475
  81.3245392  64.3881989  10.1426449  80.9239883  63.8331528  10.8117628
  82.2661896  64.2979813  10.2888708  30.0108490  53.1108055  75.8504715
  30.7351036  52.7201080  75.3615494  29.6384430  53.7574615  75.2509842
  14.5376406  42.6482086  55.7912712  15.4029255  42.9044724  55.4721413
  14.6776600  42.4275208  56.7121010   7.8009963   8.1820421  79.2170715
   7.7985826   7.8600135  78.3156738   7.3336110   9.0162964  79.1746216
   2.2433596  47.4718437  32.1184006   2.8916452  48.1043701  32.4280243
   2.6962185  46.9808731  31.4327602  20.1222763  58.1169090  82.9871140
  20.4333630  58.8426552  83.5281754  19.2634678  57.8990669  83.3493576
  16.6391411  57.9178200  15.6412306  16.8393402  57.4592590  16.4572411
  17.1988487  57.4987946  14.9874878  28.0750256  60.9167900   4.7976956
  27.3017826  61.1726379   4.2948375  28.5319138  61.7400894   4.9699378
  76.9899521  47.4663200  49.1837959  76.7902069  47.5603905  48.2524071
  77.2635651  48.3411255  49.4596214  10.6729555   1.2755108  75.7614899
  11.2233028   0.8334964  75.1149826  10.1095600   1.8503805  75.2434769
   7.0023818  53.5729523  38.2793961   7.7718129  53.8204575  37.7666092
   6.4068265  53.1782990  37.6423759  69.9763641  71.7368774   5.4366789
  70.1166153  71.2233124   6.2321773  69.1366577  71.4276047   5.0968609
  69.6148376  50.8519745  84.3863373  68.6780472  50.6577454  84.3558578
  69.6607590  51.8078842  84.4052429  42.8066216  52.0558853  33.2483444
  42.3540802  51.9105568  34.0792007  42.2464790  52.6709709  32.7749062
  15.5306768  51.6992493  28.3282471  16.0398712  52.4154968  28.7076473
  15.7955799  51.6779404  27.4086800  71.4892960   3.1163769  88.0691605
  70.7268524   3.6872797  87.9743576  71.1463928   2.3261704  88.4865646
  44.6028023  71.4326324   5.0883880  44.8765755  70.5878220   4.7312140
  43.6467628  71.3879242   5.1031933  80.0426483  21.7591152  75.7033768
  79.4826355  21.5596333  76.4535904  79.6286926  22.5168858  75.2902679
  71.9387207   5.8862391  63.4735680  72.7000885   6.3642440  63.8023033
  71.5491714   6.4729328  62.8252831  63.6210403  43.9235535  75.7454376
  62.7650681  44.1780167  76.0900955  63.8970261  44.6704597  75.2142181
  69.8671188  15.7080336  26.8580723  70.5160141  15.6326113  26.1584435
  69.4784317  14.8354502  26.9193287   3.9953482  60.7348709  10.0836773
   4.4250751  60.9488449  10.9117966   3.1714487  61.2214890  10.1086340
  33.1083717  59.1233444  27.6180325  32.6820297  59.5351791  26.8664627
  32.5205917  58.4094925  27.8653374  66.4186630  39.3112640  87.8490753
  66.4754562  39.8009148  87.0285568  66.0505295  38.4642487  87.5975418
  79.5796585  52.2597351  65.1772308  80.1453400  52.9444008  65.5342560
  78.9122696  52.1254044  65.8501129  17.6498642  12.5156136  77.0193253
  17.1789951  12.2138548  76.2425003  18.3247356  13.1021070  76.6775513
  50.9479675  65.2358551  85.0748672  51.8788986  65.0156479  85.1082077
  50.6926727  65.3365326  85.9918823  65.4484482  62.9713974  52.9244232
  64.9731598  63.1109581  52.1053658  65.0639725  63.6006927  53.5346642
  79.8369598  46.7658310  12.8711996  80.0442276  46.1345711  13.5602407
  80.0719986  46.3187065  12.0581398  65.8335266  64.1812973  57.9557724
  65.7692947  64.4444809  57.0377083  66.7169571  64.4402542  58.2179222
  35.7752228   1.3914214  75.2761993  36.1696663   2.2238047  75.0158463
  34.8477097   1.4879823  75.0602646  19.3642597   9.7977867   2.6177664
  18.5218086   9.4388533   2.3390660  19.3818169   9.6599474   3.5648270
  30.4114494  11.9920979  86.2863770  31.0882111  11.3418751  86.0981293
  30.7471237  12.4755125  87.0412674  51.5858307  30.4400291  21.6920948
  52.4589767  30.0504360  21.7374840  51.2650833  30.4146729  22.5936012
  63.0584908  15.5587397  88.5918350  63.0801430  15.1528349  87.7252274
  63.5820503  14.9763603  89.1422424  42.6252022  53.7516899  18.4190674
  41.7209816  53.5656853  18.1660576  43.0952606  52.9362869  18.2447357
  45.9939270   5.9731417  36.3477325  46.0337219   6.2183905  37.2721252
  45.9009857   5.0205040  36.3564644  70.5495758   1.1759591   0.6452246
  70.8267899   0.3337662   1.0059150  70.9179306   1.8257751   1.2437965
  63.1806526  41.6522980  40.7555580  62.8358536  40.7939301  41.0016212
  62.5722084  41.9729500  40.0898209  18.5223351  41.8049164   1.0078868
  17.8786392  41.1511383   0.7350104  18.1740322  42.6346741   0.6816738
   3.1428933  45.6934509  13.3729725   2.7799723  46.0344315  12.5555067
   4.0853119  45.6419029  13.2135296  83.6612091  64.7098312   6.2979031
  83.5480881  64.3325500   5.4254951  84.5712509  65.0060959   6.3145723
  20.8999805  21.0083847  77.6902313  20.2290401  20.8073196  78.3426514
  20.4630184  20.8766060  76.8488464  68.4414673  42.9529457   0.2918897
  69.3103867  42.5846634   0.4517946  68.4145889  43.7450714   0.8285878
  22.9379902  28.5232296  10.4782381  22.4627876  28.0132408  11.1342297
  22.2836418  28.7204018   9.8080273  25.8620434  52.2043037  18.0109081
  26.7880383  52.1868629  17.7691231  25.5319691  53.0208702  17.6360722
  15.6897984  10.1801853   9.0081406  15.1934032  10.9955549   8.9374580
  15.0233755   9.5037527   9.1287718  49.6274605  44.3969307  17.5080662
  50.3144569  44.8744087  17.9731312  50.0955276  43.7217293  17.0168934
  42.0511551   5.1358662  87.7194748  42.8119888   5.6521878  87.4534378
  42.4190063   4.3053412  88.0213776  50.2096024  47.4529457  17.2725201
  49.4811707  47.1991501  16.7057686  50.8586273  46.7595482  17.1533737
  28.4113979  22.8812904   7.3968501  28.5049152  23.8046246   7.6312490
  28.9596176  22.7748222   6.6194501  55.4438133  21.2422905   1.0383959
  55.4637527  21.0472755   1.9753073  56.3377419  21.5148201   0.8313977
   2.8794851  60.5806580  72.9216156   2.0112634  60.8839836  72.6562500
   3.4523258  60.8300972  72.1964493  32.0901451  54.3606720  32.1991119
  32.2473259  55.2574043  32.4947357  32.9644661  53.9820824  32.1071243
   1.8267732  27.4256420  68.5102234   1.5197923  27.4098701  69.4167252
   1.5794261  26.5703850  68.1586761   8.3618393  19.1072140  86.8086853
   7.7529507  19.8230648  86.6269073   8.6691685  19.2745953  87.6996155
  31.6226501  63.9107971  55.1444893  31.4450321  64.8493958  55.2054596
  31.1283321  63.5259781  55.8682251  51.8623924  25.6613960  85.9920425
  51.7982788  26.4601192  86.5156479  50.9668884  25.4956570  85.6973648
  28.0858307  39.1766968  78.1273575  29.0102081  38.9368935  78.1925735
  27.9997559  39.5640411  77.2562714  40.9998779  40.3743591  59.3484459
  41.2686119  40.3821220  58.4297752  40.0432053  40.3649368  59.3180733
  48.5520210  32.2624855  82.3093796  48.8214455  32.5131149  83.1930237
  47.6385765  32.5421562  82.2491150  69.8469086  23.5745602  78.9836273
  69.8716278  22.9518948  78.2570572  69.8716049  23.0275803  79.7687607
  54.2058792  14.9332237  57.4667168  54.1074753  15.5543232  56.7450638
  54.6114769  14.1638699  57.0669441  70.9089813  57.8694267  23.5128613
  70.9879837  56.9653358  23.2085438  70.2874374  57.8241501  24.2393990
  60.3152657  23.7730255  27.5079842  61.1122169  23.8234119  28.0357742
  60.2058716  22.8393002  27.3279285  83.4843063  22.6073074  63.4492836
  83.0194702  21.7780952  63.5613937  84.2666245  22.5188465  63.9936943
   1.4069232  47.7891235  67.7726974   2.3345754  47.7472038  68.0049362
   1.0569773  48.4987335  68.3114166   9.9190626  51.2234764  32.5730629
  10.6706896  51.7012253  32.9238396  10.3046293  50.5030289  32.0745430
  13.8738327  50.4577637  72.1424103  13.9321613  51.3541832  71.8118515
  14.7840176  50.1730690  72.2245255  65.0931778  48.4773750  69.0801697
  65.9541397  48.0611076  69.0389328  65.1275940  49.1651649  68.4153442
  33.9177361   4.9898214  66.4659042  33.4926338   4.2122097  66.8276138
  34.8422127   4.7498569  66.4027023  50.3853951  56.0432510  86.8489914
  50.9488945  56.7688522  86.5802841  49.5010605  56.4093475  86.8362579
  64.3762131  30.0035477  68.8119965  64.8204575  30.2943707  68.0155716
  64.4326706  30.7528381  69.4049606  10.9770699  34.8880615  60.4842110
  11.6836748  34.6105614  59.9011726  11.1059914  34.3713684  61.2795982
  59.0198135  22.1811771  73.1890945  58.4535599  22.6372890  73.8116302
  59.3598328  22.8738079  72.6226349  67.3802719  29.2810650  43.5292091
  67.8095551  29.7833824  44.2217598  67.3872070  28.3786755  43.8483925
  12.6700325  16.1022415  84.4614182  11.8354712  15.9146624  84.0318222
  12.8673582  17.0064144  84.2169418  45.3352089   4.5905995  70.9391861
  44.8156853   5.3943954  70.9547272  45.3336792   4.2868447  71.8469162
  38.5760498  44.8419304  22.7214603  39.4779205  45.0645409  22.9523430
  38.5725975  43.8865166  22.6631565  45.7155991  24.3375740  40.5183029
  45.7216415  25.1263371  41.0605621  45.1554718  24.5620327  39.7752647
  62.1182213  63.2533722  29.4142971  61.5404015  63.0295067  30.1438465
  62.1734772  64.2087097  29.4369602  58.4090996  63.0949249  23.4893360
  59.1124382  63.6280937  23.8598480  58.4560432  63.2576866  22.5472450
  55.4444504  66.7484131  46.8384819  56.1423607  66.6350174  47.4836922
  54.8136902  66.0584412  47.0441704  71.0207291  69.9637833  62.4207497
  70.2778931  69.7071075  61.8743591  71.1126785  69.2492523  63.0509987
   4.9517522  25.5879078  86.2143860   4.6244349  26.3825073  85.7928314
   5.5979557  25.2396660  85.6000671   6.2447791  39.7393990   5.3771715
   5.9897203  38.8569946   5.6465063   6.3270326  39.6848297   4.4250746
  82.9550552  15.9463072  10.5044003  83.2316208  15.3156805   9.8395281
  82.7132339  16.7278023  10.0073881   1.7967254  60.8994408  51.4637260
   2.4753752  61.3110237  51.9987640   1.6561079  60.0447350  51.8710785
  16.3238468  49.0320511  47.0376396  16.6027012  49.5518608  46.2838058
  16.8289547  49.3834038  47.7708893  23.7344456  49.7182922  40.8612480
  24.2487736  48.9825935  40.5289116  23.8449879  50.4044952  40.2031136
  69.5210953  48.2836380  49.3400002  68.7052841  47.7832260  49.3234253
  69.4567032  48.8716812  48.5874786   8.3070908  66.1140213  62.5960426
   8.0242653  67.0260239  62.5289917   9.1233034  66.1524124  63.0945930
  85.7278671  20.6372223  50.7290993  85.8776093  21.0811825  49.8944092
  86.5893631  20.6133099  51.1456032  61.3422165  63.5984612  60.9185791
  61.3404198  63.2594414  61.8137283  62.2587891  63.8135490  60.7457657
  10.7600918  23.4182625  69.1440430  10.8507919  22.6998940  69.7701035
   9.8461084  23.6912937  69.2235489  74.6781158  41.4349976  20.0499859
  73.9304886  41.0985870  19.5559025  74.2959824  42.0582161  20.6678905
  14.7060204  25.5452614  49.3177109  15.4172220  24.9492664  49.0827293
  13.9109039  25.0230389  49.2113800   3.1833289  25.6243935  65.2452469
   2.4496453  25.8805752  64.6864014   3.9444008  26.0515385  64.8521194
  38.8531799  45.5577126  12.0590925  38.3380775  44.7530861  12.1181097
  39.6188507  45.3928413  12.6093616  73.3715820  26.7723885  48.0738029
  73.4942474  26.6795044  49.0185547  74.1057358  27.3167553  47.7893372
   3.5569682  41.0282784  31.1415176   4.1479568  40.9846382  31.8932228
   3.9352229  41.7035561  30.5783520  75.7078018  45.8777771  73.2638092
  75.7277527  46.0296402  72.3189392  76.1141586  45.0185242  73.3769226
  15.0972366   5.8568091   5.4957852  14.5646257   6.5833783   5.8192897
  15.2946434   5.3385944   6.2759876  85.8098221  30.9709663  41.5256844
  85.2264557  31.7172852  41.6632500  85.3230515  30.3912888  40.9397964
   2.8847799  -0.2087166  36.4374352   3.6063020   0.2930222  36.8167725
   2.2038465   0.4421542  36.2673531  66.3307419   8.6977444  33.3017654
  66.4648819   9.5718641  33.6680336  67.0683975   8.1842813  33.6310959
  45.5206451  59.1874161  23.0382919  46.0135002  58.6917648  22.3843384
  45.6200104  60.1012001  22.7711716  25.9544411  13.1377640   7.4673223
  26.1748676  12.7524271   8.3153543  26.7255859  12.9770432   6.9235063
  59.7135506  22.0447083  62.8884697  59.1711769  22.7294540  63.2798615
  59.0990944  21.5114326  62.3841934   3.4593909  58.1224174  21.0609531
   3.4621208  58.1618118  20.1045666   2.8217061  57.4400826  21.2707405
  47.1856575   4.7649803  25.3299408  46.3102303   5.1514711  25.3079376
  47.2788315   4.3344536  24.4801197  14.4298582  16.4674625  62.2785950
  14.9759731  15.7204199  62.5233765  13.7726650  16.1002197  61.6874428
  74.6524887  10.2537594  34.4649010  74.6138611  10.0964136  35.4082870
  75.4330673   9.7815933  34.1750908  70.1046600  44.2073631  68.0981140
  71.0098114  44.0471420  68.3650589  69.6603699  44.4709282  68.9039459
   3.5928485  67.5364380  25.9534206   3.2754028  68.0858841  26.6700554
   4.5236382  67.4136658  26.1399422  20.8893547  18.3229523  42.6197777
  20.7014732  17.6555347  41.9598618  20.8639393  17.8507385  43.4520035
  81.8422470  46.6792946  83.2254486  81.7001114  47.5697670  83.5465240
  81.1371841  46.5370178  82.5938797  77.3921280  27.0864201  29.7000179
  78.1638718  26.6149082  30.0135937  77.7455978  27.7845650  29.1487598
  47.3546562   2.3880758  88.5343246  47.8279343   1.5568464  88.4982681
  47.3222008   2.6848562  87.6248703  36.9816093  19.9557247  87.7329025
  36.5354576  19.1133690  87.8201828  37.8730125  19.7283592  87.4684448
  80.1741867  24.2873440  66.4069977  79.3102188  24.6986084  66.4326248
  80.1516037  23.6386242  67.1104736  57.2354126  28.3312016  21.5309620
  56.9278603  29.1476784  21.1372528  58.1262436  28.5262356  21.8218479
  32.3304024  46.7264328  70.7833862  31.9273548  46.4768066  71.6149292
  32.0635338  46.0397987  70.1722031  41.6696243  65.4521713  86.7611542
  41.8167000  64.5395355  87.0095367  42.2963257  65.6123505  86.0555878
  17.4716721  50.1005058  48.9718781  17.6734352  50.0185814  49.9039803
  18.3268490  50.1156654  48.5421371  83.1985626  46.3786469  37.1875954
  82.9930573  46.0627708  38.0674973  82.4300232  46.1491890  36.6651726
  68.9701080  28.4582767  66.1033173  68.0796280  28.7264519  65.8767014
  69.5309296  28.9823380  65.5314178  41.0611382  43.3036461  57.4468727
  41.7409325  43.1189690  58.0949516  41.5278549  43.7198181  56.7221565
  49.5696030  69.5218124  68.6585312  49.1093102  69.6234283  67.8254395
  50.4369354  69.8944016  68.4999542  68.0513153  29.5175743   4.2869687
  67.4555893  29.2571678   4.9894862  68.1760941  28.7209625   3.7711494
  48.5737343  32.5493736  37.7582474  48.6980362  33.4312706  37.4074745
  47.6272011  32.4698601  37.8765030  74.5772934  55.6853638   4.9103022
  73.6218872  55.7354088   4.9407883  74.7662506  55.2012482   4.1064620
  33.1033134  14.1369429  84.6376724  32.2954788  14.5870447  84.3906021
  33.0067024  13.9687147  85.5750046   6.9486208  38.0402336  28.9969654
   7.4864907  37.5184860  28.4013920   6.1511703  37.5239029  29.1140461
  21.1055737  47.5449677  47.9781303  21.0129337  47.0400467  47.1702271
  22.0217209  47.8222351  47.9835663  39.1175461   6.0529160  16.0866623
  38.3896980   6.2645779  16.6711864  38.9014473   5.1878161  15.7386179
  58.1992111  70.0782928  20.5713120  58.0443993  70.1101685  21.5153713
  57.6010551  69.4020844  20.2532139   9.3604317  63.7712860  39.9777451
   8.5427513  64.2556458  39.8636131   9.8852777  64.3210831  40.5595474
  78.2752228  40.9056549  57.6964111  78.6906128  40.0451660  57.6395073
  78.6977463  41.4214745  57.0096550  81.4605942  35.7667999  38.5701714
  81.3054199  36.6351242  38.9418678  80.9915924  35.7761230  37.7357979
  49.3793869  15.5237732  65.1812286  49.9838181  16.0597897  65.6946335
  48.9445610  14.9674149  65.8274689  43.6004143  53.3304901  72.8901291
  44.4362793  52.9797783  73.1976318  42.9867630  53.1448708  73.6009140
  -0.0248938   2.8980126  44.5334930   0.7424481   2.8904653  45.1056480
  -0.6631265   3.4411972  44.9959221  53.3746262  16.0851154  54.9690704
  52.7919502  16.5162640  54.3439064  53.8858490  15.4743967  54.4381218
   1.8894862  64.4353561  37.9331970   1.4730152  65.1093674  37.3960800
   1.8897884  64.8005066  38.8180122  57.7761803   8.6452951  55.1196289
  58.4070015   9.3629885  55.1763039  58.2762680   7.9150925  54.7550087
  30.8811398  66.0962753  50.2557869  30.7879124  66.4566727  51.1376343
  30.1893234  66.5213928  49.7489357  83.4065475  24.2015610   0.1453962
  83.8248672  24.3085442   0.9996755  82.7371063  23.5325565   0.2886194
  77.4341660  59.1311646  31.1597595  77.0794144  58.5007973  30.5328503
  77.9048843  59.7664719  30.6202774  43.6532593  69.4672623  25.9404469
  44.3979950  69.6879349  26.4998245  42.8964844  69.4987640  26.5257111
   8.2095213   6.0205350  18.3271866   9.1355066   5.9031825  18.1150284
   8.2120152   6.5379834  19.1324635  85.0239716  48.3240280  21.9380341
  84.6282883  49.1074257  22.3200760  84.2858505  47.7351799  21.7809410
  74.4425659  41.9002457  32.3603058  74.6160812  42.7467461  32.7720833
  74.4252014  42.0893440  31.4221306  31.8114262  63.2243805   4.7332668
  32.5845985  63.3351250   4.1799374  31.9696712  62.4067078   5.2050681
  68.0528030  25.5952110  28.4480476  67.1569595  25.7453041  28.1461067
  68.4319992  26.4713249  28.5177898  60.0147133  63.6677780  80.2748108
  60.8363571  63.9074707  80.7033920  59.3903618  64.3328094  80.5649033
  10.7887049  65.4579391  84.7174683  10.8965521  66.2643890  84.2132568
  10.6142187  65.7552795  85.6104279  65.7456589  62.7951775  45.8047333
  66.6113434  62.7999611  45.3963242  65.1456604  63.0305367  45.0970345
  83.8306580  10.8558016  25.0513153  83.7865524   9.9708815  25.4135342
  83.2697144  11.3776922  25.6250763  47.0496597  12.4770718  64.2099304
  46.5411606  13.0302467  64.8029404  47.7317429  13.0554609  63.8686676
  13.9516268   8.3627682  65.7524033  14.7552252   8.2481680  65.2451248
  13.9885397   7.6758590  66.4180069   2.8528130  57.1877289  66.4891357
   3.2453952  56.6635017  67.1872025   2.0245578  56.7482796  66.2965012
  68.3214035  42.4872818  11.8696861  67.7127304  41.8789330  11.4505768
  69.0501785  42.5595932  11.2533350   4.0408554  34.7632446  53.0257645
   4.2636356  34.5032120  52.1319046   4.8858442  34.9200897  53.4472198
  73.9477921  67.7865677  46.4535713  74.3895187  68.1641006  45.6929207
  73.4654007  68.5184631  46.8380890  66.1874237  57.4749336  49.7431107
  65.8209686  58.0145531  50.4436493  65.4958038  56.8454895  49.5389175
  67.0144730  58.8451195  65.8337784  66.2291946  58.7164726  66.3657684
  67.1387177  58.0093040  65.3841019  34.4917450  40.1063576  44.8087997
  34.7765465  40.9905090  45.0398750  34.2935753  40.1553040  43.8736153
  37.4786224  51.6996231  47.7189445  38.2733612  52.2303276  47.7734833
  37.2229919  51.5567894  48.6302528  73.1024246  69.8430634  76.8952789
  72.2819824  69.3742828  77.0480804  72.8378983  70.6527634  76.4586487
  71.7475128  43.2557602  25.1321602  72.1382141  43.9637489  25.6443462
  70.8462906  43.5398216  24.9793644  84.7387924  12.5890055  18.2581463
  84.6795502  11.7654829  17.7738590  83.8366776  12.7823029  18.5132046
  48.0579185  64.6493454  19.1433430  47.5077095  63.9903793  18.7199497
  48.9306297  64.2565918  19.1620045  52.1739769  19.8617630  60.9831696
  51.6018600  19.1295395  61.2128677  51.6859093  20.3476772  60.3184090
  14.0035992  39.6410027  29.4816685  13.6903381  39.5816307  30.3842068
  13.2064848  39.6963348  28.9546204  80.9401932  63.4405060  27.2852707
  81.0355072  62.7980652  27.9884205  80.0665207  63.8095016  27.4147854
  80.7524109  11.9757843  72.5570145  79.8812714  12.2563038  72.2765427
  81.3370819  12.6698818  72.2526703  61.8179359  39.6978531  57.4937325
  61.2525024  40.3759537  57.8634605  61.5276413  39.6128578  56.5855827
  84.3364029  59.8459435  76.9948959  84.3933105  59.2434616  76.2532730
  85.2086411  59.8242874  77.3885498  48.8483810   6.8283110  36.2206421
  47.9147835   6.6196094  36.2533875  49.1366920   6.5032701  35.3677330
  65.2061157  49.0560913  45.8666458  64.7536087  49.8365860  45.5468102
  64.6855698  48.7677994  46.6164169   1.2196749  32.5973167  30.3160744
   0.2888196  32.4589043  30.4909515   1.6674511  32.0030212  30.9181881
  16.0279293  30.9228210  65.5952835  15.5546522  31.7270699  65.3821564
  15.3524199  30.3251934  65.9158478  38.1148224  61.6662903  44.5247421
  38.0262108  62.5286674  44.1189346  37.2875786  61.5332260  44.9875526
  59.9315033  44.2966537   8.8689280  60.7233162  44.5749321   9.3291674
  60.2451668  43.9833679   8.0205774   0.9905098  36.1406670  49.1977768
   1.8225505  35.8895607  48.7966728   0.9944004  37.0976601  49.1783066
  45.1798363  42.4406090  62.6875687  46.1154747  42.3131790  62.5307922
  44.7513542  41.9855690  61.9626083  76.0324554  22.1540985  12.1298828
  76.1622925  21.5895767  12.8919125  76.2567139  23.0312443  12.4406166
  74.4907379  66.3381958  24.7385406  73.7245483  66.8874817  24.5728207
  74.2423630  65.4747543  24.4083767   9.6473455  10.6871920  80.2593765
  10.5844765  10.8313169  80.3907013   9.4219275   9.9954386  80.8813858
  25.0884380  54.7094345  17.0788040  25.5287552  55.1528244  16.3537140
  24.9663029  55.3922806  17.7383785  63.7533035  10.9168873  47.2426605
  63.1998215  11.4698400  46.6911774  63.1877785  10.1865320  47.4936485
   0.2078284   8.9109488  43.6256790   0.4428405   9.0870800  44.5367126
  -0.6231583   9.3690472  43.4998283  65.8069382  45.4410133  29.2209949
  65.7225189  46.2465286  29.7311363  66.6867752  45.1216965  29.4213848
  50.4045830   7.7720613   1.7029424  49.4811745   7.9364123   1.8941026
  50.5557365   8.2041464   0.8622956  65.8455353  66.0885010  79.4005356
  66.2649460  66.9172134  79.1691284  64.9075470  66.2732315  79.3527756
  51.8616104  52.3169746  52.6834335  51.7874031  51.4416237  53.0635452
  52.4812469  52.7734795  53.2525406  73.5423126  10.7698278  21.4608555
  74.2485580  11.2887831  21.0759735  72.8396683  11.4006338  21.6177464
  33.9726677  60.3472862  38.2311363  34.6955070  60.5106087  37.6252785
  33.9821014  59.3995857  38.3653297  34.9657936  26.5431881  11.4668293
  35.8407478  26.3325310  11.1407690  35.0999298  27.2945976  12.0444307
  39.8375015   7.5302982  66.9542618  38.9018059   7.5676818  67.1525116
  39.9039154   6.9100118  66.2282715  47.3401566  33.6144485  35.1994667
  47.9484215  33.6812286  34.4634056  47.0390778  32.7060471  35.1797142
  17.9448566  10.3934450  59.1322632  18.1840706  10.6713314  60.0164490
  18.7642536  10.4324951  58.6390152  86.4790115  42.8515244  75.8471909
  86.7845764  42.6418457  74.9646454  85.6899643  42.3214531  75.9597092
  42.7667122  60.6746941   7.0968537  41.8966370  60.4257240   7.4086461
  43.1611328  59.8525543   6.8057265  45.6604958  69.8738556  84.8872910
  45.8905373  70.7969055  84.9935455  45.4043388  69.5883636  85.7642822
  55.9179382  36.7838287  49.0651894  56.6918488  36.6888695  48.5099602
  56.0904503  36.2154121  49.8157730  24.7838650  68.0948639  69.2509079
  25.4737282  67.9775314  68.5977936  24.9244766  68.9781876  69.5917740
  37.6136475  60.7271233  25.7912292  36.9377785  60.5951614  25.1263809
  37.2667503  60.2986794  26.5737438  12.0079889  34.4980278  86.6539612
  12.9590721  34.3924675  86.6309662  11.6757936  33.6283607  86.8765793
  72.3947067   3.4148984  42.4627304  72.9511261   3.4505675  43.2407761
  72.8605881   2.8337328  41.8615379  83.5894623  30.8030148  61.5465393
  82.7395401  31.2218952  61.6821861  84.1133499  31.4648514  61.0951538
  59.5833473  59.9674301  63.6187477  60.5165329  59.8263779  63.7784271
  59.5495377  60.4076767  62.7694702  70.1842728  28.3497181  16.6573467
  70.8836136  27.7626629  16.9446259  69.9979630  28.8930130  17.4230824
  61.5835342  55.0718079  52.2070885  62.1413765  55.5521317  52.8189163
  61.7064590  55.5186005  51.3695335  71.2365570  55.4279289  86.9795151
  70.8042984  56.1548729  87.4277802  71.9996109  55.2312088  87.5229111
  71.0415726  40.3192635  41.4147415  71.1794586  41.0499039  40.8119240
  71.1963959  39.5380974  40.8836632  71.4364395  33.4827538  88.4939041
  71.6621552  32.9059982  87.7640839  72.1077576  34.1648598  88.4766083
  53.0247307  33.1587067  13.9542580  52.1090279  33.3578186  14.1493912
  53.0928917  33.2519798  13.0040550  76.5731506  32.8972130  55.6794319
  77.1798325  32.5401802  55.0308189  76.3839340  32.1609955  56.2611656
  44.3019447  32.3025284  87.9831467  43.6769142  32.9169998  88.3678436
  43.8176765  31.4797115  87.9146729  11.8504782  40.4607277  23.0453129
  12.0343199  40.1771774  23.9408760  11.5346413  41.3594780  23.1387119
  22.4713726  50.3615303  88.3461304  21.9541912  51.1551476  88.4837112
  21.8216190  49.6634521  88.2640381  72.8976212  65.2416534  37.8563271
  72.0067978  65.1294556  37.5245438  72.7852631  65.4111710  38.7916718
  58.4465141  13.4429846  70.9791946  58.0311203  12.6919489  70.5553741
  59.3798943  13.2307749  70.9813614  40.7428551  29.2344933   7.7298212
  40.4153252  28.8174572   6.9329290  40.5657730  28.5986462   8.4230547
  83.1143112  57.4522629   3.6265545  83.5138550  58.3069038   3.7883961
  82.3131409  57.4593735   4.1503010  75.2864227  58.8248596  47.8398323
  75.7918777  59.2488441  47.1463013  74.6581192  58.2724304  47.3747597
  64.1139832  69.8943710  62.5859756  65.0139694  70.0030212  62.8933144
  63.8108864  69.0921555  63.0111885  64.3345490  63.2195625   1.6941402
  65.0117950  62.6375046   2.0387733  63.7664337  62.6471443   1.1785629
  34.8021355  60.4077339  76.3861694  34.2192345  60.5922928  75.6496964
  35.4240837  61.1353416  76.3875427  37.1976166  40.7945061  59.7742958
  37.2941742  39.8462029  59.6869431  37.0377769  41.1021729  58.8820915
  66.4156494   4.7484107  80.3871384  66.7139740   3.8513987  80.2367783
  67.1281815   5.1588249  80.8771286  48.7504005  30.9304256  41.3756752
  49.4403305  30.9649715  42.0382690  49.2188034  30.9470291  40.5410767
  62.5626602  11.3890181  70.7526016  62.7704086  12.2084198  71.2016602
  63.3970871  10.9221478  70.7079391   7.5439959  60.3783112   6.1609240
   6.9098806  60.5938301   5.4770527   7.0762057  59.7769775   6.7404099
  59.9366875   8.0138950  20.6849365  60.6161194   8.6425180  20.4411411
  59.4952049   8.4164038  21.4328079  31.7745056   7.7556624  68.0886536
  31.1076183   8.4378262  68.1670456  31.5513401   7.2943163  67.2802048
  66.7232590  59.5068703   9.0580130  67.3815079  58.8751373   9.3475857
  67.1594086  60.0085373   8.3692904  50.5521431   2.7704399   9.8784676
  50.9702072   2.7962048  10.7391586  51.2265854   3.0824940   9.2751589
  15.1761408  48.3375816  10.0910082  14.3799286  47.8513260  10.3051014
  15.8789721  47.8446388  10.5144072  76.0503006  14.7192869  53.4561119
  75.4216156  14.2979460  54.0421562  75.5948944  15.4981003  53.1362953
  57.5533943  66.5732117  48.4068909  58.3997879  66.1423874  48.2875633
  57.7735519  67.4533463  48.7120514  54.8910675  61.7269478  17.4491234
  55.5548782  62.3209381  17.7995014  54.6810455  61.1449051  18.1794300
  52.8343544  31.0955124  49.6815414  53.1715813  31.8019886  50.2323608
  52.7586365  31.4859695  48.8108864   5.8557830  21.0512047  85.5851822
   5.8072691  21.6602707  86.3220139   6.6108932  21.3488026  85.0777588
  56.9819031  12.3832245  19.4532242  57.0209351  13.1319304  18.8581200
  57.3468857  12.7112284  20.2750721  36.9094048  56.5682182  30.1618690
  37.6445770  56.3933525  29.5743542  36.6605034  55.7068443  30.4970055
  13.4626112   8.7049723  14.9647703  14.2593832   8.5611172  15.4753494
  13.0503397   9.4660091  15.3735323  51.8429108  52.4246101  48.5648422
  52.4634018  52.5553932  49.2818604  52.1102295  51.5971756  48.1646881
   2.4148118  59.7164803  17.3684788   2.6386514  58.8125687  17.5899944
   1.4858142  59.7933502  17.5859337  62.0957184  58.2414322  65.0174713
  62.4175644  58.6194077  64.1990662  61.4603844  57.5804100  64.7424622
  77.6988831  67.5432816  40.5076599  78.6035461  67.2324982  40.5427628
  77.1845856  66.7612610  40.3072395  82.0108185  67.7667923  64.7562027
  81.8524857  68.4565048  65.4007721  82.9028625  67.4703751  64.9368210
  63.9809265  12.1253452  80.1121750  63.1378708  12.5484943  80.2747574
  64.6305313  12.7701597  80.3922882  49.1122513  37.8058815  53.9526672
  49.7474823  37.4060440  53.3586578  49.1152420  37.2386093  54.7236595
  56.0674477  68.2642746  29.4343472  55.6176567  68.3399277  30.2758904
  56.7594376  67.6213913  29.5895729  26.5098114  56.7164536  85.6154175
  26.2542343  56.8697357  86.5250397  26.0800819  57.4169273  85.1246033
  21.3145390  62.2042389  45.3664665  21.8076229  61.4487190  45.0466385
  20.9859848  61.9307098  46.2228928  56.6367798  38.5828629  76.1838913
  55.7417641  38.2523842  76.1066818  56.5386353  39.5344048  76.2180176
  48.8690910  44.7692375   8.8036175  49.0308266  43.8692665   8.5205412
  48.9348564  44.7356186   9.7579632  49.3028336  56.7787895  78.3656921
  49.2725525  55.9116554  78.7699127  48.7116508  57.3116951  78.8974304
  27.3385696  23.8139324  74.4754944  27.8745880  23.2207832  73.9491043
  27.9044399  24.0634441  75.2060852  55.5268402  17.1792030  82.5819244
  55.7781792  17.0081902  83.4895630  56.1037979  16.6180115  82.0638351
  11.3366957   7.5986528  71.1351166  11.4978762   6.9837322  70.4194870
  10.8733969   8.3284483  70.7240372  12.9150639  67.1146469  24.9773521
  12.3609238  67.7423019  24.5134430  13.3628454  67.6367416  25.6430416
  42.1711311  23.1431332  68.3802948  41.3480759  22.7448044  68.6633911
  41.9724350  24.0765419  68.3061371  25.6916885  28.1006470  62.7042580
  25.5947704  27.7339535  63.5831070  24.8177185  28.0346584  62.3194809
  55.9425316   4.1940598  36.5009575  55.1528244   4.4132357  36.0064240
  56.3463402   3.4823763  36.0042915  50.6849060  27.3488770   6.3653793
  50.5463753  26.6687450   5.7062426  50.1639786  27.0643177   7.1163073
  11.6539555  40.7673225  28.1630173  11.8430309  41.6760712  28.3967953
  10.7041378  40.6895981  28.2526684  53.5824547  66.8052673  67.0937881
  54.4959221  66.9008026  67.3633804  53.5658188  65.9930191  66.5876083
  86.3291550  47.5982742  66.0041199  87.1528397  47.5560074  66.4899063
  85.6758728  47.8394203  66.6608582  53.4374161  68.3416138  70.7831726
  53.6070862  68.5454102  71.7029037  53.4370689  67.3851395  70.7459106
  25.2910862  43.5834846  16.7295666  24.7670650  43.9670067  16.0263290
  24.8607388  43.8729134  17.5340939  12.4788408  14.5671473   2.3606296
  12.2991619  14.3577576   3.2772009  12.0655565  15.4196892   2.2242458
  64.5049744  68.1740799  60.2607079  63.8502235  68.1476593  60.9584465
  65.2557144  67.7002945  60.6186829  27.8537369  64.2682648  17.2478104
  27.3250332  63.4985390  17.4580994  27.2242565  64.9071121  16.9133511
  14.4950266   0.6834455  73.5059357  13.7554264   0.7102582  72.8988876
  14.1273146   0.3301649  74.3160019   2.8940210  30.4625435  64.5566025
   1.9943473  30.7842045  64.6145096   3.1327085  30.5828838  63.6374817
  41.5833244  26.8725605  88.5724411  42.4234200  27.2909317  88.7606812
  40.9295311  27.5282516  88.8150406  17.6394081  33.6891632  73.5488892
  18.1027031  34.0825386  74.2883835  18.2308178  33.0068016  73.2313309
  68.9307404  18.8576317  46.0070457  69.4211578  18.3981113  46.6886292
  69.3539505  18.5955429  45.1894684  10.7190733  67.0279541   7.4231448
  10.0768042  66.3182373   7.4274793  11.2981825  66.8314133   8.1595106
  46.8315659  29.6369343  16.8169117  46.0106201  30.0310268  17.1118183
  47.2098465  30.2865925  16.2243900   0.1389634  54.5729103  25.7453308
  -0.7026283  54.9909859  25.9274578   0.7371773  55.3013420  25.5787125
  19.0890827  46.6764221  41.8447418  19.8110218  47.2686043  42.0553436
  19.5169315  45.8665352  41.5667763  86.4893341  70.6056213  79.1057510
  85.7793503  70.6911774  79.7420197  87.0576935  71.3561401  79.2787170
  35.8282318  69.0187683  75.5837631  35.8771286  68.0980911  75.3264847
  35.0857048  69.0599442  76.1864166   6.0412889  63.8627319  45.2744446
   6.1360402  63.8778610  44.3220634   5.6025376  63.0321198  45.4583244
  27.2196274   0.8779627  70.4316559  27.6580830   1.6328615  70.0390778
  27.9122124   0.4193601  70.9073029  21.2947788   4.2182355  64.8575745
  21.6295204   5.1125069  64.7908020  22.0753632   3.6792455  64.9856720
  61.9361038   4.8760419  47.1691704  61.1539841   5.2946239  47.5287666
  62.2335510   4.2878289  47.8632584  82.6781464  21.5163288  76.2310257
  81.7390823  21.3925629  76.3691635  82.7336044  22.1713104  75.5352097
  11.8368082  53.4528084   6.5773015  11.3094215  52.8790894   6.0214767
  11.2423353  54.1621094   6.8216891  61.6260414  67.8935394  85.0097733
  61.6564560  66.9503937  85.1703339  61.9696579  67.9966354  84.1223450
  48.9851379  15.1099968  79.2183228  49.8627014  15.4309072  79.0106354
  49.1345215  14.3578739  79.7912369  17.5659733  62.2597580   8.1149521
  16.8414001  62.8664131   7.9626441  17.2202015  61.4046440   7.8591223
  41.1075897  36.4723587  20.9675331  40.7486420  37.2276993  20.5018635
  40.3442535  35.9323425  21.1723175  19.4204235  36.1610374  56.5424576
  20.1631603  36.3698425  55.9759102  19.4450283  36.8305321  57.2261238
  82.2422256  45.3913574  39.4277763  81.7362518  44.6068840  39.2160645
  82.5936737  45.2210770  40.3016891  85.9840164  49.1272469  63.7257004
  85.9419327  48.4000549  64.3467026  86.4692764  48.7766266  62.9788284
  48.9850311  20.5273151  37.7264442  49.4339218  20.9693127  38.4471130
  48.8481064  21.2131958  37.0729485  19.9415874  40.2776985  83.2986450
  19.7326508  39.4182243  82.9327545  19.1295033  40.7774582  83.2150192
  45.4177284  34.1827049  13.6202717  44.5774841  33.7244911  13.6039438
  45.9034195  33.8187828  12.8800726   6.4685946  58.3362846  53.8087425
   5.5588851  58.3994255  53.5177574   6.4150290  57.9386482  54.6777954
  25.1780033   1.9240901  13.7435284  24.4233303   2.1361654  14.2928219
  25.4580288   1.0597016  14.0446100   0.9723873  17.5386982  11.4772644
   0.7836207  17.8216991  12.3719769   0.1428157  17.6462269  11.0119896
  39.7162971  -0.1666009  77.5464706  38.9425507  -0.1766382  76.9830475
  39.9642601   0.7565741  77.5964050   8.9776754  50.7764854  36.9422874
   8.2093134  50.6887245  36.3782425   9.6029930  51.2777786  36.4189186
  84.8686371  62.8418427   8.4392128  84.6380692  63.0003738   9.3546047
  84.0800705  63.0757446   7.9496365  41.7830200  48.4348755  26.4673061
  41.5442352  48.5236740  25.5446320  41.1315804  47.8324547  26.8263950
  58.1457024   1.3294449  82.8530273  58.8959503   1.9006603  83.0175781
  57.9259300   1.4815191  81.9338913   3.1963587  59.8176155  66.7815475
   3.0527229  58.8743134  66.7055206   2.6502731  60.1992073  66.0942230
  53.5786362  51.3547134  60.0555916  53.5673904  50.8404922  60.8628616
  53.3360367  52.2386665  60.3312836  18.2691154  64.3028717  43.5343246
  17.9220963  63.4117622  43.5760002  18.9141293  64.3419876  44.2404823
   7.7557597  30.5923538   7.6275268   7.9163508  30.0528908   8.4017506
   8.3868132  30.2768192   6.9806571  82.9567490  43.9657898  56.3366356
  83.4401932  44.1592102  57.1398163  82.3611755  43.2571754  56.5803261
   7.0925269  48.6909752  80.3865967   7.0424652  48.3535843  79.4922256
   6.2203455  48.5372086  80.7497559  63.0607109  43.1519775   7.6217752
  63.5649223  43.4888802   8.3623829  63.5955849  43.3568840   6.8548617
  35.7112007  70.5370636  70.3615265  36.4987907  70.3244095  70.8622360
  35.8901367  70.2057571  69.4814987   0.9268780   7.0110950  39.9640236
   0.9412180   6.7624216  40.8882446   0.3509199   7.7748842  39.9304085
  75.3174362  71.2930450  21.5297394  76.2420578  71.2468872  21.7730064
  74.8839111  71.6531982  22.3034153  64.7656174  48.7922173   0.9626418
  65.0904694  49.5677719   0.5052409  65.4156418  48.1146431   0.7766563
   4.7963209  30.0370293  30.2298775   4.8367376  30.3712883  29.3338470
   4.4216952  29.1605892  30.1418915  14.8836765  13.8875942  43.5460320
  15.7457418  13.6975775  43.1759415  14.5364141  14.5898514  42.9960556
   5.1988192  51.7868843  83.8523560   5.4630189  52.1719170  84.6879272
   4.6624031  52.4618645  83.4365540  43.4751968  10.2768612  42.3418198
  43.8236580   9.3857908  42.3135414  43.2748260  10.4847546  41.4292068
  39.3438454  48.7075310   2.7511294  39.5425453  49.2310104   3.5274780
  39.1171799  47.8439255   3.0961535  18.0460281  39.9318428  25.7873020
  18.6036110  40.5588799  26.2479038  18.6234417  39.5292244  25.1386700
  85.7156219  57.2882118  60.0313148  85.7491379  56.3773384  59.7390480
  86.0405731  57.2630806  60.9313164  29.1002274  33.7860069   2.4342024
  30.0083904  33.4844170   2.4569259  29.1155510  34.5487709   1.8561091
  60.0104408  61.7392960   0.3744124  59.4937248  60.9549484   0.5588983
  59.9037018  62.2851448   1.1534435   1.2530615  57.5302200  51.5452309
   0.7929414  57.8587570  52.3176193   0.5557658  57.2939415  50.9335251
  13.6226425  64.7394562  48.1384010  13.6285734  65.0559692  47.2350655
  13.5757933  63.7867813  48.0580826  58.0409088  45.7384071  48.1198158
  57.7555695  46.5862160  47.7791710  58.6242676  45.9564018  48.8467331
  38.0581017   5.6853995  25.0334797  37.8529892   4.7560816  24.9308681
  37.5331993   5.9651403  25.7834511  11.6254158  36.3325806  81.6479950
  11.1353827  35.9048386  82.3502274  12.2371788  35.6635094  81.3408737
  55.3677101  65.0096359  59.3841095  55.1923828  65.3212509  60.2720222
  54.7978249  65.5400620  58.8272247  76.5941391  49.6777763  76.3847275
  75.7081375  50.0397720  76.3985367  76.4824448  48.7833481  76.0626144
  83.7609634  33.8899574  38.6346855  84.3447189  34.4236526  39.1737823
  82.9680634  34.4185829  38.5446625  24.9854641  12.4031181  12.3645077
  25.0056705  13.3397532  12.1681967  24.2701492  12.3055105  12.9930220
  37.3230782  42.0777359  38.1732407  37.6760826  42.9662476  38.2197990
  37.8407402  41.5808487  38.8067741  48.9568748  14.1008568  10.7537947
  48.5108566  13.9047585  11.5777130  48.9298248  15.0554152  10.6880836
  14.5477476  68.5361023  45.2014656  14.3156071  69.0413208  45.9806290
  15.4920635  68.3992004  45.2773438   1.5778075  50.9420929  72.6720810
   0.8832310  51.4986687  73.0242386   2.3324468  51.5249519  72.5882721
  19.0435276  57.5362129  26.0887146  18.6886978  57.5216026  25.1998310
  19.1933880  58.4637566  26.2715683  77.5440750  42.4646263  59.6652985
  77.5238342  43.3331337  59.2634125  77.7351532  41.8696136  58.9402618
  75.0349197  32.8216400   9.1727943  75.3388824  32.6952400  10.0716047
  75.7222443  33.3434792   8.7586699  77.1214142  23.6629353   2.5380130
  77.1962204  24.1241589   3.3734229  77.1632156  22.7356625   2.7717810
  78.8566818  66.1968155  68.0856934  77.9383926  66.1847153  68.3555908
  79.2371063  66.9337387  68.5636520  59.3122482  67.7766876  56.9528389
  59.5518608  66.8506241  56.9877548  60.1219254  68.2416992  57.1636047
  73.3544998  61.0990181  48.2523842  73.5241852  60.2399979  48.6390648
  72.8307190  61.5580254  48.9090424  21.8306465  65.9595413   3.6133652
  21.2749863  65.4874802   2.9931810  22.7053776  65.5959015   3.4761007
  44.2783241  70.2940292  78.0544891  43.7162170  69.9589844  78.7530594
  44.6116028  71.1250229  78.3930359  66.0619049  36.3760834  25.0740757
  65.3118973  36.0471802  25.5696068  66.7182159  35.6828995  25.1446819
  36.1838341  46.1638947  42.0087814  35.4683647  45.5815811  42.2642097
  35.7974815  47.0395050  42.0252151  85.4136658  59.4275742  12.2970924
  85.6082153  58.8549690  13.0390558  85.0186462  60.2050552  12.6916933
  55.2778091  68.7752304  57.4936256  54.9978600  69.6222305  57.1465569
  54.7488365  68.6527405  58.2819252  66.0175934  41.4768982  83.1808243
  66.4468460  40.8775444  82.5702896  66.2417984  41.1373940  84.0472488
  60.7235107  34.4817352   4.6117430  60.0205879  33.8448372   4.4833221
  61.4974174  33.9500542   4.7977967  26.0566883  56.7175293  82.2284927
  26.6559505  57.4607201  82.1593399  26.5468254  55.9800148  81.8650818
  58.4775467  13.2458773  46.2328682  58.3724365  14.1117887  45.8386841
  58.0141563  12.6547546  45.6395073  17.0600452  49.8314476  37.6274223
  17.5600471  50.2203369  36.9097900  16.9515076  48.9146805  37.3744659
  59.7085457  48.7227554  39.6259918  60.3121567  48.5846825  38.8960495
  60.2540817  49.0893898  40.3218422  56.3388290  14.1647739  12.0255461
  56.4759254  13.3506918  11.5410814  56.6980057  14.8455200  11.4565048
  54.5326576  21.1045094  41.2321243  54.7563133  21.7868977  40.5992279
  55.1580925  21.2260780  41.9464645  44.2091599  56.4933167  76.5395203
  43.5407677  57.0275803  76.1105118  44.8802567  56.3654175  75.8690720
  35.1874962  19.9103241  68.0258636  35.0015106  20.6362991  68.6213455
  35.6852379  19.2875290  68.5555954  55.7096252  56.4269180  15.0760880
  55.5289383  57.1344070  14.4571857  54.9289665  55.8740425  15.0424194
  25.4009552  27.5890388  88.5548325  24.9571075  26.8897114  88.0750656
  26.1843243  27.7748566  88.0371094  43.7650185  51.4193039  13.0878325
  43.6651611  50.6879730  13.6972704  43.6406898  51.0288811  12.2227640
  81.8414917  50.3569107  56.6783752  82.4176178  50.9903030  56.2504425
  82.4116287  49.8880997  57.2877922  14.5648155  63.6057320  65.2390442
  15.2850924  63.2731476  65.7746048  14.8651104  64.4640427  64.9401169
  30.2218857  33.4949875  67.2532578  29.8190269  32.8179703  67.7969360
  30.5151463  33.0299034  66.4697266  74.8952255  16.7944450  74.9248657
  75.4102631  17.5788136  75.1138916  74.0474091  17.1292610  74.6327286
  20.8476715  48.0488739  12.1551142  20.2247124  48.6060257  11.6884918
  20.9804955  48.4890366  12.9946651  81.2485657  12.8925104  50.2815971
  81.6244965  13.2715788  51.0760880  80.4044495  13.3328009  50.1823692
  51.7768822  18.7971668  54.1562042  51.4150963  19.6703377  54.3075790
  52.5277023  18.9453659  53.5812798  59.2134361  26.4614563  62.3895187
  59.1076927  27.2995720  62.8396416  59.2046928  26.6864624  61.4591827
  82.8587265  25.7110443  34.3638039  82.0262222  26.1663780  34.2379951
  83.2429886  25.6681614  33.4881668  85.6532059  28.4149323  30.9424038
  85.0441666  28.8915138  30.3783379  85.8876572  29.0425873  31.6260109
  85.4487228  20.8569393  34.1919403  84.4922943  20.8719311  34.1564407
  85.7165527  20.5779171  33.3163567  40.7231216  50.4802246  28.6442680
  40.9735451  50.6469841  27.7355824  41.5292282  50.6129494  29.1430779
  45.1422157  25.2904949  55.0168724  44.3757133  25.6888866  54.6045761
  45.3961296  25.9107857  55.7002487   3.1622906   0.4277376  56.5139656
   3.3402488  -0.2051433  57.2096863   3.9033554   1.0327785  56.5452728
   4.4023528  66.8600159  86.8971710   3.5515368  67.0064163  86.4837570
   4.2302074  66.9423447  87.8351593   7.8729520  61.8411636  38.7764282
   8.5325632  62.4753494  39.0574150   7.7276635  61.2900467  39.5454521
  54.7720413  50.3685913  82.5665588  55.1988602  51.2124214  82.4182205
  55.4528351  49.8213844  82.9581146  20.7026024  55.2592697  72.7548981
  21.5589752  54.9159508  72.4999695  20.5567093  54.9102325  73.6341705
   6.4527769  67.9029846   4.0059166   6.9737515  67.0999985   4.0114827
   5.5842347  67.6270142   4.2986760  43.5157280  10.0424623  37.0676193
  42.8740501   9.7504940  36.4201355  44.3638916   9.8724222  36.6578178
  15.4796152  50.9971428  23.8321323  16.4345760  51.0625267  23.8301182
  15.2943163  50.1827507  23.3645172  26.1901493  55.3886681  58.1762733
  26.8759918  55.7731781  58.7221718  26.0856972  56.0062981  57.4524956
  51.6468086  30.6037388  83.2963409  50.9292221  30.7111950  82.6720428
  52.3635979  30.2394562  82.7769699  23.4673977  60.5989799  75.5055542
  23.7518711  61.1316185  74.7628555  23.6589756  59.6989059  75.2421188
  16.6025696  24.9455376  11.9843273  15.7416048  25.1379414  12.3557463
  17.1244030  24.6493721  12.7301216  59.1041679  10.1710262   7.6141787
  59.4011459  10.2813683   8.5174284  59.2293472   9.2395029   7.4329996
  74.8271637  52.9291420  51.1382179  74.8847656  51.9743958  51.1011810
  75.6066589  53.2343025  50.6740074  49.2724190  24.5441570  85.4835663
  49.4125023  24.1258411  86.3330460  48.4401970  25.0073318  85.5790024
   1.5551074  15.0642157  81.6057739   1.3971056  15.5837793  82.3940125
   1.5536898  14.1574364  81.9123383   0.6397563  62.5914421  53.1685791
   1.4834589  62.7156601  53.6032829   0.8320890  62.0078316  52.4346581
  59.4149551  36.4848557  46.4164467  59.9726181  36.2486534  47.1576958
  58.8286133  37.1575966  46.7626495  54.2282143  67.2175674  34.2439041
  53.5680237  66.5245819  34.2315445  55.0627670  66.7546616  34.1699677
  45.3819275   7.3683200  29.1726189  45.2770691   6.9899120  30.0455704
  44.4935036   7.4021606  28.8179436  38.6278458  34.5165329  25.0081387
  39.2923737  35.2030945  25.0653038  37.7982140  34.9904366  24.9502048
  51.4403496   5.4542441  87.7865524  52.0371208   6.1559062  88.0468750
  51.9146309   4.6483092  87.9908981  70.4905243  60.1802864  34.2433510
  70.4172516  60.8251266  33.5397530  70.0274811  60.5771484  34.9811325
  64.9607544  58.3275414  73.7132797  64.9335709  59.2679710  73.8895950
  64.1413116  58.1463814  73.2529221  47.2768440  39.9718742   2.6899083
  47.8269386  40.7048950   2.9661443  47.8309555  39.4678650   2.0939460
  30.4538670  61.0867004  26.8139954  30.4051323  61.8740845  26.2718887
  30.5354309  60.3685265  26.1864548  43.2120018  61.7563515  45.8933411
  42.4218903  61.6539879  45.3627930  43.6312599  62.5449181  45.5489388
  31.9643898  27.8113842  12.6557388  32.1446304  28.6668434  13.0455256
  32.1428299  27.9308186  11.7229338  74.9937592  34.7133064  40.1545448
  75.3219452  34.3203201  39.3457870  75.2113647  34.0768509  40.8355789
  44.6259537  12.3518343  72.9382172  43.8627205  12.8205032  73.2759476
  45.0505486  12.9772558  72.3510284  29.4437370  61.8118629  73.7450485
  29.0707588  62.6556587  73.4898529  30.1989727  61.6994095  73.1678085
   6.5252013  13.5033226  10.4264431   6.3542442  14.4434004  10.4835339
   6.8022499  13.2562494  11.3087301  20.4828873  50.2041054   9.8167820
  21.4263210  50.3654060   9.8288832  20.1261730  50.8212471  10.4556274
  76.0835495  43.6248970  70.6623993  76.4756546  44.0200958  69.8837509
  76.4735565  42.7520638  70.7102280  76.8431702  32.2281532  16.0956078
  77.6231003  31.6780415  16.1685066  77.1507034  33.1091728  16.3088131
  20.3970299  23.9020958  19.9745121  20.9861622  24.3665066  19.3799725
  19.7912846  24.5748825  20.2854195  59.7908325  67.6606598  68.0541687
  59.3010178  66.8435135  67.9615021  59.1203690  68.3437881  68.0482407
  13.6428194  39.9798546  43.9426346  14.2624779  39.2553902  43.8565559
  14.1936197  40.7523575  44.0694618  81.9662628  60.6800079  31.7301865
  82.4670410  60.2289658  32.4099083  81.0585480  60.6326790  32.0302429
   3.9507556  66.5956421  70.6243744   4.5236664  67.3094559  70.9045029
   3.8572478  66.0445709  71.4014282  19.0320034  59.7167397  74.3873138
  19.4852428  58.8985558  74.1838760  18.2452717  59.4437714  74.8592987
  86.3390121  18.5470848  72.2937851  85.8736343  19.1317196  72.8919983
  87.0325317  19.0902214  71.9192505  75.3895035  66.2475510  48.3338356
  74.8423691  66.8372803  47.8150940  74.7723465  65.6265106  48.7206955
  68.8851013  22.9499226  72.7748413  69.4789886  23.2477531  73.4639206
  69.4129639  22.9741344  71.9767151  36.9581413  38.7485046  86.5418243
  36.9291534  37.8463974  86.8605652  36.9278831  38.6668129  85.5886002
  17.5720825  65.5491943  79.4168549  17.6266880  66.2562408  78.7739410
  16.8513317  65.8042831  79.9927673  48.9899864  61.9663124  53.2809296
  48.9884453  62.8354416  52.8798790  49.8909264  61.6584816  53.1820068
  31.8716469  36.7661629  21.2265720  32.7302818  37.1532516  21.0558548
  31.9434586  36.4041023  22.1097412  74.7439423  30.5379372  87.7167358
  73.9996262  29.9380054  87.6687698  74.5714417  31.0721111  88.4920654
  52.6049614  28.4722176  74.0796890  53.3616905  28.8775120  73.6562195
  52.9825478  27.8950405  74.7434082  49.7628136  42.1086464   8.2435760
  50.2546387  41.3930893   8.6464634  50.2551575  42.3209915   7.4506445
  75.8833694  20.2965012  27.5144691  76.4483414  21.0478611  27.6947403
  76.1398239  19.6425323  28.1646900  56.9709358   1.1013435  70.3464890
  56.2466888   1.6638346  70.6209030  57.6907463   1.3345441  70.9327621
  86.1391907  31.7542629  86.1064911  86.5930557  31.3490486  85.3675461
  85.3059387  32.0521965  85.7415771  13.7979517  31.0586224  74.3137589
  14.3154879  31.6069584  74.9034348  13.3313417  31.6809025  73.7558441
  56.0589867  65.2646408  51.0213852  56.0083427  64.5272217  50.4132042
  56.0237732  66.0399857  50.4611778  63.1181488   4.5781116  74.2056503
  63.3614998   5.1110468  73.4486923  62.2340012   4.8689718  74.4290619
  63.9149475  16.9714127  41.9016762  63.4210167  16.2350540  42.2622871
  64.5564270  17.1843853  42.5794525  58.9682693  70.6257935  33.0152092
  59.5085945  70.7033310  32.2289085  58.0680885  70.6585693  32.6914330
  45.2228928  11.0446892  86.5478745  45.0330696  11.9202242  86.8849716
  44.3622055  10.6479187  86.4136200  69.9229507  35.0986977  55.6282959
  70.6845093  35.5591393  55.9807892  69.6586990  34.5018616  56.3284302
  19.3743134  50.3689919  50.9741898  19.1558437  49.5894547  51.4848976
  19.2834949  51.0937996  51.5927658  83.1259995   1.5312525  72.8334503
  83.5331116   2.3273194  73.1751785  82.7008133   1.8089888  72.0220871
  72.4351273  39.4818764  51.2751236  72.3888092  38.6684303  50.7727394
  72.1211395  39.2429810  52.1472321  54.0649300  66.3432541  56.8684006
  54.2891846  67.2497177  56.6579857  53.1978531  66.2155228  56.4835777
  50.8247871  50.6560783  75.8648605  51.7163010  50.5881310  75.5230713
  50.9013901  50.4049339  76.7853470   2.7635419  35.2284317  23.5655251
   2.4829576  35.3191261  24.4761734   2.1084340  35.7133675  23.0636253
  29.3179436   0.6495433  32.0369606  29.0022926   0.7270014  31.1366272
  30.0006962  -0.0200004  31.9946251   8.6986523  17.7908630  11.5201063
   8.3370867  18.5451164  11.9855156   8.4340553  17.9218998  10.6095848
  63.4570122  35.5382805   9.1388569  64.0318527  36.2957802   9.2483807
  63.9606018  34.8029785   9.4880848  46.4197273  16.4898415   6.6697974
  46.0499115  16.6293011   7.5415874  47.2977066  16.1458530   6.8342910
   8.4078836  12.9681416  80.6717529   8.2079802  12.8146944  81.5951843
   8.7613649  12.1344700  80.3614731  79.9028854  49.6126976  22.9883842
  79.3404465  49.1187668  23.5849762  80.4000015  50.1993332  23.5584450
   6.6265917  62.8028336  63.5390129   6.6877470  63.1388054  62.6448021
   7.3266492  62.1527977  63.5990410  66.9154663  51.0882187  85.2329483
  66.2912445  51.8133850  85.2061386  67.1664810  51.0222054  86.1542816
   2.7374005  13.6706486  73.4397354   3.2043326  13.9788933  72.6630859
   3.0290637  12.7657995  73.5511551  29.3406124  19.0618458  71.8987732
  28.7613564  19.5353413  72.4958496  28.7479668  18.6120129  71.2965698
   4.2404337  41.0450058  77.1064835   4.6695442  41.1643372  77.9537430
   3.3061435  41.1279984  77.2973862  33.0779152  50.4512711  28.2850971
  33.6380463  50.7404442  29.0054169  32.6274834  49.6790199  28.6271076
   5.7837825   1.1765243  83.6379318   5.9871817   2.0866947  83.4224091
   6.6002169   0.7038340  83.4759750  72.3137131  66.3251572  54.3863564
  71.4450378  66.6404800  54.6357727  72.7280273  67.0759201  53.9610100
   3.1429214  61.4826012  27.9094753   3.9306738  61.9642410  28.1618652
   3.1108816  60.7418022  28.5148029  68.8699341  38.9945602  12.8361750
  68.9719315  39.7580414  13.4044361  69.0502319  39.3251801  11.9561672
  50.8429909  33.7379112  76.6405640  50.0509834  33.8692856  77.1618118
  50.5255203  33.3976288  75.8041153  63.1268539   3.7942595   6.1849880
  62.9674988   4.2294393   7.0225182  62.6510696   2.9663012   6.2509346
  52.5582047  41.4130020  86.1333923  51.6373672  41.6290474  86.2804108
  52.6980286  41.5818710  85.2016373   6.5867906  48.0958710  77.8468323
   5.8370037  48.6896362  77.8081741   7.2636428  48.5307007  77.3281479
  21.7575054   8.7906265  76.4359207  22.4828453   8.3324413  76.8603973
  21.8593998   9.7030811  76.7066193  16.2471905  39.2813187  51.4544678
  15.6934862  39.9053116  50.9851303  16.8111591  39.8267708  52.0027847
  61.3461914  70.7011719  16.0843258  61.1198845  69.8148575  15.8024263
  61.2598801  70.6787567  17.0373631  57.1094856   7.9970722  19.6748657
  56.9115601   7.2569094  20.2486401  56.5335083   8.6978102  19.9805584
  18.0015831  41.6192017  57.1096382  18.9118137  41.5908623  56.8148346
  17.5651379  40.9322739  56.6057777  44.2256279  57.2415352  53.2061424
  44.8504219  57.5863495  52.5682030  44.7547340  56.6979370  53.7899055
  74.0698013  58.3714981  57.8013115  73.6070404  59.1785736  58.0265236
  73.3980103  57.6908646  57.8421059  12.3510208   2.5847738  18.3072262
  11.7951059   3.2770753  18.6648693  12.0826597   1.7952982  18.7772713
   3.4055648   2.7003615  80.2901917   3.2716503   2.7901883  81.2337112
   3.4412105   3.6004896  79.9665680  13.8625870  18.9252682  10.7258348
  14.6827545  19.3749905  10.5225916  13.1828642  19.5762157  10.5512581
  62.8606033  52.7410889  50.7285957  62.3281441  53.0550842  49.9977531
  62.7003403  53.3722000  51.4301949  53.6720238  28.1608734  53.2285347
  54.4432793  27.9858494  52.6893120  53.9627800  28.8243561  53.8542213
  67.9682007  11.6524277  31.0776577  67.3231354  11.6098738  31.7835732
  68.6002808  12.3090849  31.3700657  79.9624100  18.5406075  24.7414207
  79.2400665  18.3257198  24.1512775  79.5602570  18.5757999  25.6093311
  22.2842693  37.3720016  24.1405144  21.9357681  37.3880310  23.2491550
  22.2366066  36.4518242  24.3998089  85.4242096  58.0916824  14.5565157
  85.3180542  58.7338676  15.2583437  85.9701233  57.4054604  14.9403267
  55.8177719   2.0964923   6.9640388  55.9134445   2.9512417   7.3841362
  55.1468010   1.6496980   7.4801826  25.4307747  40.1967278  10.0536661
  25.1373005  40.2178154  10.9645233  24.7839489  39.6511879   9.6061935
  32.5241928  69.9414139  69.1959763  33.1904373  69.5063629  69.7280350
  32.0830536  70.5354614  69.8032150  64.5138016  49.4695740  14.5584774
  64.8888550  50.3190689  14.3262634  64.8094254  48.8796310  13.8650770
  64.9078598  70.5567245   0.4796830  64.9397812  71.1105576  -0.3003736
  64.2665100  69.8790054   0.2661704  30.8893223   1.0623583  76.5199432
  30.7780800   0.4587370  77.2544479  31.5217743   1.7083486  76.8344803
  49.4838295  59.5097160  77.7047729  49.1914139  59.8976517  78.5295334
  49.4397697  58.5654564  77.8553238  81.1197891  34.4055214  42.8292236
  80.9657440  34.4914589  41.8884163  81.4466858  33.5124435  42.9378052
  82.9830322  14.1541739  52.3917618  82.6292038  15.0245333  52.2086983
  83.8883438  14.3147860  52.6579323  82.4480972  19.8784733  13.0607977
  83.2762985  19.4493656  12.8458843  82.2068024  20.3471737  12.2618437
  63.1868095  48.8047981  32.7194786  62.6618423  49.3334312  33.3204651
  63.5324860  49.4340820  32.0864372  85.1150894  67.2112656  62.2614975
  84.5404739  67.5325928  62.9563293  85.2571182  66.2891541  62.4754372
  76.9064407  37.3647690   0.3542485  77.6388397  36.8394508   0.0319679
  77.0657578  37.4464340   1.2945575  55.7302055   6.3764558  32.3190308
  55.1545525   7.1364079  32.2334366  56.4134254   6.5185122  31.6638470
  71.1609955   5.2029552  71.9547424  70.3500824   5.5223966  71.5590057
  71.4554138   4.5061064  71.3682709  67.0927963  22.5523758  48.1343040
  66.8601837  23.4715576  48.0030441  67.7344513  22.5667496  48.8444557
   1.6034962  18.4124146   5.6472182   1.9945908  17.5861912   5.9311724
   1.4494659  18.8959198   6.4588394  29.9995155  56.9480362  76.1967087
  29.4588509  56.3725243  75.6556931  30.2732639  56.3987122  76.9312439
  68.7404480  61.7822800  62.9183464  69.2381287  62.4704514  63.3598938
  69.3347321  61.0321732  62.8983612  43.6000595  22.9661331  55.1787758
  44.1764984  23.7300758  55.1603165  42.9604874  23.1318893  54.4861717
  58.2461014  65.8741379  79.9515305  57.7163620  65.4039307  79.3077011
  57.6083488  66.2457504  80.5609589  58.3766556  10.9226446  80.5961838
  57.7553139  11.1312265  79.8985672  58.5328979   9.9827309  80.5046310
  25.2418346  28.8782845   5.2586503  25.1011562  29.7599525   4.9135385
  26.1695919  28.7041721   5.0999665  42.4390564  19.2086487   6.9561944
  43.2858276  18.9403820   6.5994816  42.6136360  19.3850422   7.8806610
  75.9240036  65.5891647  39.8909492  75.5446854  65.3212051  40.7279358
  75.1680908  65.7783432  39.3350334  45.6094093  19.6873741  54.3056259
  45.6359177  18.9788208  53.6625977  46.3315582  20.2641106  54.0564194
  19.6698818  68.1362991  83.9170837  19.3668118  67.7840347  83.0802536
  20.0562439  68.9833145  83.6945724  38.0932693  31.4456120  15.4954948
  38.1562309  32.2975845  15.0637436  38.9150772  31.0056133  15.2780991
  57.2653580  41.1935234  47.3803864  57.3697548  41.4122353  48.3063965
  57.7889824  41.8486595  46.9190369  60.9930305  14.7604723  35.7675476
  60.8886795  14.1062937  36.4584846  60.5547447  15.5403795  36.1079597
   2.6169517   2.0813203  26.1310806   3.0084951   1.7145875  26.9238186
   2.6795106   3.0291116  26.2494450   4.7027650  10.1729584  18.6713676
   5.5178642   9.9864788  18.2054596   4.4463973  11.0433578  18.3665524
  65.9974899  24.7295246   1.4516492  65.7351990  24.4069366   2.3138385
  66.9180450  24.4795208   1.3722539  15.6035309  59.5983315  13.6907473
  15.0318012  58.9717255  13.2472162  15.9112988  59.1328888  14.4684839
  31.7054234  63.6736946  87.3354492  32.3017311  64.2494278  86.8567352
  32.1389351  62.8203201  87.3280334   5.4906340  37.6235390  22.4970303
   5.0907950  37.4926643  23.3568153   6.4230137  37.4600906  22.6390991
  53.9236259  17.7874813  52.5293846  53.4382744  16.9796314  52.3619156
  54.8110085  17.6017971  52.2222977  13.9146414  47.9528961  12.9782476
  13.8825512  47.1594620  12.4437714  14.5506325  47.7533607  13.6652212
   5.3324838  68.9428558  31.9698143   4.5543985  69.3519440  31.5910473
   5.4042397  69.3276749  32.8433113  71.5948792   7.3117595  48.5379868
  71.3140869   7.8463473  49.2806892  71.3969269   6.4130445  48.8013496
  68.7237854  10.3452272  50.0550079  68.7117615   9.3938675  49.9501152
  68.8384171  10.4810600  50.9955597  66.1962891  12.5700808  54.8876343
  65.4356842  13.1257305  55.0578156  66.0478516  11.7904062  55.4227066
   0.1500349  26.3244228   9.0798492   0.6478001  26.2978039   9.8970108
   0.4738171  25.5765934   8.5777044  37.6739273  63.4656410  37.1671486
  38.3852882  64.0584335  36.9246597  37.2534370  63.8895302  37.9153023
  30.7216492  40.9290504  29.6829586  29.7687016  40.9347000  29.7729015
  31.0064716  40.1748810  30.1990356  17.4141712   6.4841566   3.8680270
  17.7913647   7.0143166   4.5700860  16.4750061   6.4752860   4.0527539
  48.4850616  26.9024963  45.1960678  48.2987785  26.8533878  46.1336784
  48.8518829  26.0452995  44.9795341  10.0696430  10.9173985  70.6881256
  10.2003689  11.0825577  69.7543869  10.8852158  11.2046919  71.0986557
  37.4389801  47.4053307  73.7343140  37.6568527  46.5836372  74.1742935
  36.6104736  47.2264977  73.2895355  11.3834305  38.9558334  52.5403290
  11.0577879  38.1578751  52.9568100  11.6208572  39.5273705  53.2705383
   8.2889404  47.2170143  55.7679825   8.2309542  46.2930641  56.0112572
   7.8622732  47.2666931  54.9125748   0.1404653   4.5488124  82.3998566
   1.0184889   4.2851510  82.6751556  -0.1774247   3.8131695  81.8764038
  30.1175003   5.2357483  25.9424152  30.5121765   5.7794991  25.2606544
  30.6606636   4.4478989  25.9647694  43.3224030  21.3921700  43.3234024
  44.0260353  21.7940178  42.8138428  42.9120331  22.1241341  43.7838974
  78.8515167  31.5458298  26.8659534  79.7908783  31.4482632  26.7100067
  78.4450378  30.8929939  26.2960339  59.6346817   7.7777705  67.4977341
  60.0737457   8.5011292  67.9451752  59.4390030   7.1495748  68.1929398
  29.3314743  69.9609604  37.0525780  28.9003811  69.3819122  36.4240150
  30.0130901  70.4008942  36.5445557  54.5485687   3.0061452   1.4382797
  55.2817650   3.6162028   1.3577515  54.6943092   2.5657051   2.2755396
  53.6067009   4.3114533  85.0290604  53.8968315   3.5708857  85.5616150
  54.1060982   4.2322111  84.2163162  72.9588699  28.6280556  81.1599503
  73.7183838  28.0455132  81.1640167  72.2048874  28.0384884  81.1478577
  76.9050827  47.3625717  75.5160294  76.7145920  46.8673058  76.3126831
  76.5615387  46.8181458  74.8076477  69.1805801  25.2823143  86.8169708
  69.1796951  25.6768303  85.9448547  69.5873184  24.4249496  86.6915970
  26.5891151  11.6546030  81.4494629  27.1840801  11.9660482  80.7673721
  25.8785305  11.2277231  80.9708405  82.5509567  35.2333946  30.7841740
  81.6203003  35.3619728  30.9673977  82.9851456  35.4011192  31.6205864
  71.6371613  15.8868141  13.2199202  70.9366989  15.2356319  13.2592239
  71.6988678  16.1165390  12.2927475  10.5230465  57.5486183  86.1043930
  10.2686405  58.1550331  86.7999268  10.4056664  56.6800385  86.4891281
  33.3844872  58.1300430   8.0824671  32.6363640  58.3703613   8.6290846
  33.2709999  57.1936913   7.9193921  46.7979050  46.2373962  11.3610144
  47.4735832  45.5662422  11.4571400  46.9065018  46.5601921  10.4664526
  18.9923744  20.1453075   2.8249729  18.9396782  19.5753880   3.5922055
  18.1731644  19.9903126   2.3547566  26.6581306  68.7929001  17.7074833
  26.8282166  69.7212677  17.5480175  27.4375916  68.3463669  17.3769112
  22.3467445  55.0449982  31.8805904  23.1692200  55.2146416  31.4212589
  22.5020599  54.2291412  32.3564949  23.5447311  30.7185993  61.7269630
  24.0999470  30.5282097  60.9708405  24.1229858  31.1715183  62.3407364
  -0.1389798  38.1380577  32.9389534  -0.3533306  38.8575668  32.3451614
   0.6273109  38.4467201  33.4224396  57.8084373   2.0902746  22.1749229
  57.0175514   1.5519150  22.2049026  57.6019630   2.8497875  22.7196598
  61.1689186  61.1823235  52.2051544  61.0178108  60.2652321  51.9763794
  61.3253555  61.6158180  51.3662033  80.9047394  28.7208519  24.7092476
  80.2584686  29.1923885  24.1836853  81.7403870  29.1305656  24.4854851
  56.3383751   6.7874370  34.8828964  55.6766853   6.4557910  35.4898643
  55.9883003   6.5880494  34.0146065  17.9162579  40.4315720   7.8403335
  17.2500343  40.7631416   7.2383027  18.7451115  40.7388000   7.4731221
  33.4522400   0.2357927  26.9543495  33.8139610  -0.5832639  27.2927818
  32.7302055   0.4420943  27.5479298  50.1714859  22.4608192   3.3080010
  49.4305496  22.2356853   3.8706367  50.9279060  22.0600224   3.7362807
  52.0140762  56.1216202   9.1157160  52.0489769  56.5043831   8.2390709
  52.2896805  56.8299980   9.6975021  48.2517128  29.7729263  11.3231955
  48.6601944  29.0071507  11.7268810  48.9814491  30.2594395  10.9397650
  46.5838089  58.1765327  20.7383423  47.1910210  58.6276741  20.1518288
  46.0479317  57.6355591  20.1583309  79.2222519  48.0408516  27.7758694
  79.5464935  47.1426392  27.7101974  79.5133133  48.3381348  28.6379242
  17.1088047  25.6157875  63.9551468  17.4757137  25.2219105  64.7466431
  17.0731411  26.5526333  64.1482315   0.2836069  38.7391472  11.3153934
   1.1914084  39.0112724  11.1809483  -0.2123087  39.2257118  10.6569433
  22.6157532   7.9018278  68.9854507  22.5010033   8.3956738  68.1735535
  23.3968468   7.3697357  68.8337784  18.0403957  57.2026825   5.6324377
  17.4941864  57.5185738   4.9126472  18.1186142  56.2612000   5.4784060
   3.6661282  63.1680870  32.7993317   2.8270211  62.7432594  32.6214256
   3.9725709  62.7627563  33.6105232  29.7872086  67.6940994  88.0958786
  29.2119331  68.2828903  88.5843582  29.6982327  66.8502655  88.5388794
  31.8780994  42.7898140  17.3898430  31.0903111  43.2899704  17.6030617
  32.1395226  43.1110764  16.5268955  70.8630676  47.4270744  63.8006630
  70.1365662  46.8043823  63.7745018  71.3320007  47.2142448  64.6075363
  12.7593384  25.3325367  69.0333405  13.2960787  25.4561920  69.8161926
  12.5296183  24.4033813  69.0447540   7.2328377  27.8786964   9.8048115
   7.8492899  27.7051563   9.0934029   6.5339122  27.2371044   9.6779480
  24.8347454  34.9812508  29.0193691  23.9796677  34.9644279  29.4492416
  25.3481045  35.6059723  29.5316372  75.1048737  31.8376675  81.7842484
  75.2052078  30.9416790  82.1057587  75.2922592  32.3875160  82.5450211
  23.7772751  51.9838448  46.3149071  24.3232098  51.8794098  47.0941925
  22.9618721  51.5316277  46.5313492   8.5872679  49.8706970  25.0572720
   8.0749130  50.5674591  25.4674568   8.5717440  50.0800323  24.1233730
  47.9811058  66.4447174  71.9367752  47.6847076  65.9310532  71.1854172
  47.3747139  67.1843262  71.9754791  14.8161335  67.6709366  17.1430302
  14.9096622  67.0963974  16.3831654  14.0730429  68.2343903  16.9272461
  43.9948463  62.1903343  36.0960388  43.9621277  62.7933235  35.3533630
  44.2689247  62.7343750  36.8343735  18.4343967  67.0385513  50.1909752
  18.4003105  66.2916794  49.5932655  17.9221992  67.7187881  49.7537575
  13.2172956  42.7880898  83.7113495  13.6838846  43.5057755  83.2830353
  13.6213655  42.7223206  84.5765839   7.9399796  55.3490372   0.4474887
   7.4762101  56.1612129   0.2437294   8.5854588  55.6010132   1.1078643
  28.7156792  58.5756760   8.6274319  28.1196442  59.1914825   8.2011051
  28.7437592  57.8222656   8.0376720  38.6740532  34.3827858  58.3567467
  38.5773392  34.5079803  57.4127121  38.3361053  35.1914940  58.7414703
  57.6395988  32.6305351  47.1949844  56.7168808  32.4870491  47.4053192
  57.9896584  31.7528801  47.0419655  10.0081367  71.2201233   5.8453498
  10.1904325  71.9128113   5.2103810   9.1571951  71.4533157   6.2164969
  17.0603619  49.7780495  31.5607300  16.2905006  49.6979065  30.9975948
  17.8005848  49.5960236  30.9817924  65.6459198  47.4561615  34.0825043
  64.9039078  48.0206985  33.8658142  65.7782440  47.5845184  35.0217819
  59.3348541  36.3805313  41.3638039  59.5183105  36.0578346  42.2460976
  58.4432831  36.0840721  41.1809158  36.7558327  46.2563667  65.9961014
  36.8767509  45.4637871  65.4732056  35.9035645  46.1387863  66.4156876
   7.6350417  38.5306816  38.1847801   8.3157396  37.9607544  38.5426483
   7.3059158  39.0152206  38.9418335  42.9822998  52.4878235   9.7840118
  42.7207985  51.9524002   9.0348997  42.7118263  53.3756638   9.5498915
  61.5452766  40.8562965   9.9199762  61.5536308  41.1037064   8.9953403
  61.8767281  41.6288986  10.3776445  59.9119644  12.5179796  48.7075310
  60.7614250  12.9566116  48.7549782  59.6102409  12.6763811  47.8130455
  41.8857079   9.3023195  61.9751701  42.2486229   8.8340063  62.7269745
  41.2510300   9.9098606  62.3550491  47.7163048  23.2713757  26.1822720
  48.4175339  23.9192333  26.2514954  48.1606178  22.4276657  26.2657661
  46.9549561  45.3456383  81.5204697  46.6121216  44.4942551  81.7922058
  47.0527153  45.2725372  80.5710831  77.0469131  46.2942963  54.2164574
  76.1374588  46.3665009  53.9267845  77.4838562  45.8105888  53.5154991
  56.4432487  68.3896790  86.3285522  55.9868469  67.5485001  86.3473892
  56.2785263  68.7709122  87.1909637  80.6021118  13.9150019  63.9960747
  81.0570297  14.6843147  64.3387680  80.7952728  13.9203739  63.0585861
  45.8816719  50.6778641  79.7949905  46.6475983  51.2512932  79.7672806
  45.1397514  51.2739754  79.8971558  47.9105682  44.4904671  30.6735554
  47.0798111  44.0402641  30.5206299  48.2169991  44.7312279  29.7992725
  47.4834290  67.9997787  86.3722000  47.1668053  68.2377243  85.5007858
  48.3998642  67.7589874  86.2365570  32.3332825  49.3219528  78.8588638
  31.5301609  49.8338280  78.9548187  32.3678665  48.7804985  79.6474457
  12.9322739  38.1504440  41.0007019  13.2459641  37.9253960  40.1248131
  12.9422436  39.1073952  41.0201454  21.8859940  50.9749107   2.4211609
  21.8180981  50.1507225   1.9391445  21.0816135  51.0168915   2.9383087
  25.1436272  31.6960258  63.8749161  24.8952293  32.1603584  64.6742401
  25.7447510  32.2923431  63.4284973  61.6912918  13.5530319  80.8240814
  60.8242149  13.4273930  81.2095947  61.5189857  13.7282457  79.8989639
  75.9910355  11.3403034  45.8465157  75.0880890  11.3329754  46.1641045
  75.9397202  11.7614269  44.9884644  63.2894707   6.5740042  53.3997955
  62.4860229   6.6743441  52.8892708  63.0155983   6.1042647  54.1875572
  37.6057816  60.2914200  20.8925152  37.7414513  59.5246735  20.3358021
  36.7968102  60.1021385  21.3678741  78.2755661  12.0891647  40.9087563
  78.6888351  12.2519855  40.0608559  78.5937881  11.2244949  41.1682014
  63.0039406  19.6982403  82.3972397  62.5198441  19.0303497  81.9116440
  62.9253311  19.4323673  83.3134079  59.6342049   0.7332752  23.5849228
  60.1243668   1.3314941  24.1489334  59.4679375   1.2373017  22.7883396
  41.3953018  27.8501511  15.3455400  41.5023727  27.3216476  14.5546837
  41.9297218  27.4065628  16.0042171  11.3815804  37.1938248  66.4108353
  11.7439880  36.3083420  66.3824158  11.5366106  37.5443382  65.5337219
  17.8093834  35.9648399  84.8307953  17.1975918  36.5324059  84.3619537
  17.4297237  35.8735809  85.7047272   0.9121984  42.9141502  66.1290207
   1.3121769  43.5371208  65.5222702   0.8735026  43.3829346  66.9626770
  76.0544815  65.5356369  84.1920853  75.9344635  66.1924286  83.5061874
  76.0724487  66.0395432  85.0057068  86.1523895  17.8579350  51.2178688
  86.2567825  17.1724873  50.5579491  85.9373856  18.6436253  50.7151794
  22.8680687  66.5503769  31.5847912  22.2764759  65.8923492  31.9498329
  23.4556980  66.0542984  31.0148506  26.3693752  17.4773521   7.6858168
  26.0736160  18.3652992   7.4850507  26.1944027  16.9802151   6.8867717
  70.9717712  42.3431473   0.4732347  71.8534393  42.6766663   0.6395370
  71.1093140  41.5515900  -0.0470986  12.7442942  40.2091064  25.7309856
  12.3474188  40.3312111  26.5934315  13.6831303  40.3192749  25.8815899
  85.0075607  54.4038925  60.3335342  85.8310928  54.4515686  59.8479958
  84.3304367  54.4012337  59.6569748  31.5117207  39.2065086   7.6149750
  31.4216862  39.1781540   6.6624403  30.6291714  39.0362549   7.9441462
   5.3789859   6.7646074  17.9236240   6.2840590   7.0435309  17.7847843
   5.4240561   5.8087926  17.9484940  66.1438446  20.4132595  69.8933334
  65.7406158  20.8782692  70.6264191  66.3293381  21.0965652  69.2491913
  85.9762802   8.6635275  26.7699547  86.3706741   8.1938648  26.0350361
  86.4766083   9.4773188  26.8303394  82.7729111   0.1680186  54.5298653
  82.7698517   0.3404976  53.5883369  83.6984634   0.0661036  54.7516823
  52.6897583  41.4379654  39.0711098  53.3337364  42.1210938  38.8843956
  53.1882477  40.6217499  39.0319786  74.0880280  56.1075859  64.9302597
  74.1131821  57.0170097  64.6326828  73.2473221  55.7756538  64.6151962
  26.1956654  61.6327286  39.9219170  26.1237907  61.3777847  39.0020981
  27.0408363  62.0780869  39.9816818  80.9527283  42.3158607  71.8180847
  81.6254272  42.2151871  72.4915695  80.2701263  41.6924248  72.0662918
  18.1093521  24.7028084  66.4820786  18.3453083  25.4790039  66.9900894
  18.0009079  24.0123577  67.1361008  86.4410172  22.3051338  69.4990997
  86.5225906  21.9689121  68.6066132  87.2612915  22.7733345  69.6545715
  74.7522202   5.7205725  70.2867813  75.5904999   6.1822791  70.3052063
  74.1166916   6.3655124  70.5972443  66.9377823  58.0542183  -0.0965464
  66.5234909  57.2259521   0.1454673  67.0427322  58.5207939   0.7326230
  10.3567390  48.2715797  13.3935318   9.7173262  47.5634041  13.4701509
   9.9089909  49.0382843  13.7511902  14.5576611  34.0277939   7.8156176
  14.2540674  33.3675232   8.4385958  15.3618946  34.3719025   8.2042437
  14.9171495  16.0893002  12.1580219  14.7404366  15.1538696  12.0581493
  14.0524836  16.4867153  12.2611980  57.2464752  26.7389832  77.9058609
  58.1999397  26.6709442  77.8557587  56.9716873  25.9342403  78.3452988
  82.8034134  18.5198631   9.5590382  83.1448669  18.8988571   8.7490969
  82.0871353  19.1020298   9.8125401  44.6629143   8.2053366  38.9550934
  44.4412766   7.2865095  38.8038826  43.9330864   8.6936035  38.5740738
  44.8032570  37.8832283  10.9010906  44.5303688  37.2179070  10.2693396
  45.6015663  38.2558136  10.5267725  54.9003677  19.6945629  60.6374130
  53.9468231  19.6286526  60.6888046  55.1572151  18.9916992  60.0405502
  71.7324219  37.8609543  69.6565628  71.5275192  38.2246971  70.5179214
  72.6872177  37.7940636  69.6457748  64.2800980  11.5744791  50.0241547
  63.7210045  11.5509644  49.2475662  65.0754776  12.0205383  49.7332382
  53.0722427  33.3876648  37.4473076  52.5064354  33.2751389  38.2111320
  53.0612144  32.5345764  37.0133133   3.9771819  20.8370514   1.6171391
   3.6154141  20.0412445   2.0070717   3.3969800  21.0277557   0.8800978
  10.5418749  43.4249611  83.7878571  10.5299988  44.1960793  84.3548431
  11.4708109  43.2197151  83.6821060  12.9331264  49.8852921  51.3076439
  13.4284468  49.6748276  50.5160675  12.9730577  50.8397217  51.3684921
  16.8660374  34.8927460   9.0867596  17.0281792  34.9233780  10.0296297
  17.7308044  34.7575531   8.6992893  21.6625938  65.2862930  60.6975861
  22.3402519  64.7275009  61.0780678  20.9902458  65.3434677  61.3764877
  19.8200684  50.1696014  64.9897537  19.6557407  50.7633362  65.7223587
  20.4723606  49.5532265  65.3226624  53.2616425  15.3538589  82.6615295
  53.8957214  16.0705986  82.6401138  52.5338364  15.6617289  82.1213913
  10.7515106  54.3952713  11.0417805  11.3908691  54.9806786  10.6358843
  10.8376970  54.5604973  11.9806652   5.5251389  20.2403145  55.3561516
   5.4009256  21.0410213  54.8465691   5.1063929  20.4241791  56.1970291
  64.6759109  13.4323807  68.4830399  63.8305779  13.8437119  68.3028946
  65.2997742  14.1583414  68.4858170  32.5675507  28.0988522  87.3006363
  33.4672699  27.9507809  87.5918655  32.4618378  29.0499210  87.3235703
  65.9008789   2.2855783   8.9094458  65.8479691   1.6321442   8.2119818
  66.5065918   2.9461582   8.5733232  86.6205139  15.1965075  69.2388382
  86.4367523  14.9280052  68.3386307  86.0959167  15.9871864  69.3647690
  26.3349991   9.5721836  24.9987431  26.2057076   8.9351130  25.7013493
  27.0221329   9.1903019  24.4526253  72.9409943  22.2882099  16.4558048
  73.2594528  21.5778770  17.0128021  73.5817566  22.3422508  15.7467680
  19.4143810  64.2778320  24.8957806  19.9063892  63.6457863  24.3716812
  19.1032104  63.7744751  25.6481323  50.7831535  42.9449615  50.5004539
  49.9596634  43.0350075  50.9800224  50.5830956  42.3306007  49.7942200
   5.2527776   2.3259366  56.8251762   5.5197101   2.6908686  55.9814911
   5.2243204   3.0800030  57.4140778  64.7939072  56.9961014  60.6635895
  65.7334595  56.9039307  60.8216438  64.4030151  56.9971428  61.5373344
  63.7676888  27.7642689  40.1686707  63.6597481  28.2872753  39.3742867
  64.4033966  27.0905666  39.9273415  68.1533356   2.4930413  67.6931915
  68.7736359   3.0639861  67.2398911  67.8262100   3.0236411  68.4196091
  46.7907944  63.6417770  24.2572498  47.0571938  64.2994690  23.6148300
  46.3289795  64.1393814  24.9320469  40.2408638  51.5965309  49.0338898
  39.7662163  51.7089462  49.8574829  40.6261024  52.4554214  48.8603096
  53.4774017  69.3963318   1.6406204  53.9849434  68.6123199   1.4309602
  53.8971672  69.7508926   2.4244049  39.6299248   2.5749063  77.0424652
  39.9385300   3.1711020  77.7247772  39.2187996   3.1458957  76.3934860
  74.2645874  68.9472656  56.0635223  74.9281998  68.2736435  55.9149208
  73.5971909  68.5129471  56.5947266  82.7116928   8.8165722  10.7525377
  83.1771088   8.8526697  11.5881910  82.2973251   7.9537334  10.7462435
  65.8252411  48.5193748  21.7500591  66.5699081  48.0968323  21.3220921
  65.9779434  49.4562035  21.6265011  47.0212555  12.0367956   4.0210190
  46.7902794  12.4652109   4.8452401  46.2226562  12.0825157   3.4953008
  46.1159630  42.5174980  33.1471710  46.4949188  41.7828903  33.6298485
  46.6193886  43.2788086  33.4356194  26.3849792  37.5314255  29.7871723
  27.1785221  36.9974060  29.8238754  26.6732025  38.4068031  30.0457592
  74.4546890   1.9455740  19.7662983  75.0752869   1.5833316  20.3986511
  73.6702652   1.4058706  19.8644238   4.4004760  27.7458858   5.3951359
   4.0754952  27.2145252   4.6683111   3.7132881  27.6894512   6.0590787
   9.4352427  15.0416956  70.7435074  10.1698246  14.4713764  70.9701309
   9.3767176  14.9892330  69.7895432  59.0300026  33.0754509   2.5900540
  58.3622742  32.5636597   3.0466061  59.2568054  32.5456924   1.8257568
  43.3958397  24.8809090  88.4781799  43.9784317  25.3598309  89.0676270
  42.5205574  25.2042484  88.6916275  68.1747360  35.7241211  20.1743412
  68.9409790  36.1979065  20.4978104  67.5783310  35.6940384  20.9224262
  66.0460968  47.2655296  63.2300568  65.9934616  47.5147972  64.1527328
  65.4037476  47.8252106  62.7937355  62.0739555  54.0925217  28.2443314
  62.3173256  54.3978691  27.3703938  62.8914986  53.7661705  28.6203003
   5.2000389  14.1416569  83.5617828   4.4375439  13.6316376  83.8351212
   5.2872615  14.8197918  84.2316742  72.2634201  25.6978531  26.3212280
  72.8876343  26.4211159  26.3802071  72.5446777  25.0828896  26.9986858
  72.8762207  22.9688988  64.2528458  73.2568970  23.7038670  64.7336197
  71.9366913  23.1515675  64.2406464  49.7685165  63.9816093  77.9604111
  50.1216850  64.7244568  77.4708405  50.5147667  63.3930016  78.0739059
  18.7362919  67.2020187   8.1465464  18.3465462  67.8135376   7.5217466
  18.4372463  66.3402176   7.8565392  23.6226673  22.1372089  40.3102379
  23.0307045  21.5460110  40.7753105  24.2285061  21.5563488  39.8500290
  76.6929169   1.8492632  32.5851860  77.6063690   2.1063838  32.4598236
  76.4461136   1.4319948  31.7598324  52.7929268  38.9067421   5.9633851
  52.8912201  38.1152916   6.4927063  52.7801743  38.5906296   5.0599790
  29.4798336  18.2807655  66.0124588  28.5995197  17.9660091  65.8070221
  29.5580444  19.1044979  65.5312347  45.0003662  26.5552826  19.3010521
  44.4717903  26.2555599  20.0406475  45.7768478  26.9441948  19.7036171
  64.0830612   1.5679756   3.9283047  64.9646912   1.6550877   4.2907557
  63.5233879   1.4248583   4.6915307  36.7018471  69.4287872  16.7493114
  36.4774017  68.6629257  17.2778149  37.4179993  69.8476868  17.2266827
  41.9218788  57.2283363  48.8978806  42.0115051  58.1457787  49.1557579
  41.1408272  57.2102013  48.3448334  68.2592545  64.0065536  13.0820694
  68.4923401  63.5053749  13.8635550  67.3062286  63.9358482  13.0276070
   2.1944931  21.0975704  83.9245529   2.5492330  20.3957958  83.3787460
   1.8283972  21.7244358  83.3006592  13.0321131  58.5830574  34.6153717
  12.9890451  57.9690285  33.8823318  12.3317728  59.2121811  34.4422874
  57.7089233  35.8573761  32.3695564  56.8828049  36.2483101  32.0850792
  58.2007599  36.5859489  32.7483826  28.8421001  60.0007668  41.2238159
  28.6833153  60.7958984  40.7151070  29.7932625  59.9677200  41.3259468
  62.3296242  43.4276123  64.0672836  63.0185623  42.8715057  64.4310684
  61.8050461  43.6857758  64.8251801  53.2867317  43.1131477  30.7930450
  53.4481659  43.1380196  31.7362041  54.0357170  42.6371498  30.4343224
   1.6147902  21.0932770  59.0133171   1.5200599  20.4983654  59.7571869
   1.5188795  20.5319252  58.2439575  47.9115143  32.2410812  15.7798567
  47.7950401  33.1683617  15.9867926  47.6416779  32.1641808  14.8647022
  65.2670822  54.6696777  24.2406635  65.2937317  55.1477928  23.4118519
  65.7101059  55.2456207  24.8637638  48.3020287  66.5021591  -0.0885437
  48.6126137  66.8194733   0.7594401  47.6737061  67.1643372  -0.3765659
  80.2419815  57.0058556  51.6391983  79.4755478  56.4337540  51.6780739
  79.9031143  57.8751106  51.8531990  53.5360680  42.0209084  13.1871910
  54.4722404  41.9829483  12.9913158  53.3068123  41.1253510  13.4354858
  19.0127945  26.8242931  -0.0185593  18.8190327  25.8890152   0.0442365
  18.5048428  27.2221241   0.6885102  56.4835892  36.0402374   6.9451280
  56.2366982  36.3227005   6.0645094  57.3445587  35.6367989   6.8346786
   8.2276144  55.7464218  63.8685112   7.4553761  56.0897369  64.3179703
   8.1530781  56.0810051  62.9747925  46.4938087  10.0642214  38.7208099
  47.2762184   9.6255856  38.3866386  45.8821793   9.3524160  38.9091530
  70.1355743  52.9301949   4.4937582  70.5521240  52.5342865   5.2592511
  70.5475388  52.4971275   3.7461143  70.6912994  54.8363457  34.7836342
  70.2945328  54.1287079  35.2916260  70.3819656  54.6918259  33.8894005
  54.9225693  31.5245514  44.0988617  54.6055412  31.1321392  43.2853889
  54.6882668  30.8914013  44.7774315  58.2282867  46.7665787  40.5278587
  58.6554337  45.9889984  40.1684914  58.7715187  47.4968262  40.2314339
  56.9656601  38.6465607  88.7731018  56.0316124  38.4953651  88.6284332
  57.1855507  38.0897751  89.5200119  32.2855377  55.2194786  42.3526382
  32.8488197  55.3301163  43.1186028  32.4112816  54.3068771  42.0926781
  51.2272835  23.1793079   6.1855550  50.6977005  22.6260014   6.7596869
  51.6314926  22.5679245   5.5698795   7.6880846   8.0435925  88.0880737
   6.7621841   8.0633755  88.3300400   7.6882882   8.1272526  87.1345367
  59.9854507  62.1196632  36.0063934  59.4991264  62.0510178  36.8279800
  60.7701988  61.5900803  36.1476173   3.8521047  36.3343315  45.0396309
   4.3389416  36.1556511  44.2350845   3.6051087  37.2565155  44.9703255
  48.9293938  49.2628441  74.4365997  49.6249771  49.7110825  74.9177246
  48.2230377  49.1625404  75.0747452  71.5358353  48.1114883  68.4721451
  72.3406830  48.2102928  68.9807663  71.4352417  48.9480934  68.0180588
   6.5958543  37.7168541  74.5638123   6.1628523  37.5552406  75.4020386
   5.8800917  37.9057083  73.9569778  62.7082405  59.1424026  62.5597305
  63.2865486  59.7998962  62.9463730  62.6356354  59.3982925  61.6402283
   7.7068567  13.6394119  88.6186371   7.6318827  12.7308435  88.9103851
   7.4104528  14.1566706  89.3675156  57.3888206  45.1073341  31.7325516
  58.1151123  44.9726677  32.3413162  57.8004227  45.1237602  30.8685226
  18.1401920  10.6340485   7.4742064  17.3095455  10.6023436   7.9488149
  18.2025528  11.5362530   7.1605663  29.5624695  55.9777412   0.3328612
  29.5090599  55.4941750   1.1572061  28.7485695  56.4802284   0.2967795
  73.1175995  30.1868649  33.5996361  72.7675400  30.0854149  34.4847336
  73.3236847  29.2949562  33.3198891  24.4520664  56.5919800  60.1820679
  23.5859089  56.6597099  59.7803001  25.0396576  56.3946648  59.4526596
  77.0122681  62.6677437  24.4782963  76.9938889  61.8513298  24.9776592
  77.2061996  63.3422890  25.1291504  27.8804092  35.1254616  71.7994995
  27.4116516  34.5663376  71.1799164  27.2081165  35.4163857  72.4156265
  22.8609848  66.7156754  16.8131638  22.9960251  67.1269684  15.9594431
  23.0722160  67.4021988  17.4458580  44.5694847  50.3908653  22.9563732
  45.3712959  50.8776665  23.1470375  44.6076279  49.6300621  23.5359898
   0.2791507  57.7070770  35.1649246  -0.1559979  57.0032043  35.6460037
   1.2077805  57.5991478  35.3704224  77.2380981   6.9452224  71.4169540
  77.2788696   6.2880578  72.1117249  78.1322327   7.2806206  71.3517456
  15.3887444  37.4585457  55.0470390  15.8244200  37.2349930  54.2245789
  15.5017338  36.6829185  55.5964661   4.5227919  49.9516220  32.8442764
   3.6244102  50.1985168  33.0637932   4.7498708  50.5102577  32.1009102
  13.9942236  61.4130936  63.7813873  14.6575375  61.5069885  63.0976982
  14.1272545  62.1715622  64.3499451  84.8709106   4.2305627  42.4155807
  84.3665466   4.9348736  42.0084038  85.7760391   4.4034982  42.1565933
  62.8773994  16.9493980  78.8667221  62.1877670  16.8545551  78.2097244
  63.6499443  16.5552940  78.4616394  54.2522430  25.1893120   2.3307798
  53.6751862  24.6838989   1.7582470  55.0453987  25.3246613   1.8123037
  74.0090485  21.4533520  22.4789410  73.6601562  22.2394581  22.8991051
  73.2428513  20.8974113  22.3371868  49.4189682   4.2638359  76.1852722
  50.2790222   4.3025665  75.7668915  48.8453140   4.7581272  75.5997543
  12.1021271  41.9911919   0.8689962  11.4159622  41.4587212   0.4666477
  12.7719059  41.3599434   1.1319629  68.3990707  10.2856236  57.8499985
  68.3529816  11.0714235  58.3946304  67.7577133  10.4373703  57.1558342
  56.7019920   1.0801879  56.5231514  56.1549530   0.3043936  56.6461296
  56.3076668   1.7435277  57.0894737  67.5943146  28.2005825  26.5559502
  66.7881317  27.9007111  26.9759274  67.2964401  28.7373219  25.8215046
  82.1268005  16.8304710  82.2535629  81.4962997  17.0711555  82.9323654
  81.5949860  16.4389019  81.5606842  82.2139893  61.7419243  12.4002628
  82.1296463  62.3180389  13.1600046  81.8957596  60.8928833  12.7070055
  39.6422272  45.8795891  85.8740158  40.3002129  46.3302193  85.3446579
  39.5252113  46.4415245  86.6400223  68.8837128  49.6301727  60.0947304
  69.4946518  48.8977547  60.1756935  68.0270538  49.2501488  60.2895241
  80.0868607  15.5214090  85.8172073  80.2093582  15.7460060  84.8948288
  80.8792267  15.0392122  86.0535736  78.6219330  28.3585396  27.4501190
  79.4280701  28.5875320  26.9875793  78.0440674  28.0151672  26.7686501
   3.9563408  35.0970764  71.9473419   3.7837489  35.5262032  71.1093140
   3.2936604  34.4087677  72.0049362  43.7814751  50.8997421  55.0312157
  43.3368340  50.0985603  55.3080406  43.1011848  51.5725975  55.0577011
  82.4276962  59.3172340  84.5826187  81.9461441  59.0986748  83.7847672
  83.3425446  59.3641167  84.3049622  20.3076057  69.6481171  70.7467499
  19.8851871  70.0208588  71.5206070  20.3240013  70.3658981  70.1137009
  76.7939758  66.3042297  61.1580315  76.1537476  66.9284515  60.8164291
  77.5884705  66.8223190  61.2868347  54.9396400  63.4632530  68.8610229
  54.0810623  63.5426102  68.4453583  55.5607719  63.7152328  68.1777039
   6.0476861  67.5525894  29.9002190   5.7771397  68.0961151  30.6402321
   5.3091741  66.9612656  29.7547302  48.4475594  44.3998375  62.7844391
  48.3712425  43.4520416  62.6744881  47.5820045  44.6765251  63.0852509
  58.5048599  55.2604637  70.6833954  57.9308701  54.7316742  70.1291885
  58.3542519  54.9294968  71.5688400  62.1851997   4.9302559  16.3251381
  62.4614410   5.5586796  16.9922276  61.2667885   4.7531772  16.5285950
  17.5270920  52.0288391  60.9417000  18.1453629  52.4504814  61.5385170
  17.2894974  51.2121048  61.3807068  44.3495064  44.8014984  51.8358154
  44.6294670  44.6723442  50.9296303  43.4097977  44.9728661  51.7740707
  64.3466263  28.2504711  59.4592819  63.6336823  28.0071316  58.8687553
  63.9071579  28.6091194  60.2303009  50.2536926  64.0094452  36.6138992
  49.2983627  63.9648781  36.6537781  50.4415092  64.9184113  36.3799400
  19.3042850   4.7459149  70.2640610  19.9133091   5.1755080  69.6634216
  18.7494431   5.4545407  70.5899963  73.2936783  41.5832443  17.0970383
  73.3717804  42.3288116  17.6922379  74.1973038  41.3565369  16.8772659
  49.4341774   3.2329354  59.3668289  48.6671600   2.6928961  59.1763763
  49.2531700   4.0672245  58.9338989  17.2918015  10.4391670  46.1471748
  16.4311447  10.2282887  46.5091591  17.8162994   9.6538429  46.3033829
  77.3487473  41.1508293  71.4770279  77.6542740  40.7592278  70.6587753
  77.3266983  40.4223862  72.0976028  59.5883331  64.0401077  83.3020706
  60.3908234  64.5389786  83.1491776  59.8812714  63.2466850  83.7502823
  64.9084702  66.4075470   8.2552872  65.3697662  65.9432220   8.9537401
  64.3945236  65.7299500   7.8160191  63.5656013  45.7959557  24.4765453
  62.9219818  45.0946846  24.3755646  63.5566750  45.9962959  25.4125042
  21.3584595  65.5925446  43.7211647  21.5226784  66.5354385  43.7358284
  20.9349442  65.4101105  44.5599632  12.2001228   7.6901503  18.9941959
  12.8539829   7.0908327  18.6343117  12.2587509   7.5676723  19.9417152
  46.0616722   9.3296957  55.9403801  45.3002815   8.7532139  55.8756676
  45.7130661  10.2061138  55.7772942  21.0629845   7.1453924  65.6331100
  20.5771885   7.2098260  64.8108673  20.5613079   7.6782050  66.2500839
  31.1936893  10.2319193  71.3608627  30.3052292  10.0922127  71.6885147
  31.7589226   9.8411293  72.0272141  75.0523834  64.6848679  42.8379250
  75.8798065  64.4663773  43.2667236  74.4929962  65.0048294  43.5457001
  65.4756775  27.1865520  37.1885109  64.8419342  27.8342876  37.4967918
  65.3698120  26.4452591  37.7847557  68.0000992  37.9610825  74.1410904
  67.6346436  38.4138870  73.3810654  68.7994156  37.5491638  73.8129807
  28.1870422  50.0140877  81.0010757  27.7329712  50.6725845  80.4753036
  27.6489086  49.9226761  81.7873840  24.6352139  47.7105827  14.8349247
  24.0978146  47.6839104  15.6265821  24.6273670  46.8103752  14.5096712
  80.5926056   5.4400549  67.6785431  81.4612274   5.4443831  68.0806732
  79.9886093   5.5571575  68.4118271   1.0231549   4.0913520  48.1531792
   0.7702793   4.5045586  47.3276215   1.9486986   3.8754084  48.0392952
  15.2189245  30.2154598   7.7738647  15.8932123  29.8337364   8.3358746
  15.5636024  30.1180115   6.8862090  40.3606758  44.5615463  54.8171387
  40.1871529  45.3983879  54.3860741  39.5193367  44.3090134  55.1974144
  55.5530548  12.7668028  56.3927994  55.5547562  12.0956364  55.7103310
  56.3633499  12.6156273  56.8794174   4.4772511  11.4079361  81.8062286
   5.0606799  11.8505754  82.4225998   4.7013927  11.7814407  80.9538879
  46.5760117  59.3390808  68.0972519  46.8036385  59.5279884  69.0075989
  47.3831673  58.9945793  67.7150803   6.8208027   3.7364018  83.0546036
   6.0551276   4.3094974  83.0937805   7.1800113   3.8761778  82.1784363
   6.1019526  40.9516525  44.3375244   6.7533159  41.5317650  43.9432793
   6.6169796  40.2564774  44.7470474   9.6586494  11.9611311  73.5975266
  10.1997843  12.4009724  72.9418259   8.8767176  11.6872559  73.1181488
  57.6887779  31.8926449  24.6282845  57.2727127  31.9648151  25.4873028
  57.2903404  32.5916023  24.1096916  74.2531738  54.6530800  52.8700218
  74.3965912  53.9954071  52.1894836  74.9898148  54.5406380  53.4708138
  41.9357986  34.9491463   6.5909276  41.1008224  35.3907280   6.4358544
  41.9135971  34.7137070   7.5184555  19.5111198   6.0099134  80.2922745
  18.7831593   6.4574652  80.7235489  19.2573490   5.0869684  80.2901154
  66.6754990  32.1402283  80.9807587  66.2528992  31.7508736  80.2152252
  66.0626831  31.9822350  81.6988983  64.9131851   9.3078222  44.4638138
  64.2771225   9.7393837  43.8933640  64.3860168   8.7327509  45.0184479
  83.9623260  66.8576889  88.3480453  83.0655670  66.5429077  88.4618759
  83.8626480  67.7505875  88.0178604  75.3623047  47.7761726  16.0822792
  74.4191742  47.6127586  16.0874710  75.7370300  47.0030022  15.6603575
  13.8252439  19.9574413  74.1652679  13.8603077  20.9054337  74.2929916
  14.2443199  19.8144398  73.3166428  48.3319931  10.6879215  83.1614838
  47.8099594  11.2512426  83.7327805  47.8457184  10.6661663  82.3372955
  47.6742516  40.0634727  37.2459755  47.3559494  39.4862289  36.5519257
  46.8841133  40.3340378  37.7136383  45.7146797  49.9153748  82.5409012
  46.2041016  49.9891434  81.7215958  45.2194138  50.7324638  82.5984421
   3.7991109   1.4442749  33.3285408   2.8634708   1.5096788  33.5196762
   3.8589532   1.5646118  32.3808250  15.0805712  16.6117859  68.7460632
  15.3859835  17.5039291  68.9104919  14.4991159  16.4183350  69.4813995
  21.6462860   5.6916971  78.7554550  21.9012814   6.5360627  78.3836288
  20.8543148   5.8809385  79.2586441   8.2467890  49.1114235   1.6912013
   8.5048666  48.3376274   2.1920655   8.4730864  49.8494949   2.2571304
  76.6543961  56.8669701  10.0661497  76.9579163  57.6109161   9.5459108
  77.1889954  56.1314850   9.7669792   1.1414459   0.6836898  31.7409325
   1.1525437   0.7124535  30.7842293   1.0485342   1.5984634  32.0069962
  50.0624847  43.9908600  73.7122269  49.3928757  43.5276222  73.2089691
  49.6559372  44.8272896  73.9387970  58.1203880  65.6411819  53.2740211
  57.5907059  65.5520630  54.0663109  57.4903946  65.8633347  52.5884666
   3.3645301  70.0104599   9.9210491   4.2221084  70.2566071  10.2677536
   3.4819105  69.1143799   9.6056299  59.3621445  69.0105057   3.3589709
  58.8059349  69.1519089   2.5928977  58.7844963  69.1656799   4.1062832
  19.2951183  65.7949753  22.6365662  18.5187130  66.3055649  22.8661842
  19.3504486  65.1240768  23.3170567  78.7871552  41.4891663  84.3156738
  78.1892853  42.1471405  83.9609222  79.2217255  41.1208572  83.5464401
  13.6063576  34.7354164  10.7841949  14.2674332  34.3949165  10.1814747
  13.3634157  33.9827271  11.3233309  29.6358376  64.4198456  41.4536781
  29.0741158  63.8278351  41.9539032  29.5552197  65.2619781  41.9014969
  66.8995667  51.8584671  68.7158966  66.8479538  52.7690468  68.4253693
  65.9977112  51.5409737  68.6701355  40.0433311  32.8807983   4.4250102
  39.8739853  32.4265518   5.2503662  40.8776741  32.5230255   4.1215239
  59.7195206  39.1131973  41.3537407  59.1495132  39.5156097  40.6984634
  59.4197655  38.2057114  41.4070663   1.6828164  46.7437019  11.2239208
   1.8564234  47.6838570  11.2708149   0.7323908  46.6709900  11.3113070
  46.7718277  49.5123940  10.1638517  46.4322243  48.9665451   9.4546604
  47.7090149  49.3190804  10.1871319  58.8365250  19.0298195  53.8927155
  58.4897499  18.7586060  54.7426682  58.1448936  19.5724106  53.5139351
  54.0734940  45.1682243  60.7799835  53.8713875  44.2533493  60.5840645
  53.4421234  45.4134521  61.4563484  44.2026901   7.3826361  83.6710739
  45.0326157   7.8032136  83.8959427  43.8615112   7.9005861  82.9419937
  34.8433228  60.5624809  65.1385117  34.4839630  60.5608559  66.0256958
  34.5816765  61.4087181  64.7756653  30.2639999  57.4993935  47.9701462
  29.8795223  58.3490753  48.1856575  29.5143909  56.9084091  47.8990593
  23.4656754  49.3455162  32.4387970  23.6480465  49.9882965  31.7533684
  22.6571884  48.9176102  32.1568794   0.9562902  14.6639042  65.0471268
   1.6418697  15.3275633  65.1230774   1.4303091  13.8332243  65.0082855
  23.5265503  64.4237900  11.1603956  22.9239101  64.7929459  11.8059797
  23.1049786  63.6130829  10.8753242  86.9625168   7.2658811  18.7784786
  86.1508331   7.0432000  19.2343369  86.9857101   6.6730957  18.0272808
  47.2400093   0.3327326  44.2778740  47.6636581   0.4063078  43.4226913
  47.8618622   0.7291245  44.8881226  14.6875057  20.6561813  16.7983608
  15.1095409  19.8156719  16.6204262  15.1313477  20.9864426  17.5794926
   4.9393091  63.4224205  65.4148788   5.4691739  63.1893005  64.6525574
   5.5604615  63.8179207  66.0264130  51.3938065  46.5716324  11.1836967
  51.6241608  45.6499367  11.0668774  51.8454781  46.8314896  11.9866276
  56.3756714  46.9652405  51.5208664  55.8397026  47.4186325  50.8701706
  55.9526558  46.1133003  51.6280174  31.2236290  56.6756973  67.3515091
  31.9863529  57.2479362  67.2676926  30.7562771  56.7765160  66.5222626
  53.3616180  66.6217575  31.1216717  54.1157379  66.0388336  31.2096004
  53.7243614  67.5008011  31.2308979  48.6375732  62.2566566   2.7298152
  48.5171165  62.3052025   1.7814665  48.3064919  61.3910561   2.9693036
  45.8380051  43.0669136  82.6072617  45.6165199  43.1366425  83.5358734
  46.1005936  42.1537323  82.4915771  86.4235001   0.8873178   3.7724161
  86.8475418   1.4436606   3.1190369  85.5136566   1.1843776   3.7857604
  31.1832085  63.5751877  61.6329727  30.8694000  63.4451218  62.5278664
  31.2755375  64.5240402  61.5470695  16.5107479  15.9848795  78.7601242
  16.9584942  15.4605207  79.4240570  16.8653870  16.8668633  78.8722229
  17.3548145  71.3321228  56.3669662  16.6795101  70.6650391  56.4902458
  18.1563969  70.9250641  56.6956062  56.4343376  59.3838844   6.0787182
  56.4884415  58.4306488   6.0105128  55.5900764  59.5463638   6.4994993
  76.5752106  46.9783134  46.5789757  76.6316147  46.0389900  46.4036865
  76.0480881  47.3250542  45.8591537  46.1037521  61.6731453  22.3612270
  46.2285118  62.0218887  23.2438602  45.2877121  62.0720291  22.0592232
  60.1742592  12.4705601  85.2326050  60.4609489  12.1814690  84.3663101
  59.3627052  11.9879341  85.3897324  58.0785522  47.1126251  72.6480789
  57.9154053  47.1290627  71.7050247  58.3255844  48.0118103  72.8641205
   8.9326334  44.0809250  38.7347946   9.2173548  44.6681213  39.4350586
   9.4910336  43.3090401  38.8276138  79.5894928  51.6262856  62.1221504
  79.8605194  51.6790581  63.0386581  78.6469955  51.7923431  62.1411591
  29.6227303  65.0638657  35.6588860  28.9591999  64.3780136  35.7334862
  29.5026073  65.5996323  36.4429512  80.3005066  56.1407967  81.2262344
  79.7350616  56.0792770  80.4563522  79.8983078  55.5536575  81.8663406
  10.0626335  64.7597809  55.0088844   9.4786577  64.2051010  55.5261192
  10.6765804  64.1479721  54.6026993   1.4550192   9.8676901  72.0656433
   0.8927191   9.1532669  72.3650589   1.9114537   9.5101538  71.3040237
  72.6746445  47.1020966  31.1230450  71.9642639  46.8068466  31.6926250
  72.8758926  47.9861908  31.4298191  64.6830368  26.7007198  15.3852301
  64.7615280  25.8897591  15.8876381  65.2396088  26.5624924  14.6188393
  45.2296410   3.5784457  73.4923019  44.4913139   3.3393488  72.9319992
  44.8662453   3.5843458  74.3778152  44.0879936  52.3294449  44.2243576
  44.5209770  51.8265610  44.9141846  44.3243256  53.2389183  44.4066849
  31.4039192  42.6798744   4.4546514  31.1772575  42.9979515   5.3285398
  31.0621929  43.3480186   3.8604798  50.2130089  19.6294079  88.5288773
  49.5443840  19.9458084  89.1363831  50.9214249  19.3190384  89.0928345
  52.2412033  54.9779663  58.4955101  52.8258018  55.0724716  59.2475395
  52.7858315  55.1977386  57.7396584  17.0865135  20.8278027  85.6083221
  16.4959393  20.2864304  86.1321259  16.5109081  21.4530067  85.1678314
  56.8088150  56.1836548  60.7804527  57.5070992  56.5715065  61.3078995
  56.4611359  55.4775963  61.3252754  76.7029953  10.0053244  73.2537003
  76.6036072   9.9230871  72.3052368  75.9740677  10.5640669  73.5233536
  85.2053375  32.3533897  52.6654015  85.7501984  32.5047684  51.8931046
  84.4989624  31.7879505  52.3530769  71.1750793  46.1346207  85.5771179
  70.4871445  46.4835701  85.0103531  71.5311966  45.3906860  85.0913467
  59.2830887   7.8621569  31.3906670  58.3314819   7.7863474  31.4608917
  59.5727272   8.0728550  32.2783318   0.8500916  32.1510963  11.0023308
  -0.0186109  32.3242111  10.6395378   1.3669211  32.9207077  10.7639627
  56.8741112  47.9153862  83.3145752  57.1681900  48.4127350  84.0777283
  57.6263618  47.9178505  82.7226791  14.1135044  43.7394905  17.7072220
  13.7260256  44.2232513  16.9777908  13.6995487  42.8772545  17.6695824
  79.7060471  58.4365005   3.2032671  80.3485413  58.9057198   2.6710432
  79.1072922  59.1169205   3.5110888  54.4463387  68.3119049  73.3318329
  55.3752518  68.1171646  73.2076035  54.1554298  67.6812897  73.9905701
   4.8259840  53.5273857  36.3402100   4.0225587  53.9553642  36.6361351
   5.1509023  54.0885162  35.6360893  71.1829529  14.7980375  36.1304741
  71.7049942  14.1516161  36.6057014  70.4233856  14.3079014  35.8157463
  47.4640427  63.3792992  34.6349449  47.8125038  64.2156677  34.3262482
  47.1383247  62.9490852  33.8443413  16.6881428  62.5728302  66.4614105
  16.7423725  61.6997528  66.0727844  16.9672852  62.4489517  67.3685837
  14.2935791   2.0155284  54.1228027  14.1684647   1.3007545  53.4985619
  13.6800718   2.6926830  53.8376694  66.6525345  11.9470158  33.3081284
  66.0981827  12.6586466  32.9879646  67.1356354  12.3305006  34.0401039
  20.3391399   0.4164546  58.6612854  21.1599541   0.3248357  59.1451263
  20.5279522   0.0494452  57.7976418  66.0267563   3.8791072  55.3311081
  66.4676361   4.6691170  55.6437492  66.0680313   3.2731075  56.0709000
  35.4009209  42.3040886  54.9059906  35.4328880  41.5306129  54.3430138
  34.8227959  42.9120407  54.4451180  20.1153069  67.7704620  36.7433052
  20.1309853  68.6792068  36.4430084  21.0368080  67.5434952  36.8680191
  11.4401073  17.8352871  14.3217106  12.0423841  18.3966713  13.8335085
  11.0818977  18.4039364  15.0032930  32.8543663  49.8526573  76.1945114
  32.2975121  49.4392662  76.8542480  33.6238670  50.1477089  76.6813889
   7.5622506  66.5060501  13.9165716   7.2527823  66.8736877  13.0887394
   8.3724937  66.0504074  13.6882677  45.7417107  33.0575905   2.0229285
  44.9186859  33.4898109   1.7947909  45.4745064  32.2390404   2.4410310
   4.4393902  12.0627232  12.2397337   4.6807671  11.9376926  13.1575222
   5.0811276  12.6899662  11.9066105  80.5743027  24.6445312  38.9927826
  81.4503937  24.2635365  38.9332428  80.5171585  25.2325649  38.2396698
  77.7998428  10.0181074   0.0351087  78.7024765   9.8852873  -0.2544544
  77.8501129  10.0022326   0.9908557  60.6659012  71.5922546  81.1085510
  59.9340096  71.1176987  81.5027161  60.8022118  71.1634064  80.2637177
  80.9803009  17.3249607  42.4958038  81.2264328  18.2125587  42.2353783
  80.1131058  17.4225311  42.8890953  19.3610649  34.2970009   7.5713396
  19.6218624  34.0133324   6.6951275  19.0677052  33.4957275   8.0050821
  40.2198563  67.6807556  87.2112732  40.9960289  68.2228394  87.3524399
  40.5335159  66.7821732  87.3132324  77.5314560  47.2552948   2.4100707
  77.9162292  47.8853569   1.8008083  76.7735977  47.7098694   2.7778349
  21.4359798  22.6164513  25.5124874  20.7871437  22.3387642  26.1591187
  20.9579563  23.2097492  24.9330711  76.1979523  50.4896393  25.5572491
  76.9591599  50.6782761  26.1060734  76.1528854  49.5338745  25.5305233
  86.0809860  63.5272903  79.5336761  86.3678207  64.1426849  78.8589630
  85.2230911  63.8530846  79.8059082  28.4855328  25.8716965  86.1849823
  28.6277828  26.7425861  86.5558548  28.9684467  25.8814945  85.3585892
  16.3577194  29.9160652  70.8543320  16.2635822  30.8519993  70.6771317
  15.7217159  29.7383308  71.5472565  76.1745377  43.2586670   7.9168639
  75.9731140  43.8415489   8.6489220  76.8632278  42.6838684   8.2508516
  58.2814407   7.8875718  51.6654320  59.1656151   7.5746512  51.4742622
  57.9872780   7.3429828  52.3955841  15.6063547  36.4959679  13.5075655
  15.0497198  37.0899544  13.0040064  15.9057503  37.0202637  14.2503366
  86.6780396  70.1417923  26.5700970  87.1940842  70.2165604  25.7673874
  85.7906494  70.3869781  26.3080578  70.7296524  44.8896027  38.0847321
  69.9102554  44.5597382  38.4535294  70.7735748  45.8005333  38.3754387
  60.1253777  31.0722733  67.0156326  60.0070572  30.2828979  66.4873123
  59.6484146  31.7524452  66.5401306   9.3821917  58.0929565  74.8202972
   9.4649658  57.5428963  74.0413132   8.4417057  58.1186409  74.9965363
  81.1936951  36.3500443  33.9200935  81.9262543  36.9249077  33.6984673
  80.5044861  36.5908470  33.3010292  46.6355438   5.3133736  53.6587143
  47.0294838   6.1849351  53.6964455  47.0415192   4.8998117  52.8968849
   2.8034863  50.8768005  63.4912872   3.6365314  51.3185539  63.3266029
   2.7122517  50.2593346  62.7655830  68.1101761  63.5207405   2.8732026
  68.4783707  63.8960609   2.0733254  67.6196136  64.2397766   3.2714026
  28.5447788  51.5888748  17.3979416  28.6167507  50.9794617  16.6633224
  28.5487976  51.0293579  18.1745720   8.4902973  57.7799606  18.5790424
   9.3591757  58.0021210  18.9135990   8.1055498  57.2277641  19.2596893
  63.7368698  24.3950539  22.3103924  63.8322182  25.2159557  21.8274212
  62.9546890  23.9876862  21.9382687  46.8351707   0.8863300  51.9060287
  47.3457642   0.1286958  51.6205177  46.6099815   0.6941410  52.8162994
   0.8420848  25.6862392  59.3447876   1.7891718  25.7523212  59.2227592
   0.7037122  24.7957077  59.6673355  79.3697891  21.2614689  38.0181847
  80.1245270  21.7178917  37.6463280  79.1562119  20.5870228  37.3734093
  51.4813080  65.0824356  25.0570087  50.5923920  65.3766479  24.8582668
  51.9960022  65.8882599  25.1014233   4.3672590  42.3502274  55.5468941
   4.3816690  41.6902924  54.8537064   3.4370923  42.5147858  55.7016296
  17.3206387  66.2355118   3.8729811  17.4898891  66.8151245   4.6157064
  16.4527397  65.8710098   4.0465326  55.0653954  61.5952148  40.9200897
  54.3786469  62.2568817  40.8375778  54.7007408  60.8175583  40.4975891
  25.9980621  56.8194580  88.6832428  26.3662910  57.5262032  89.2134781
  25.1229839  56.6795654  89.0450439   3.3671505  48.9477730  47.5116158
   3.9068689  49.6786766  47.8128090   2.7709706  48.7741547  48.2400780
  25.8963833  39.0730743  32.9531822  25.5106239  39.9052086  32.6793671
  26.5048523  39.3099480  33.6531029  78.9233627  64.3681564  87.6420593
  79.6291962  63.7221336  87.6159515  78.6208649  64.4291534  86.7359619
  55.9666367   7.9671493  77.8209152  55.4028625   8.7013226  78.0645981
  55.3588409   7.2609811  77.6014938  77.4036484  30.9982071  86.3579254
  77.4466934  31.4814739  85.5327988  76.5675812  31.2584610  86.7445831
  65.3319092  53.2135239  85.0416870  65.0311737  53.5337334  85.8921356
  65.6470108  53.9958305  84.5889893  35.2770576  33.3833961  56.2698860
  36.0980339  33.8464012  56.1029778  34.6460571  34.0767441  56.4631119
  48.7312775   9.4358091  37.1161919  48.9455833   8.5075865  37.0228767
  48.9935226   9.8271132  36.2829208  27.4190712  41.3678703  84.1775513
  27.4094734  41.7638359  85.0489578  26.6873341  40.7508583  84.1867676
  81.6579666  68.5998535  76.8053513  81.7465439  69.5464249  76.9166946
  82.2695007  68.3832169  76.1015549  80.1150284  28.0482769   9.0769854
  80.0468979  28.9340363   8.7205896  80.8426285  28.0949650   9.6971951
  52.2682533  45.5492363  30.3119144  51.4947128  45.1227417  29.9431705
  52.8082466  44.8279839  30.6350784  86.4405289  39.1260033  62.6682434
  87.3350449  38.9527359  62.9615822  85.9092178  39.0476341  63.4605789
  10.9832029  43.2226372   6.1304402  10.7474012  44.1495895   6.1677570
  10.1515179  42.7692947   5.9925580  33.2900963  24.4731789  84.7933502
  33.9165154  25.1886635  84.9024887  33.8105087  23.6788197  84.9133377
  54.7549400   9.8371716  85.2696457  55.5064583  10.0962524  85.8028717
  54.7672348   8.8802137  85.2873306  86.9473648   5.6550775  46.1490479
  86.9255219   6.3492780  46.8077126  86.1359406   5.7688155  45.6541939
   5.5087099  39.6950340  49.4770241   5.3496814  39.6390190  48.5347939
   6.2170072  40.3331375  49.5628624  70.0455170  55.6182327  71.5850525
  70.3775940  54.8046646  71.9646149  69.8383713  56.1680298  72.3407288
  31.4422340  64.7659073  20.4671059  31.6606522  64.0851440  19.8306427
  30.8239689  65.3340073  20.0074978  55.5037651  44.4542961   4.2738676
  55.2243156  44.6593552   5.1661072  56.3185272  43.9642906   4.3847160
  22.2580280  36.6314468  14.5612440  22.7904186  37.3480377  14.9066210
  21.3563480  36.9422646  14.6424713   4.5717564  58.8417664  82.4893723
   4.8712702  59.5908279  81.9741745   3.7207375  58.6171989  82.1131134
  66.2957611  29.3203526  61.6364288  65.6491852  28.6827145  61.3338013
  67.0893784  29.1083813  61.1450195   9.5273838  48.0055656  40.1538620
   9.1070700  48.5727234  39.5074081  10.3819494  47.8015976  39.7739296
  33.3834076  39.2019653  22.5592937  33.3952217  39.6507797  21.7139206
  33.8350334  38.3737411  22.3970890  32.5692177  59.7748947  54.0692291
  32.0942612  60.5420532  53.7496719  33.2477608  59.6222038  53.4115829
  29.6916008  48.0923347  82.3645935  29.3700714  48.6524887  81.6581345
  30.4936562  47.7034492  82.0157242  81.4808884   0.6081502  65.3485489
  81.7272797   0.0753669  64.5924683  81.7183456   0.0733046  66.1060410
  20.4831352  63.3604012  37.1818352  20.7214069  63.6239967  38.0706406
  21.2213936  63.6431198  36.6421356  40.7223396  30.9822140  78.7983017
  40.8118057  30.0468597  78.6157074  40.0539780  31.0299549  79.4818573
   3.4819067  13.4669075  67.5857620   3.1821067  13.1508684  66.7334290
   2.9865229  12.9496374  68.2207947  68.3849411  -0.3229143  45.7398148
  67.6675186   0.3092677  45.6964035  69.0461273   0.0236319  45.1406746
  69.0613785  30.8615818  45.5441551  69.2095108  30.6157379  46.4573097
  68.6050415  31.7015648  45.5932617  23.8097992  59.0077019  66.6460342
  24.3102455  58.2640305  66.9817963  23.0863094  58.6103096  66.1613922
  52.7959824  29.5490990  33.3154221  53.7038422  29.3783855  33.0646629
  52.7289047  29.2191563  34.2114525   2.3680291  71.4961014  47.6611938
   1.8376422  70.7514801  47.9448509   3.2707617  71.1832047  47.7195435
  52.7561111  19.6184216   5.7536988  53.5402145  19.1239071   5.5152349
  52.7835236  19.6646442   6.7093892  61.6131248  39.3480530  12.1126156
  61.2826996  39.8581276  12.8521261  61.4566574  39.9039536  11.3492537
  79.0162354  39.1164398   5.2570028  79.5221939  39.9275970   5.2094159
  78.1788788  39.3785515   5.6395755  53.5372658  63.6420135  39.9945564
  53.2992973  63.3214722  39.1245842  52.8093491  63.3746567  40.5557022
  50.1310120  43.7955360  46.8713760  50.9446793  44.2953491  46.8053246
  49.4559174  44.4562874  47.0259399  60.5207329  15.2152758  74.7251434
  61.3718605  15.6481524  74.6585770  59.8896027  15.8867960  74.4663620
  66.7559509  16.0971928  15.2257738  65.9831619  16.6602173  15.1806583
  66.5949860  15.4166861  14.5721436  45.4177475  24.3215885  14.1663246
  46.1125031  24.8659210  14.5367918  45.1357155  24.7936211  13.3828239
  36.7515297  20.9258308   9.5482531  36.0070343  21.2030029  10.0822344
  37.0182571  21.7169952   9.0801239  23.7419243  43.6547127  55.4069557
  23.7719975  44.3802414  56.0306015  24.3002853  43.9379501  54.6829109
  28.1140156  61.0211067  11.8142891  28.7159977  60.4009285  12.2256622
  28.0678082  60.7398109  10.9005232  17.9848156  52.3241959  26.4151859
  18.8343410  52.7501640  26.3007774  18.1966019  51.4551201  26.7558956
  24.4091015  23.2555199  76.0620193  24.5926704  22.5364017  76.6665115
  25.2692604  23.6229267  75.8586273  48.9080620  31.7935333  44.8728294
  49.4313278  32.4586906  45.3200302  49.2754555  30.9607353  45.1689758
  84.9901276  51.9483032   6.0442586  84.3086472  51.2761307   6.0428338
  85.6181183  51.6512947   6.7027764  64.7455521  53.1774712   4.9025288
  65.1270828  52.3026085   4.8298588  64.1855850  53.1309509   5.6774507
  12.7114782  48.6498489  67.1154327  11.8280106  48.5659256  67.4741440
  12.9037008  47.7871704  66.7479095  65.7718430  69.0853729  31.4934788
  64.8435287  69.1316299  31.7222347  66.1913300  69.7300644  32.0632439
  73.4367371  50.4555359   3.9639792  72.7886200  51.0368385   3.5661528
  72.9237747  49.7233887   4.3061285  78.3061447  40.9812508   2.5575082
  78.0657425  40.8653221   1.6382697  78.7133942  41.8468361   2.5912452
   9.6311283   2.1217713  55.3318710   9.5243530   1.3854184  54.7296944
   9.2707777   2.8720059  54.8590851  74.1916962  15.3033409  65.5944901
  74.8953476  14.8709116  65.1106491  74.6297760  16.0010128  66.0819016
  66.9240036  60.4386597  18.4176502  66.5610123  59.8552094  19.0840244
  66.4890137  60.1758156  17.6065216  68.9415207  13.5982962  17.1871471
  69.1829300  14.1109457  17.9586029  69.6941833  13.6783724  16.6012230
  50.3182259  29.4874859   4.2856135  50.3946571  28.9016132   5.0387030
  51.0858307  29.2893887   3.7491703  76.4123917  18.1401806  81.7004471
  75.7397308  18.7755337  81.9455566  76.7797165  18.4826069  80.8855515
  32.2695770  33.3688545  18.6421719  31.5539131  33.9186440  18.9612217
  33.0498352  33.9162254  18.7305756  75.6536179  27.8112183  11.8056946
  74.8938980  28.2079887  12.2318850  75.8211670  28.3696575  11.0465469
  15.9684544  66.9142914  35.9678345  16.4907532  67.3722687  36.6263924
  16.3445473  67.1878433  35.1311989  72.8103561  31.1610584  80.2552567
  72.5975571  30.2342491  80.3646698  73.4676208  31.3369923  80.9285202
   7.0211105  70.4473419   4.1817307   6.6775846  69.5684891   4.3425155
   7.4674163  70.3793335   3.3376820  86.2739105  60.5568275  73.0476837
  86.8064423  60.4931679  73.8405228  85.4446182  60.1402206  73.2820892
  86.5973129   1.9450902  80.7642059  87.4113693   1.4890568  80.5507050
  86.1962357   1.4108993  81.4497833  42.8207588  60.5922585  21.8823318
  42.9922104  59.7303886  22.2618256  42.0716667  60.4540215  21.3026924
  43.9797363  49.2877884  76.7546616  44.3151398  50.1808891  76.6765137
  43.3417435  49.3330002  77.4668121  26.3784256  43.2623940  34.2262192
  26.8636818  42.7145119  34.8431320  26.8965549  43.2340584  33.4218750
  61.8233414  71.1233826  10.0021191  62.5860291  71.4972763  10.4434147
  61.5038452  70.4513321  10.6041956  59.2425003  31.1565056  76.4417877
  60.0152740  31.4494019  75.9588165  59.5942841  30.6334057  77.1621017
  25.8661594  27.6465111  18.0690002  26.1229877  28.1745453  18.8249416
  25.0766983  28.0731697  17.7359123  29.3122692  67.8398972  49.3031883
  29.3511219  68.6431198  49.8223801  28.4496269  67.4721375  49.4951134
  27.4353676  19.4228096  69.5999298  28.2407246  19.7360821  69.1882324
  26.9894791  20.2185688  69.8900681  69.1995621   7.2297783  79.3039322
  68.7900391   6.9536047  80.1238403  69.9935913   7.6899700  79.5759277
  74.1133957  55.2051506  22.8819065  74.8627701  55.7836761  23.0232182
  74.2773590  54.4564209  23.4552746  56.4300079  13.2236319  87.2618484
  55.5200615  13.1345882  87.5452194  56.3709221  13.4428301  86.3319550
  49.7084465   1.4415450  41.3116341  48.7866402   1.1888720  41.2600441
  50.1680870   0.6289054  41.5227699  66.5400467  46.3119774  45.0234795
  66.6215820  47.2650452  45.0588417  65.9287033  46.0975838  45.7281265
  16.6431980   7.3377409  13.6449070  16.4526768   7.1955557  12.7176971
  16.3583145   6.5311332  14.0743933  12.7235565  53.5997391  45.8901138
  11.8411722  53.7769928  46.2160110  13.3024940  53.9005699  46.5905151
  84.1153183  22.3824558  60.8578072  84.1282501  21.4327564  60.9767075
  83.7320786  22.7199993  61.6673851  55.2808914   0.8896191  60.8132401
  55.8723030   1.6329596  60.6953125  54.5692062   1.2331163  61.3533745
  19.3805351  29.4113941  15.7792597  19.2818108  29.8810368  16.6074638
  18.8801708  28.6044292  15.9003973  33.9440079  54.7607536  69.4432068
  34.0185471  55.4425049  68.7754517  34.8491440  54.5503235  69.6727371
  40.4887390  63.3528976  75.0307007  40.9662476  64.0947342  74.6593628
  39.5956154  63.4539795  74.7015457  43.4395256  19.6763096  87.7969894
  44.1309280  19.0164833  87.7438278  42.6753693  19.1972141  88.1175537
  77.8457108  61.3204079  57.5451508  78.1432190  61.3605690  58.4540558
  77.2909927  60.5411758  57.5089188  60.7691727  25.9187679  21.0763531
  60.1630516  26.0619678  20.3494816  61.6228485  26.1805458  20.7314720
  76.0952835  63.8288689  28.3326893  76.3023911  64.1981049  29.1911774
  75.1795731  63.5590324  28.4026108  41.1079559  19.6454086  61.4854431
  41.7670937  20.3257542  61.3479843  40.8862152  19.7109280  62.4142952
  22.3994293  39.8807831  89.1588058  21.8312054  40.5804634  88.8366318
  23.2114830  40.3249474  89.4027786  66.4805527  40.2312088  75.7636948
  67.2011185  40.6537704  75.2962952  66.8933945  39.5098648  76.2385101
  83.9599915  15.1619587  70.6323700  84.8853760  14.9545965  70.7623749
  83.9472656  16.1037121  70.4615784  40.0460663  22.7987385  17.1819687
  39.1493340  22.8462696  17.5134010  40.0357323  23.3303680  16.3860435
  43.5382690  18.9703693  65.9956665  43.0232048  19.5633430  65.4485626
  43.9253616  18.3500366  65.3779449   5.7484813  21.0077286  59.7080460
   5.3014779  20.3227253  59.2108612   6.6610513  20.7210598  59.7436638
  55.4946594   1.8389815  25.2576790  54.9312897   2.1473179  25.9674492
  54.9001389   1.3864150  24.6593819  68.0632629  40.2457123  41.9169273
  68.9792786  40.0922852  42.1484756  67.9800720  41.1988373  41.8874779
  30.7432461  54.5456619  25.2822208  31.3282089  54.4983673  24.5260391
  31.2226315  54.1049767  25.9838047  38.3625870  33.9377975  14.1697168
  37.8480301  34.3676834  13.4865913  38.2006187  34.4595833  14.9556799
  28.8090515  41.1430283  58.7336464  29.3477001  41.9197273  58.8847275
  29.4398880  40.4308853  58.6281471   2.4242222  30.3243675  50.7345314
   2.4481647  31.0966587  51.2995300   2.5856009  29.5895500  51.3263359
  48.8034973   5.0959454  33.8199310  48.0708694   4.5173588  34.0314140
  49.4230423   4.5364876  33.3515282  12.5849895  24.8456078  74.8199768
  11.9637337  25.5532150  74.6480331  12.6958694  24.8499889  75.7707214
  67.9788513  63.7391815  44.5091286  68.8113480  63.2801247  44.6207237
  68.0248566  64.1075516  43.6268463  70.4632263  18.8561954  64.1090088
  70.1395111  17.9726658  64.2845612  71.2616348  18.7217026  63.5984306
  59.8462791  16.8193607  42.0519714  59.3417892  16.1234856  41.6306839
  59.2921295  17.5961914  41.9765930  55.4764252   2.9731810  57.9986839
  56.0209122   2.9566905  58.7857628  55.1876984   3.8829148  57.9262009
  42.7036591  29.6848030  57.8377266  42.9052620  29.1819515  58.6268578
  41.9719200  29.2165813  57.4357834  48.0410233  36.0026054  11.9203358
  47.3393707  36.2599144  12.5184212  47.7274017  35.1929665  11.5174017
  51.1928253  12.4873219   1.1801944  51.6388817  11.9264784   1.8147955
  50.2639275  12.3987932   1.3936069   2.5372574  32.4275436   8.1382818
   1.9369477  33.1091499   8.4403954   2.1559110  32.1197777   7.3160362
  42.1854858  53.6940689  40.8404236  42.9597244  53.1376686  40.7555313
  42.4538994  54.5358086  40.4720993  86.2434998  11.7748156  15.2854366
  86.2493286  11.2079163  16.0566845  85.4863968  11.4816475  14.7784033
  36.5291176  41.8156853  22.0305271  37.4803581  41.8516960  22.1309299
  36.1919785  41.8602600  22.9252777   8.9345207  46.9329720   9.7658138
   8.8581772  46.5324059  10.6318102   9.8682137  46.8840218   9.5607462
   4.2457070  36.7982674  36.0466156   3.7926118  37.6384544  35.9757500
   3.6759396  36.2648735  36.6007729  27.1098194  28.4608402  80.8914337
  26.9387169  29.0910110  80.1915436  26.7321625  27.6409245  80.5730820
  81.6640015   3.1850302  78.6367569  81.4936905   3.4913075  77.7460175
  82.6102982   3.0436890  78.6646118  70.8961029  11.5389442   0.7576817
  70.4931412  10.8617821   1.3011011  70.3676376  12.3207426   0.9181314
  46.3617020  62.7307129  17.6830826  46.3722420  63.3317986  16.9382248
  45.4605446  62.7629967  18.0041752  13.9545431  49.7185020  64.9847641
  13.6131277  49.4636917  65.8419342  13.2223148  49.5791359  64.3842163
  28.6537533  34.6968918  59.9498825  29.2587814  34.8306007  59.2202950
  27.8441734  34.3955994  59.5375328  55.9323502   2.7108848  63.5270653
  56.5486450   3.2588992  63.0411720  55.8422241   3.1457238  64.3750153
  72.6984634   0.7234616  48.1503143  73.0267868   1.4985783  47.6946526
  73.2655945   0.6379652  48.9166565   7.6157136  46.0588875  81.8229294
   7.5235481  46.9346008  81.4476089   7.0891848  46.0841026  82.6219025
  58.1929855  48.7245674  64.8089676  57.6476250  49.0700684  64.1022568
  58.8970070  49.3661308  64.9037399  54.9529991  17.6151390  58.7903290
  55.4786186  16.8896027  58.4533463  54.0978165  17.2263165  58.9739227
  43.5511589   1.9646252  20.2085209  42.8286629   1.3802347  20.4381180
  43.1581573   2.6134593  19.6247444  52.5833588  30.2285900  14.0562382
  52.8158989  31.1420021  13.8893976  53.2202950  29.9343777  14.7073784
  18.4508572  50.7061577  80.6634369  17.9739017  50.0920601  80.1051941
  17.7672825  51.1774216  81.1397400  12.4803391  14.4884748  59.3323021
  12.2768955  15.1780472  59.9642296  12.0467749  14.7672338  58.5257378
  61.9498138   0.2059489  42.6493187  61.2972069   0.5988529  43.2289391
  61.5737305   0.2903208  41.7731476  25.6934319  48.7507820  33.7128296
  25.6539097  47.8808212  34.1101189  24.8529510  48.8480835  33.2652206
  36.0579376  13.2963638  19.0393658  36.7410202  13.9661741  19.0079575
  36.4669075  12.5191650  18.6586552  56.6509209   9.3501968  63.2968636
  57.3212357   8.6700106  63.2316360  55.8235893   8.8831024  63.1803284
  82.2598419  34.3412094  60.4411430  81.8143616  33.6572990  60.9411926
  82.0064468  34.1773071  59.5327606  74.8404770  11.5513163   8.4101610
  74.9275589  11.0607262   9.2274551  73.9020462  11.5384855   8.2219410
  57.0179291  61.4260063   3.9349322  56.9715271  61.0415688   4.8103113
  56.7814178  60.7095642   3.3458610  38.8592491  18.9448338   1.3055837
  38.0143509  19.3885975   1.3793885  38.7212029  18.0956001   1.7250801
  25.0659809  49.0780334  18.8698940  25.5714378  49.6808739  18.3246136
  24.6123638  49.6434784  19.4949837  30.0551662  34.9532700  57.6801224
  29.8084507  35.4367981  56.8917274  30.9926376  35.1192131  57.7793236
  61.1972122  68.3514709  64.8806686  60.5461464  68.9562836  64.5249252
  60.8127670  67.4840622  64.7540054  59.1412010  67.7555389  62.6302490
  58.3996315  68.2197266  62.2418671  59.4448395  67.1678543  61.9383965
  50.9263535  16.6819668  67.4513779  51.0646172  15.8689013  67.9372177
  51.6845055  17.2237091  67.6703491  28.3571415  57.2219048  57.1833382
  28.0278015  58.1028404  57.0052414  29.2936649  57.2731400  56.9922066
  41.9848938  23.2304287  81.8160629  42.0417328  22.2836266  81.6873474
  41.8942719  23.3384247  82.7628174  47.8157806  65.1951523  37.8165932
  48.1088638  66.0863190  38.0067520  46.9429626  65.3054276  37.4394150
  55.8971786  37.3060608  40.3042870  56.3322105  37.4451981  39.4630852
  55.8415184  36.3543892  40.3906326  81.5555344  69.4066772  55.6821785
  81.9911652  70.0724030  55.1499443  82.2714157  68.8944397  56.0581551
  60.0217361  53.7179184  43.1823006  59.1751060  53.9989128  43.5294228
  60.1402245  52.8329277  43.5272369  56.5026627   7.7871642  15.5365686
  57.2474022   7.2350445  15.7748137  56.4860229   8.4695311  16.2076359
  54.5976295  30.2119808  37.3788757  54.8379936  29.4019508  37.8286629
  54.8371925  30.9066849  37.9922485  83.6935577  16.6414471  30.9189091
  83.3634567  16.2916374  31.7464943  84.6308441  16.4477844  30.9338894
  74.5110245  67.6322632  68.3310699  74.7045593  67.8430710  67.4176483
  73.5828323  67.3983688  68.3314133   7.6113124  30.2936535  60.4650269
   6.7520199  30.7139854  60.4308319   8.2336245  31.0209236  60.4711113
  27.8488312  41.2373047  63.0434723  27.7662392  40.7010193  63.8320198
  27.5749340  40.6595612  62.3311310  17.2092628  42.3157349  67.5615387
  16.7208157  41.5596962  67.2358856  17.9965401  41.9404449  67.9559860
  51.7965202  65.9654465  69.0865936  52.4996033  65.5300293  69.5685883
  52.2491760  66.5517960  68.4803467  39.7801971  25.2745190  71.4666595
  40.6375809  25.6958370  71.4065552  39.1586685  25.9603615  71.2226257
  14.0741653  57.0573311  79.2900314  13.8385286  57.1085014  78.3637009
  14.5925455  56.2558212  79.3613892  84.6889420  13.9973660  63.0565834
  85.0109406  13.9117079  63.9539185  84.1818008  14.8091717  63.0605659
  56.1547356  53.8464813  50.6545486  56.5176582  53.8044167  51.5392799
  56.8268623  54.2945328  50.1410103  55.4355125  57.9309006   8.9968424
  54.6215248  57.9810448   9.4979858  55.4337387  57.0489883   8.6247339
  37.5921173  71.1612396  75.9041367  37.0661392  71.9555740  75.8112946
  36.9574013  70.4464874  75.8541031  57.9347687  46.0596313  58.4496765
  57.0425339  46.3968811  58.3696060  58.4708672  46.6812401  57.9573059
  62.9811859  32.5862770  60.3067474  63.6582222  31.9202633  60.1872482
  62.4293633  32.5092010  59.5284271  25.4216518  16.1607246  81.4044113
  24.7807980  15.7301931  80.8385620  25.3658600  15.6861801  82.2338257
  76.9451370  19.2121048  54.5925446  76.8480301  19.1568451  53.6418877
  76.0871735  18.9625492  54.9358482   0.0131793  69.8795700  12.1323805
   0.7662429  69.2907028  12.1810017   0.1559137  70.5097351  12.8386002
  33.8592720  62.5071182  21.5802956  33.2979851  61.8923264  22.0527573
  33.4728928  62.5610466  20.7062054  16.3077374  32.5906296  68.4830246
  15.5197172  32.3199310  68.0118790  15.9852343  32.9088287  69.3262177
  28.6514759  21.4649105  76.5554276  28.3187599  22.3320160  76.7870712
  28.8746414  21.0619850  77.3945236  85.3534851  20.9642982  57.9396057
  85.0503235  20.4766769  58.7054710  85.2386780  21.8836403  58.1801491
  25.1429062  61.1874580  23.4358749  25.1354370  60.5843506  22.6926136
  25.8520947  60.8699265  23.9948540  46.7761841  20.6840229  17.6748104
  46.5936127  19.8206253  17.3040733  47.1596069  20.5002422  18.5323887
  86.7957764   5.0955596  58.5574226  85.9727631   4.6171212  58.6572952
  86.6611404   5.6451845  57.7854004  52.2975349   3.9937668  60.0908051
  52.3932152   4.7183018  59.4726410  51.4030190   3.6807394  59.9563293
  51.6519852  24.8938351  81.4638824  51.7311516  24.8386002  80.5115585
  50.7399292  25.1422997  81.6143875  39.7072678  56.3157120  55.8741035
  39.9778519  55.6626396  56.5194817  40.2437553  57.0835991  56.0709801
  68.9322052  15.7121334  72.6880875  69.4130936  16.4345913  72.2843170
  68.2227325  15.5237064  72.0737762  65.5479202  24.5418339  62.2445831
  64.8320007  23.9082203  62.1974068  65.4535522  25.0693378  61.4514465
  10.3981314  33.9475517  77.1818695  10.4470158  33.4214134  76.3837280
  10.8243341  34.7729759  76.9510880  16.8188419  30.1771622  61.8550644
  16.5464592  31.0767174  61.6738396  16.1009331  29.8086357  62.3698730
  84.8477936  21.9918861  78.0270386  84.0947418  22.3092480  77.5286102
  85.0825195  21.1649971  77.6058578  39.2120819   6.8665667  55.7058754
  39.3906403   5.9805751  56.0211029  39.6215744   7.4387493  56.3548431
  12.6777840  17.3990135  50.2761421  12.4612083  18.1414928  49.7121773
  12.4099131  17.6773262  51.1519356  66.3345108  17.7678890  58.9921036
  65.7165985  17.5866280  59.7003098  65.9514236  18.5097656  58.5240211
  64.5553665  52.8618202  27.6940670  64.4111328  51.9358749  27.8891525
  64.5799484  52.9041786  26.7381210  52.5301056  -0.0066627  84.5569382
  52.7182846   0.8407412  84.9603271  52.8664894   0.0730055  83.6643372
  59.8331184  51.1390877  65.1386871  59.8203621  51.7184982  64.3768768
  60.6420250  51.3649902  65.5978928  74.8737717   8.2090025  82.9841537
  74.0101852   8.2732964  83.3919754  75.3532639   8.9672918  83.3177948
  46.5113258  60.5738449   0.4662157  46.1046753  60.0802803   1.1784375
  47.0457001  61.2343407   0.9071475  27.5574856  48.9907227  39.1247559
  26.7215290  48.6191254  39.4064026  28.1805058  48.7160301  39.7975311
  81.1075363  30.1185513  69.1220016  81.6564178  29.5868530  68.5455780
  80.5854034  29.4817467  69.6099396  67.7290421   5.9590812  76.8309784
  67.9532776   6.4179368  77.6405487  67.0076141   5.3796597  77.0760193
  58.8828392  29.7282867  81.3947678  58.6507149  30.5373516  81.8505783
  58.2164040  29.6374187  80.7137070  63.6498756  32.5483284  66.8312759
  64.1240692  33.3728790  66.7240982  62.7682533  32.7353897  66.5088043
  84.5491257   1.4039030  43.3608093  84.5961075   2.1173024  42.7243462
  85.2762451   1.5699252  43.9607811  52.8422241  54.3039589  35.4528236
  52.7075043  53.5689926  36.0510750  52.4217987  54.0295753  34.6378479
   7.9647398  33.2004471   7.8293142   8.0888281  32.2597046   7.9551787
   7.0408177  33.2910767   7.5961061  74.8089371  50.7661514  73.7525406
  74.2664795  51.5546494  73.7680130  75.7082291  51.0938873  73.7625351
  78.3959656  42.6924019  55.7089005  78.6993332  41.9908447  55.1326942
  78.6209641  43.4983063  55.2440147  52.3509789  60.4499130  27.7105865
  52.7084084  61.3367729  27.6664009  53.1183281  59.8797455  27.6624889
  65.9333267  63.3750458  79.1361923  65.8929825  64.3308334  79.1034088
  66.1854095  63.1154251  78.2500305  30.1711216  43.8987923  23.0059738
  30.2103043  44.0718231  23.9465885  30.6288261  43.0652733  22.8965015
  53.6324806  42.5769119   4.5615821  53.7601891  41.9247589   3.8726573
  54.2180672  43.2954330   4.3227429  26.1530571  67.2473602  24.9385757
  25.2965717  66.8642654  24.7490997  25.9576874  68.1369171  25.2331066
  66.0076828  19.8478622  53.6828308  66.4112854  20.2128429  54.4703140
  66.1575089  18.9049892  53.7519150  68.2358704  11.8553238  14.2936287
  68.3355408  12.1235113  15.2070684  68.5204773  10.9415188  14.2798824
  36.8854179  11.7759771  82.9757843  35.9572639  11.8046007  83.2080460
  37.2052650  10.9630470  83.3670273  13.8383217   8.5167227  80.6350250
  13.9371786   8.3421621  79.6990814  14.6689501   8.2371006  81.0198669
  75.5673218  59.9267731  15.2294226  76.3862762  59.5429649  15.5428438
  75.1774750  60.3269653  16.0066605  43.5670891  36.8777161  32.0311241
  43.7653618  36.6919365  31.1132984  43.1831093  37.7544594  32.0205002
  29.4686813  57.3098717  17.3953495  29.7910252  56.4314384  17.5970306
  30.2022572  57.7389221  16.9548798  66.8586273   6.2175531  39.6017990
  66.3248596   5.8658586  40.3142853  66.2377243   6.3675699  38.8889160
  64.8077545  21.9066467  62.1159401  64.6885910  20.9853764  62.3467941
  65.7560196  22.0363789  62.1300468  65.3043060  65.1275864  84.2083435
  64.9031296  64.2934647  83.9643631  66.0721283  64.8821564  84.7245331
  14.7816343   6.3098054  20.5551090  15.4891129   5.9822440  21.1104546
  13.9814329   5.9977274  20.9776211  76.9954910   7.3631706  31.0458755
  76.5874176   6.4996238  31.1090870  77.9248352   7.1794558  30.9087715
  72.2588196  28.0265770  78.1196671  71.6919174  28.7930908  78.0341797
  73.1329193  28.3495502  77.9008560  80.3437347  21.7448997  25.2181492
  80.6748428  21.3215370  26.0102100  81.1295776  21.9656677  24.7181969
   5.1806293  32.8043404   7.8438969   4.2973757  32.4736061   8.0073261
   5.5320649  32.9893456   8.7148151  35.6668625  17.5382595  84.8123627
  36.2999344  18.2077522  84.5530701  34.9018745  18.0329647  85.1061172
  72.6162033   5.4625201  25.2683125  72.7782822   6.3100514  25.6826229
  72.9978027   5.5462189  24.3944626  75.9200058  25.4020214  64.5617599
  75.1582565  25.0361061  64.1122284  76.6684723  25.1089115  64.0420380
  18.5890083  16.1050739   3.4082286  18.2119102  16.1229267   2.5286207
  18.1313820  15.3901157   3.8505473  34.8130722  32.7361641  66.4053802
  34.8735771  33.6780815  66.2461243  35.0239944  32.6361656  67.3336792
  52.7392540  22.1542549   4.2007093  52.9544830  21.3862896   4.7299876
  53.4691467  22.7565556   4.3446631  72.1904755   9.3749352  38.3154984
  72.9675598   8.8752460  38.0651436  72.4811554   9.9191265  39.0473366
  81.3861313   8.3966618  15.2928314  81.0223007   9.0601130  15.8790836
  81.8369370   7.7844419  15.8743773  62.6269379  35.4703331  19.9031448
  63.3342896  34.8307114  19.8208656  61.8274345  34.9622917  19.7655888
  26.7166939   5.4562564  80.8288269  26.7520218   6.3509269  80.4903793
  25.7818298   5.2597151  80.8890839  76.9800873  52.9077797  47.2200508
  76.1848373  53.2319527  47.6428032  77.1606903  53.5449181  46.5289154
  56.2845116  42.9451904  44.8436890  56.8496704  43.4777069  44.2840004
  55.6432724  42.5644989  44.2435913  62.2547035  17.1943913  47.9373779
  61.7261887  17.0303974  48.7184105  62.2766762  16.3527451  47.4819908
  58.0611267  46.3030815  29.1440811  58.8990479  46.4509544  28.7056179
  57.4165192  46.7283287  28.5785027  85.4649963  39.3718300  19.3922348
  85.9406204  39.1366844  20.1889286  85.7457275  38.7241821  18.7457237
  37.2006645  58.4456673  -0.1099407  38.0054779  57.9344215  -0.0254819
  36.9526596  58.6525421   0.7911292  71.4034500  12.9731674  21.1760025
  71.7699127  13.2829256  20.3477612  70.6359863  12.4607973  20.9216099
  60.7447701  61.6590195  84.2566147  61.3410339  60.9103546  84.2707672
  61.1084137  62.2670364  84.9002838  29.7453175  52.4001198  11.4832230
  29.1432972  52.9070625  12.0280256  29.2313271  52.1689758  10.7095175
  60.8625526  33.1579933  27.0385017  60.0128670  33.5195389  27.2905941
  60.6819572  32.2397842  26.8372402  59.4842796  42.8863449  62.8032341
  60.4341698  42.9850998  62.7385445  59.1820335  42.8771248  61.8950539
  82.7882156   1.3374413  19.9635525  83.0909805   2.2172027  19.7386417
  83.1872559   1.1571214  20.8147182  17.5415535   5.6254992  86.1702118
  17.5594654   4.7866406  86.6308899  17.6357327   5.3934493  85.2463531
  55.9477348  11.9388771  33.0111923  55.2616806  12.5196304  33.3402596
  55.8526382  11.9711523  32.0592728  54.4212265  34.8353233  12.0380392
  54.1573029  35.4751701  11.3768492  54.3900299  33.9938278  11.5829020
  61.8866577  13.8767986  39.8616295  62.2429047  13.1231976  39.3910904
  60.9902916  13.6212606  40.0794830  60.2104301  22.4004440  16.3834038
  61.0683441  21.9977932  16.2489281  60.3918076  23.3388538  16.4355659
  80.0177765  61.3552742  41.4622841  79.0844040  61.4756012  41.6371574
  80.2582092  60.5792961  41.9685211  74.2625275  42.2007446  29.6437092
  74.7382584  43.0225639  29.5231800  73.4600677  42.3115120  29.1337833
  15.6914701  48.5112000  34.7733727  15.9228840  47.9211121  34.0560989
  16.4601269  49.0715866  34.8799706  73.6321793  31.3953133   3.9909217
  72.9260864  31.3771019   4.6369328  73.9170761  30.4841175   3.9217439
  69.9324570  30.7684803  48.1986580  70.7906952  30.6795464  47.7842293
  69.9051132  31.6764736  48.5003738   1.3798101  69.0551910  48.4427299
   1.3289384  68.2906494  49.0164185   0.6000205  69.5674438  48.6566315
  43.8116989  55.0253448  70.8450928  44.6524925  54.6967888  70.5267410
  43.5332489  54.3804855  71.4953613  57.0516090  14.4278021  42.6114769
  56.4179993  15.0526104  42.2587929  56.5529976  13.9137239  43.2465668
  52.4048805  24.9416256  43.4460564  53.0004997  24.3594837  43.9178391
  52.8011208  25.8089085  43.5300217  21.2142582  57.0481949  28.1598225
  21.8047047  56.4288521  27.7308483  20.8718796  57.5863190  27.4460773
  60.6597939   6.8378987   7.4555798  60.7053947   7.5670886   8.0739927
  61.3162308   6.2160711   7.7696681  11.4514179  20.4965515  10.2846508
  10.7471437  20.4872952   9.6364660  11.6026087  21.4251728  10.4608145
   1.7196262  39.3131676  27.8156700   1.5052456  40.1792374  28.1623707
   1.5999058  38.7214584  28.5584888   3.1248245  52.1586494  30.6003666
   2.4631729  52.4569244  31.2244492   2.6207693  51.8208809  29.8600464
  37.9437294  23.4555607   3.5411203  38.2802811  22.6386909   3.9094815
  37.6465378  23.2177277   2.6628573  24.5807457  55.4714546  65.4119415
  24.8149796  56.1228294  64.7508240  23.6421547  55.5979424  65.5507965
  63.0258713   1.7521609  73.4496689  62.1171684   1.4630136  73.5326385
  63.0772438   2.5392165  73.9920120  46.8927116  23.8824158  80.4802170
  47.4336548  24.4456673  81.0337143  46.0754814  24.3684616  80.3700943
  81.7244873  39.0250320  29.3379631  81.7498779  38.3309555  28.6792965
  81.0446472  39.6237907  29.0288754  57.2835693   6.2497959   5.8165307
  57.4506378   6.4033542   6.7464442  57.7370338   6.9650431   5.3704100
  79.9086151  24.0410137  61.1583023  80.2558441  24.3570442  60.3241615
  79.9083939  23.0877228  61.0718842  39.6227150  55.4777946  31.5667057
  40.4009666  54.9292870  31.4682598  39.9508057  56.2932739  31.9456310
  74.9773712  28.9763565  47.4001656  74.6413574  29.5735054  48.0685577
  75.9228210  28.9582920  47.5485916  69.4870987  70.6529465  52.2854767
  70.2691498  70.3519211  52.7480888  69.4198990  70.0735703  51.5265007
  58.4326134  34.4642410  27.1922493  58.1713829  34.7513580  26.3172894
  57.7165146  33.8993874  27.4827175  84.3443604  28.0662212  55.1836586
  84.9517517  28.0663033  54.4438591  84.8034134  27.5826111  55.8704033
  52.3205109  65.0883102   5.7007494  51.6315346  64.5428772   6.0802760
  51.8684921  65.6287689   5.0528197  46.8829842  38.3988571  52.3398705
  46.6092300  37.5752754  51.9361305  47.4708710  38.1348572  53.0476303
  12.7227297  56.4801216  36.3457565  13.3574400  55.9009628  35.9239197
  12.6893387  57.2514801  35.7799644  67.6462631  59.8989601   1.8580925
  67.7155151  59.1807938   2.4871175  67.1666183  60.5821838   2.3264761
  77.0078735  60.4092751  26.4198341  76.7464066  59.5840416  26.0113544
  76.2744217  60.6365891  26.9913311  43.0469475  31.4974594  23.7684536
  42.3985023  30.8152046  23.9424591  42.7400169  32.2530289  24.2695942
  53.8256874  23.4544106  71.5732803  53.9299049  24.3069057  71.1506424
  53.6921043  23.6604729  72.4984436  13.4255896  46.4402809  37.1855965
  14.0163679  45.7294464  36.9367447  12.8082523  46.5048294  36.4569283
  25.5588169  29.9011402  19.7719955  24.6589737  30.1484814  19.5590725
  26.0990410  30.5436821  19.3120728  75.6430206  33.1584778  42.2406044
  76.4913025  32.7584152  42.0492668  75.5501251  33.0804672  43.1900864
  80.6481705  53.9003448  57.2467766  80.4525833  53.8169518  58.1800613
  80.1984253  53.1593781  56.8406677   3.4671850   4.4016747  32.0885468
   2.8301480   4.7608366  31.4709549   3.6886477   3.5417290  31.7312222
  13.4320698  56.5171204  82.3403549  12.7075367  56.7894554  82.9034805
  13.4083939  57.1306877  81.6060486  77.4586029  16.7658978  51.3103752
  77.5472336  16.1431122  52.0318413  77.0212631  17.5230217  51.6998978
   6.0065479  56.7121162  25.8538132   6.4228635  55.9501648  25.4508972
   5.1633267  56.7884064  25.4072819  21.4896107  46.5744629  45.5125427
  22.0915947  47.1403465  45.0291977  20.8039207  46.3588409  44.8804283
  51.9295006  47.6561394  19.9434223  52.7582283  47.9104805  19.5375290
  51.7349129  46.7957458  19.5718174   2.9658151  18.2851238  54.3633919
   3.7541647  17.8321228  54.0641823   3.2647612  19.1681900  54.5803146
  68.6492157  31.0742798  54.3286934  69.1748047  31.6736965  53.7988968
  68.7656555  31.3836746  55.2269974  25.4573078  40.8298721  87.6160126
  26.1688156  41.4588852  87.7357254  25.0714989  40.7360420  88.4869766
  73.2154388   6.5787711  43.6908569  72.3973083   6.3113308  44.1096268
  73.8767700   6.4868884  44.3767319  27.5385056  22.2639370  12.5414667
  27.5039043  22.7704201  13.3529520  28.4616642  22.2789993  12.2889080
  30.2586956  51.7794800  37.2185211  30.5372219  52.3832703  37.9070625
  31.0068073  51.7336082  36.6231575  64.4795685  20.2866535  74.0582352
  64.8207626  20.2854786  74.9525528  63.6018181  20.6602135  74.1372452
  85.7855530  57.5073204  42.2564163  86.6318512  57.1239853  42.0260620
  85.4421310  57.8444405  41.4289856  79.0798492  62.8072815   5.0485458
  78.4199905  62.1235809   4.9329062  79.2396164  62.8288193   5.9920721
  65.8528519  16.9704914  64.1749954  66.4658127  17.1829185  64.8788300
  65.1781769  17.6470413  64.2326431  61.1556206   3.9151711   3.6280293
  62.0192070   3.8768258   4.0391064  60.8039131   3.0304091   3.7266591
  79.9413223  68.3828125  78.7888184  80.5864258  68.1219330  79.4460983
  80.4582214  68.5593414  78.0027618  55.4487610  64.1452637  53.4233971
  55.7970695  64.4518433  52.5861855  55.4518967  63.1909599  53.3490791
  82.0243301   8.5864496  62.8508034  82.1673813   7.9866400  63.5829239
  81.9197235   8.0150881  62.0899925  13.2904129  20.2225285  77.1178589
  13.6181898  20.1986961  76.2188416  12.3406706  20.1433372  77.0286942
  68.0826035   2.6336896  32.1061478  68.2548599   2.7842934  31.1766987
  68.8921814   2.2474539  32.4402695  14.1342506  69.9838791  47.5772324
  14.5055428  70.6880951  48.1086922  13.2139044  69.9470062  47.8376846
  17.0948677  11.5652237  74.4545593  17.9071846  11.0613775  74.5046616
  16.4029331  10.9038677  74.4463272  59.2096405  60.6782990  38.2244034
  59.1935921  60.4159660  37.3039932  58.8291512  59.9348030  38.6920319
  70.8316193  11.2623491  48.4180489  70.5599594  11.0105534  49.3006783
  70.2723694  12.0075912  48.1987724  39.7046394  19.7369709  81.5188293
  40.4144897  19.0976963  81.4582214  39.8528290  20.1809864  82.3537674
  60.1215630  44.9843712  38.9937248  59.5289879  44.9790840  38.2420197
  60.5602913  44.1343536  38.9588356  22.9449806  28.5732651  86.1344681
  23.7388859  28.2741718  85.6912003  22.4076748  27.7857990  86.2206802
  60.4339409  47.5923538  52.7668915  60.6364937  48.0323181  51.9412804
  60.8588181  46.7377739  52.6934166  44.3981514  44.5540733  11.9822302
  44.9624519  45.2394753  11.6244230  44.9958839  43.8358650  12.1898918
  75.9926071  35.0257874  59.3213425  75.8064957  34.1371613  59.6245575
  76.8621368  35.2208939  59.6707611  51.1292953   6.5293460  49.3405457
  50.6001549   6.8937068  50.0501137  51.9885597   6.3799052  49.7349586
   7.5434904  63.9822884  15.6932592   7.0007544  63.7265015  14.9474440
   7.2508593  63.4164238  16.4076786  18.1222744  55.9035339  41.9003105
  18.7856178  55.2136345  41.9158478  17.2956562  55.4381638  41.7723808
  49.0914459   9.7934742  30.6772232  49.2168236  10.4549103  31.3576756
  49.2367249  10.2638330  29.8563175   4.1759715  47.6448250  75.4961090
   4.3890486  48.4436302  75.9785461   4.4884782  47.8115273  74.6068497
  55.1042786  39.0648918  80.4950638  55.9483223  39.0994568  80.9452057
  54.8218040  39.9781075  80.4452972  36.3445969  56.2137718  26.9341450
  37.1499977  55.7093887  27.0488472  36.5862541  56.9171677  26.3315964
  40.8273735   0.5598027  18.3085022  40.4527969   1.3635311  17.9480209
  41.7409248   0.5722753  18.0230274  32.5289841  34.4497681  83.7541046
  31.5962925  34.3193779  83.5828781  32.6275864  34.2739487  84.6898422
   3.4884384  20.5950203  61.2978477   4.2677913  20.8106213  60.7856407
   3.5099623  21.2052059  62.0350342  52.6576424  63.7655945  61.9860802
  53.1484032  64.5781250  62.1092873  52.2707100  63.8492889  61.1145782
  40.6539879  28.4417782  85.3723450  40.0722122  28.9497242  85.9378204
  40.2903976  28.5520611  84.4937820  57.2615738  38.2295799  27.4922352
  56.3567619  38.3991585  27.7545223  57.4279480  38.8555069  26.7874165
  56.7540359  59.4571648  44.6673355  56.8106651  58.6209564  44.2049713
  56.0393867  59.3371429  45.2927170   2.4582868  41.6342049  17.5512486
   2.8289723  41.4698296  16.6841812   2.7338159  42.5257568  17.7644348
  34.4430580  51.2730522  15.4182644  34.6698341  50.3572960  15.5801134
  33.8562164  51.5052681  16.1379356  61.5820694  26.2692280  84.0727768
  61.2428970  26.4453316  83.1951828  62.3413849  26.8460293  84.1563034
  33.2215424  64.2648697  12.6372013  33.7883186  64.1576767  13.4010773
  33.8262520  64.3936691  11.9064693  23.8981972  30.0847244  77.4851685
  24.4139671  30.1648502  78.2875290  24.4703522  29.6146965  76.8785858
  11.9568300  71.6377640  12.8130550  12.9031343  71.6033325  12.6732159
  11.6965504  70.7224579  12.9165239  68.5053329   3.7059081  23.2911568
  67.7528076   3.8861666  22.7277355  68.4272690   4.3389668  24.0048618
  38.0301666  58.0008965   5.1109905  37.1880112  58.2853470   5.4660907
  37.9847260  57.0448570   5.1234345  51.4061546  55.5706367  72.9841080
  51.9571114  54.8069839  72.8123016  52.0146484  56.3095284  72.9855957
  77.9817963  37.1083679  41.9425888  78.1515045  36.3926697  41.3300476
  77.6800537  36.6742210  42.7405243  63.9833794   8.4344349   7.2311854
  63.1578217   8.7827845   6.8945265  63.8623772   8.4068098   8.1803045
  64.5681686  21.3118229   9.1722879  63.9100876  20.7684727   8.7387762
  65.3522034  21.2154903   8.6316938  61.2860527   1.1225773  68.0681229
  60.9945831   0.3342758  67.6100235  60.6174660   1.7774221  67.8671188
  45.5900650  27.0183678  16.5303535  45.4257011  26.9178638  17.4679642
  45.9211617  27.9118900  16.4396591  52.2893295  44.2262383   9.9831886
  51.8176079  44.1859474   9.1512709  53.2086067  44.3188705   9.7330256
  25.9386940  26.7705078  69.0835037  25.2027588  26.3742390  68.6170273
  26.5697460  26.9856091  68.3966751  84.4418716  63.0169830  83.4579239
  84.0530548  62.6928635  84.2703323  85.3845901  63.0086479  83.6235809
   3.3718302  32.7074242  19.6302834   2.6705377  33.1543884  20.1042500
   3.5984161  31.9613094  20.1854458   8.7014332  11.7811670  19.4255466
   8.3448544  12.5375156  19.8914013   7.9320793  11.3268528  19.0821438
  49.1258583  46.4760666  85.2451324  49.5954971  46.1928635  86.0296478
  48.2814369  46.7876320  85.5708694  19.5172501  38.6898460   0.3684298
  19.9905453  38.4383163   1.1614977  19.5395718  37.9071922  -0.1821964
  41.6112709  41.5659218  41.5474701  41.3438988  42.3074951  42.0904312
  42.4597626  41.3020859  41.9034004  83.2446899   7.5852184  24.5658340
  82.7657776   7.3843250  25.3698959  84.1321487   7.2660880  24.7295589
  72.6689758  65.2298050  21.5950794  72.1851807  65.4744949  20.8062229
  73.4259796  65.8155670  21.6031399  32.7041969  54.8525772  65.6942215
  32.2825737  55.5206490  66.2347260  33.6318245  54.9094467  65.9233627
  41.2865791  66.0737457  62.2804642  41.0021667  65.2550354  61.8741913
  40.4842644  66.5880432  62.3700333   4.8132143  45.1693687  49.7364540
   4.6505799  45.0473976  50.6718178   5.4904690  45.8446541  49.6971588
   3.1943815  51.3600960  81.3796310   3.7411213  51.0183067  80.6721802
   2.8152289  50.5812721  81.7869492  38.4182816  44.3069687  34.3017578
  37.6467705  43.8797417  33.9296303  38.0644875  44.9274559  34.9389839
  68.0972137  15.8809156  49.5461731  67.6599884  15.1565638  49.9938126
  67.4255371  16.5592194  49.4755707  79.8409958   5.4823179  39.5490265
  79.4046402   5.8279681  40.3277130  80.5467758   4.9348574  39.8931160
  58.9215584  62.4377670  56.3822021  59.0801277  62.5564651  55.4457207
  58.2625351  61.7450523  56.4276237  36.4489326  57.6973152  37.6809502
  36.7046585  57.8498878  38.5906525  37.2298012  57.9166222  37.1726379
  20.1094494   9.3735123  21.0823708  19.9381065  10.3073273  21.2042828
  19.9601402   9.2224569  20.1490326  47.1069336   7.8359609  70.2912445
  46.8476028   7.0145011  69.8738937  46.9214935   8.5072308  69.6345596
   7.3735995  41.6971054  50.0489159   7.4823556  42.4621086  50.6138687
   7.9920282  41.0537758  50.3951950   5.3643494  43.7332458  32.8819504
   4.8101463  43.4902496  33.6235962   6.0280805  43.0446320  32.8431816
   9.3614426  19.0412998  53.1406479   8.5840082  18.8423119  53.6624069
   9.0228510  19.4995937  52.3715210  25.3640594  62.0361786  32.4306183
  25.1992188  61.7282333  31.5394249  25.7258472  62.9150925  32.3172493
  19.8183403  53.2334404  83.7810516  19.1238899  53.3422394  83.1313324
  20.2926922  54.0647049  83.7661057  13.3305645  43.8241768  42.8707237
  13.3319788  44.7813568  42.8766479  12.4039507  43.5858498  42.8993530
  68.7930374  49.7730522  69.2362518  68.0988541  50.3786316  68.9762421
  68.3894730  48.9070129  69.1783905   8.6952162  52.4338112  45.1587677
   8.0285959  51.8073997  45.4406471   9.4082699  51.8902016  44.8236961
  71.2915726  58.0375099  43.2688789  70.6169662  58.2494736  42.6237373
  71.2384949  58.7444687  43.9120178  58.7224922  30.8807735  55.8907433
  59.0768585  30.0562954  55.5577354  59.4319420  31.5121098  55.7710571
  13.0331144  62.0991669  73.6864548  12.3499298  61.4882965  73.4101715
  13.0129776  62.0644493  74.6428070  25.0041885  62.5779457  26.9843807
  25.3301029  63.4701424  26.8660793  24.1631126  62.5676460  26.5275269
  15.7673635  17.2077408  66.2099457  16.5220451  16.6494446  66.0228806
  15.6068344  17.0877686  67.1459274  44.3616486  60.0264168  60.7561951
  43.4496269  60.3090630  60.8237419  44.6146774  60.2460442  59.8595505
  38.7650108  10.3838730  64.9264908  38.3169403  11.2174807  65.0698776
  38.1756096   9.8901062  64.3563690  54.2398376  46.8060532  33.3799515
  53.3732071  46.5134621  33.0978737  54.7377472  46.8979759  32.5676270
  36.0150452   2.9383843  88.4187622  35.3070526   2.4794745  87.9666824
  36.4995003   3.3785739  87.7203598  23.2940674  14.2710829   7.6016374
  24.1601257  13.8723688   7.5167799  22.9313545  14.2466774   6.7161570
   8.0169783  24.6718006  74.2794647   8.1798582  24.7008610  75.2222519
   7.6931663  25.5467281  74.0652618  41.9466476  65.8088226   1.8602062
  41.9871407  66.7591934   1.9669389  42.6727257  65.6027679   1.2714946
  84.1478577   5.1126285  45.2077522  84.3418198   4.8661380  44.3034019
  83.8303146   4.3057184  45.6130867  57.3278923  41.3058815  86.7721100
  57.1082420  41.5767899  85.8807068  56.5067329  40.9670753  87.1286774
  25.7180481  33.1878433  74.0728531  26.2849426  33.8588562  74.4531174
  25.0393486  33.6808357  73.6118164  69.4497757  61.6427879  18.1373425
  69.8610687  60.8704185  17.7493706  68.5255661  61.4070244  18.2178497
  69.7534409   0.4379104  68.4174194  69.4449310   0.0702833  69.2456207
  69.2612839   1.2529813  68.3190765  32.2371178  62.3319321  67.9611053
  32.0408211  61.7032700  68.6557159  33.1219368  62.6388702  68.1588974
  23.3670654  54.6287880  72.5603256  23.5171394  53.9241486  71.9300919
  23.2321262  54.1792641  73.3945618  77.2960663  10.4017677  22.0468578
  76.7821426  11.0349092  21.5456142  78.0429611  10.1997871  21.4833164
  82.2296524  30.8510017  88.8684387  82.0953445  30.0436478  88.3720779
  81.6901245  31.5012531  88.4186401  57.6195564  33.3029366  53.1049347
  57.6168404  32.4816093  52.6133537  57.1745758  33.0922356  53.9258041
  41.0802956  40.9174767  74.6931076  41.2818184  40.1302795  75.1990128
  41.4974518  41.6283188  75.1798477  24.7260418  61.9788399  12.6864700
  25.0889626  62.6385307  12.0954294  24.2695713  61.3659859  12.1100368
   6.6725421  32.8978615  41.2062416   6.0650644  33.4890213  40.7615662
   7.5267086  33.1009979  40.8249702  69.4466095  28.1957302   1.2090180
  69.1422119  28.3941174   0.3234586  68.8265991  27.5433197   1.5348707
  62.8957672  31.8396568   9.9971581  62.2858696  32.1941872   9.3501911
  63.6635971  32.4082680   9.9392767  29.0534592  48.8204269  18.7576180
  28.4061089  48.1205330  18.6720638  29.6075535  48.7302666  17.9823227
  61.3109550  32.8122826  50.4139748  61.7904053  31.9856472  50.3589287
  61.9614983  33.4811668  50.2003899   7.2659860  46.6012344  50.6008911
   6.8720145  47.4584465  50.4390030   8.1921158  46.7195892  50.3899231
  15.3665991   2.5569024  62.0961761  16.0351200   2.0297992  62.5337524
  14.8762865   1.9292454  61.5652580  81.2002029  56.6045227  34.5710907
  80.5056152  57.0397186  34.0767479  80.7385483  56.1104698  35.2485924
  59.3706512  48.0781021  27.2570553  58.6132431  48.6439095  27.4068127
  59.2412033  47.7334938  26.3734703  27.2501850  62.7848778  28.9445477
  27.9469948  63.1525421  29.4881573  26.8127995  63.5481377  28.5672398
  40.1080589  49.5750999  41.0143051  40.8228378  48.9596939  41.1774139
  40.5402107  50.4235229  40.9160461  13.6910343  56.8784294  61.9577065
  13.5867910  57.4278679  62.7345467  14.1276455  56.0895691  62.2791176
  28.1419048  31.1382084  65.3016434  28.8793430  31.7181225  65.1116028
  28.4675007  30.5529461  65.9855194  58.3036346  61.1913834  86.7463074
  58.0518799  60.8549194  85.8862762  59.1408539  61.6303787  86.5960541
  50.4461975  39.0502815  42.7201500  50.7085571  39.9387703  42.4793472
  51.2144432  38.5130043  42.5268555  30.4609318  39.2180099  76.2159424
  30.7072964  39.9074173  76.8325958  29.7237415  39.5852165  75.7281494
  62.1844521  24.6342468  40.1942863  62.1362381  23.8987370  40.8049698
  61.3400993  25.0760555  40.2843285  69.5606918  31.3090782  61.7102165
  69.8701935  32.2027664  61.8577385  68.6641541  31.3076763  62.0455627
  15.8235416  53.6597710   2.4193022  16.4184322  53.2378998   3.0392714
  15.1082687  53.0332222   2.3095028   8.4638071  69.1901932  86.3240280
   9.2439556  69.2381134  86.8765717   8.5111370  69.9724579  85.7744370
  84.4980011  67.9199524   5.7496233  85.0625992  68.6170349   5.4156399
  83.7997894  67.8449326   5.0991597  82.8648300  14.8391924  15.2304029
  82.1296082  15.4444742  15.3269234  83.4162445  15.2375956  14.5570154
   1.1883979   0.9744234  12.4815531   1.2176330   0.5898802  13.3576260
   0.4371625   1.5671481  12.5051012   6.3682599  16.2958336  50.4322739
   5.9481487  16.1411438  51.2783279   6.4233866  17.2489243  50.3629265
  78.0538635  14.2995205  17.9185791  77.9882660  14.9041958  17.1794605
  78.6325226  14.7420979  18.5394764  66.5961761  51.3227654  21.7159386
  67.2269974  51.8225822  22.2340927  66.4280090  51.8709145  20.9494629
  19.3613529  16.5557461  22.4652596  19.6085129  15.6435928  22.3132057
  20.0838242  17.0642529  22.0969009  78.4692230   6.2225428  15.6219082
  77.8746185   6.5163546  16.3120918  79.3413315   6.4501643  15.9441690
  51.6581268   8.2019596  54.7524529  51.4951210   8.2685499  55.6933174
  51.8196983   7.2704544  54.6027031  61.9580154   2.4883993  56.6245041
  62.7669792   2.5842206  57.1271286  61.2741852   2.8217545  57.2054367
  49.3664436  39.5457764   0.5259041  48.7514153  40.1263695   0.0777002
  49.8469162  39.1143913  -0.1806971  78.8459854  41.7200890  36.4949379
  79.4852753  41.6580620  37.2046509  78.4000549  40.8731232  36.4995651
  40.9214363  64.7757492  82.8132095  41.2894554  64.0559692  83.3257675
  41.2558784  65.5665512  83.2363052  81.8946915  27.7430897  85.0502853
  82.3842010  27.4857769  84.2690048  81.9145126  26.9678955  85.6114502
  28.4995480  25.4200630  64.1757889  28.3000202  24.5692310  63.7852669
  27.9343185  26.0360394  63.7096138  61.7609253  18.2667904  86.7444458
  62.5090294  18.6491222  86.2857513  61.2263756  17.8806858  86.0506058
  52.7590904  28.4155312  64.7531891  53.4920464  28.8947563  65.1396484
  53.1014442  27.5342808  64.6034393   8.2819605   9.5932999   4.7069507
   8.1973047   9.7282581   3.7631016   8.3498659   8.6438751   4.8080044
  11.8309641  15.6567059   6.5487452  11.9854784  14.9012823   7.1159244
  12.6880054  16.0754013   6.4687109  17.1657887  17.2909698   7.0846810
  16.7979908  17.2892647   7.9683976  17.8133373  16.5861053   7.0933990
   2.0316739   5.6309452  53.2126274   2.1750891   5.5272756  52.2719269
   1.3270537   5.0160437  53.4166794  65.9910660  42.1403923   9.5278158
  65.3395767  42.3696365  10.1905737  65.9311371  42.8426056   8.8800983
  59.8323059   3.8213871  84.2114639  60.3326111   4.5048280  83.7655563
  60.4323006   3.4790199  84.8740540  56.9686203  33.8683624  20.5123863
  57.5314102  33.6700783  19.7639332  56.0888557  33.9312515  20.1405106
  17.1640034  41.7935677  62.9335670  17.0894356  42.2961311  62.1223335
  18.1059361  41.7356110  63.0936852  33.7819939  41.2258720  79.0999146
  34.2247925  40.3930817  79.2630844  34.1946487  41.8396301  79.7075729
  39.1896744   8.9188728   9.8756170  39.4152641   8.9386015   8.9455891
  38.2603378   8.6901731   9.8918505  70.6871185   1.1888140  62.2162971
  71.0426102   0.3404095  62.4810028  70.5265961   1.0987027  61.2769661
  85.2102661  27.0518723  49.3847160  84.6576538  26.9039688  50.1521645
  85.8293915  26.3218918  49.3911095  66.3105392  37.3084984   5.2767930
  66.3955002  37.9428062   4.5649872  65.6279907  36.7062531   4.9807339
  53.9403000  48.8445740   9.4314661  53.1076965  48.5395432   9.0709620
  53.6918144  49.4704056  10.1117744  78.2695389  60.7778130  29.2262135
  77.8957825  61.5982018  29.5479164  77.8932037  60.6693993  28.3528004
  40.1018105  16.9063377  66.1802368  39.7881203  17.7705936  65.9139786
  39.7428207  16.3087044  65.5243454  44.8281517  44.3687592  41.3590126
  45.6051674  44.0637589  40.8905563  44.6328392  45.2210503  40.9695435
  83.5029449  54.5832329   7.4056964  83.8961563  55.4534988   7.3404412
  83.1724167  54.4031448   6.5256100  51.6991577  49.8646698  53.7710609
  51.2098007  49.9575996  54.5884514  52.5884285  49.6439896  54.0480614
   1.6768703  11.2533731  53.4042015   1.5989873  11.2481956  54.3582115
   1.3221854  12.1021280  53.1395378   7.8291283  52.2916069  26.4847393
   6.9620528  52.1089211  26.8467331   8.1705513  53.0020828  27.0277710
  25.6293392  68.2237473  76.1888351  25.2748203  67.7402496  75.4426575
  24.8922272  68.7433701  76.5095978  27.1973934  16.8569508  67.7592316
  27.5079689  16.0646896  67.3209381  27.2609463  16.6548367  68.6926880
  48.5003586  60.3848572  80.0676880  48.1864319  61.2763672  80.2189941
  49.3514252  60.3532295  80.5046310  52.0319366  21.8492393  79.1648636
  51.6232872  21.4835281  79.9494019  51.4913673  21.5300465  78.4422760
  16.5085068  39.6585350  39.3075981  16.3403931  39.5296555  40.2410660
  17.3828087  39.2943001  39.1691666  18.2592869  27.7965145  67.6702347
  18.2815895  28.7172585  67.9309311  17.7220840  27.7848225  66.8780823
  69.5705338  23.9449158  58.0936737  69.9736328  23.1210136  58.3674088
  69.8122025  24.0351562  57.1718864  11.8084078  27.2731285  10.4590454
  12.6136742  26.7577057  10.4130268  11.6352291  27.5282707   9.5528765
  22.3240528  41.0998802  41.8711395  22.3076649  41.9437485  42.3226357
  21.4016438  40.8682098  41.7628746  76.6958618  33.4845467  26.2308064
  77.6225662  33.3772774  26.4451637  76.3110886  32.6233749  26.3937836
  54.3938293  12.7445135  71.9247971  54.2433243  12.1938400  72.6931381
  55.2620354  13.1217136  72.0668259  41.2916908  68.5537338   1.0290861
  41.5849838  68.8677216   0.1737380  40.4470596  68.9830627   1.1651016
  71.1778259   8.6185303  16.7851086  70.9423294   7.7021050  16.9298134
  70.7646027   9.0891829  17.5089626  33.5314484  45.2087669  84.3807526
  34.4344902  45.2169495  84.6980591  33.0248222  45.6046829  85.0898438
  65.3814087  68.1389465  15.1187239  64.6515045  68.2518692  14.5098600
  65.1176605  68.6230545  15.9012270  44.5506287   1.8348802  85.3841858
  45.4366570   1.7167737  85.0417938  44.6657143   2.3771091  86.1645584
  50.4413071  57.2181129  24.8420963  50.6184540  57.3446617  23.9099827
  51.1175041  56.6065102  25.1335278  84.9875412  67.6423874  77.0823517
  84.8944092  68.4343643  76.5528946  85.4056244  67.9417953  77.8896866
  63.2471046  49.1538620  21.0148449  64.0917130  48.8386040  21.3365307
  62.8216896  48.3751259  20.6559296  34.6557426  65.1988373  29.3707256
  34.7602539  64.3582382  29.8164845  34.6207962  65.8424759  30.0783558
   0.4467714  18.7321129  60.5603256  -0.3012557  19.1810017  60.9542618
   0.5086802  17.9050999  61.0382881   2.9977076  58.5615540  58.3096809
   3.1231585  57.6137161  58.2638664   3.5373671  58.9091759  57.5996399
   9.1983013  57.5741997  44.4961586   8.9509611  56.6622276  44.3433113
   8.6509018  57.8508873  45.2310257  34.4674644   0.7509823  87.2446823
  34.0118866   0.5335003  86.4314270  35.3948326   0.6342868  87.0382919
  75.9961853   0.3855487  40.9436188  76.4224548   0.6248734  41.7665672
  76.7191696   0.1945391  40.3460884  16.9094791  59.1058884  60.9778366
  17.2153130  58.4116631  60.3941002  16.0295296  59.3130493  60.6631851
  19.9081440  51.7856750  33.7806358  19.7656231  51.1315002  33.0965462
  19.4354172  51.4449921  34.5400391  69.2987671  31.3255329  78.8445663
  69.8056488  30.6361885  78.4154968  68.8357468  30.8771648  79.5522461
  64.1597290   0.4829268  75.5356293  63.5978241   0.7139661  74.7959595
  63.6601524   0.7479935  76.3078918  40.0425301  39.6559334   3.1902764
  39.2402382  39.1573410   3.0354614  40.1272202  39.6835442   4.1433225
  59.7093697  56.1435394  68.1273575  59.1821861  56.2923584  68.9123154
  60.2298927  56.9413490  68.0336151  82.2197189  32.2379494   2.1266220
  81.9596024  31.6164341   1.4467044  82.7546082  32.8853951   1.6673403
  39.7521553  42.4853287  65.5631943  40.3839073  41.9472504  66.0402679
  39.6687889  43.2803459  66.0897217  34.2065163  49.8769798  10.2076664
  34.5470428  49.1369476   9.7050457  34.8467789  50.0061531  10.9073877
  27.1078987  61.6394730  71.7064209  26.8905392  60.9211998  72.3006134
  27.2932339  62.3801498  72.2837219  64.4375687  31.5811157  83.8028107
  64.7463150  32.2419395  84.4226685  63.7547531  32.0249863  83.2998505
  15.9093790  54.9483566  45.5772896  16.5667801  55.3063278  46.1738701
  15.1519880  54.7698479  46.1347160  22.7828751   0.7553875  79.0134964
  23.4397812   0.2612985  78.5230026  22.7214546   1.5932101  78.5546799
  76.7727280  12.1915903  78.5221024  75.8828583  12.0419693  78.8414307
  77.1774521  12.7440405  79.1908493  76.0012970  20.2637920  84.8800125
  75.4895859  20.7443848  85.5307083  76.8396072  20.0963211  85.3106232
  44.9295464  30.0455437  22.5407181  44.4642487  30.7316875  23.0191917
  44.3416214  29.2908325  22.5721054  52.3676224  26.4344540  67.2298660
  51.9623642  26.8790970  66.4853516  52.7275276  25.6281357  66.8603363
   1.6234676  71.0538635  14.4873838   1.0582817  70.4915619  15.0171127
   2.3694327  70.4984512  14.2609243   5.9761124  14.6414013   7.2504020
   6.7648625  14.5356483   6.7184982   6.2943125  14.9862213   8.0847158
  38.5828209  60.7219887  82.0684967  37.9080772  60.7242165  82.7474289
  39.1688843  60.0066605  82.3156128  30.3081207  59.7682343  64.2440338
  30.3045082  58.8942604  64.6344070  29.4613647  60.1426163  64.4870834
  78.7581787  49.2605209   5.6686072  78.5696869  49.8764763   6.3766308
  79.2815094  49.7646561   5.0455441  47.9499931  43.0758476  76.9221344
  47.3678207  42.4266167  76.5274124  48.8121567  42.8783340  76.5562134
  27.5721493  70.2481689  42.8254929  28.0311890  71.0854340  42.7584381
  26.6952744  70.4279404  42.4863739  46.8999062  42.4697456  85.7312469
  46.5598259  43.3621330  85.6662445  46.6608200  42.1859970  86.6136093
  69.8735809  67.4889526   0.7742900  69.0671844  67.2290955   0.3288252
  69.7613983  68.4237900   0.9466957  11.3064365  64.5779572  36.9546242
  11.0258427  63.9178886  36.3207436  10.4984274  65.0224304  37.2111397
  28.1355114  28.2409191  63.6564026  27.6126881  28.0885754  64.4435959
  27.4942532  28.2799759  62.9468269  84.0312195  43.6041718  83.6877594
  83.0788269  43.6977806  83.6674042  84.3229218  43.9384003  82.8395615
  54.4191895  20.0031776  57.7349129  54.6349564  19.1578445  58.1287270
  54.2875710  19.8085098  56.8070068  14.3333502  10.9880562  64.1904144
  13.6685638  11.6756668  64.1519318  13.8725214  10.2291231  64.5480347
  84.3331299   1.0186135  84.5369034  84.6613922   1.6556871  85.1714249
  83.9825134   0.3065395  85.0719223  43.0688477  47.8147430   2.8177671
  42.6122360  48.2170334   3.5566168  42.4922867  47.1035881   2.5383661
  53.9468689  10.7505627  78.6805725  53.6378136  11.6564322  78.6697159
  53.7951698  10.4564848  79.5787582   6.6641698  59.8430862   9.2010183
   5.8075356  60.1407166   9.5073290   7.2736411  60.5168724   9.5023308
  75.4610443  29.4550743  82.6283112  76.0760345  28.8704853  82.1852875
  74.9710464  28.8836632  83.2196045  59.5760345  48.6472549  34.9856491
  60.3355408  48.1024551  35.1919785  58.8224907  48.1108208  35.2319069
  81.6138992  55.8758965  18.2591610  81.7017746  56.6614265  18.7990246
  80.7269821  55.5620499  18.4355335  79.5671005  51.6819839  56.2512627
  78.8864594  51.4556618  56.8850937  80.3055573  51.1180191  56.4811668
  54.2036057  14.2409086  21.3850918  54.2403717  14.0506496  20.4477119
  53.3063393  14.5392332  21.5339241  23.0200729  46.3957977  61.0498238
  23.4394798  46.8898735  61.7542496  23.1033401  46.9585991  60.2800484
  16.4683971  61.0723457  87.0211105  16.7793579  60.1882668  87.2159042
  16.3353252  61.4740334  87.8796997  51.7949104  56.4918098  44.8674965
  52.6818619  56.5863190  44.5201950  51.9171486  56.3855972  45.8108978
  71.6659622  38.5551109  84.7625961  70.7940750  38.3778381  85.1156082
  72.2477722  37.9827271  85.2626953  46.1378670  35.6331215  32.5945396
  45.7914734  35.8504868  33.4599838  46.5756416  34.7906723  32.7164421
  62.4710693  64.7772293  39.3181458  61.9814453  64.6662445  38.5031700
  62.0733223  64.1515808  39.9236183  61.1624832  47.0409851  32.4455986
  61.2921410  46.6395569  33.3048286  62.0325127  47.3484306  32.1911278
  14.0387526  62.1406937  53.0385933  14.7509346  62.7043991  53.3406906
  14.2339230  61.2839546  53.4182510  55.5766373   3.4866223  66.4874954
  55.2776146   4.1512451  67.1080551  55.2737083   2.6582317  66.8592987
  55.8247261  62.2345085  61.9853020  56.2347908  61.3891945  62.1683960
  55.2767792  62.0735321  61.2171402  44.5443192  43.1482353  87.3871155
  43.8045692  43.7491951  87.4757462  45.1515236  43.4122391  88.0783768
  33.1044846  40.6550674  57.3465843  32.9275360  39.8018799  56.9503593
  32.4101143  41.2229347  57.0125046  71.4465637  30.8965454  15.2969112
  72.3807983  31.0413799  15.1470528  71.3907623  29.9918404  15.6045275
  10.8050385   2.1290085  80.3890381   9.9768677   2.6002545  80.2979736
  10.8288698   1.5388403  79.6358032  42.6511497   3.1282332  72.2586060
  41.9062576   2.9228809  71.6936264  42.3930817   3.9300985  72.7131882
  27.2706776   9.8648586  14.5833445  28.1065140   9.6855764  15.0140018
  26.6875973  10.1320372  15.2938833  55.0388336  62.4100609  46.8218231
  55.7314949  62.5328178  46.1726799  54.4639053  61.7488480  46.4364891
  55.1252937  31.7465153  47.2713280  55.2616310  30.8743992  46.9011154
  54.1777649  31.8770542  47.2341347  74.4689026  47.5817299  44.7870636
  73.6967850  47.0249367  44.8873024  74.2578888  48.1531754  44.0487137
   9.7285776  32.3327484   5.8650174   9.6040392  32.8235435   5.0527101
   9.0165176  32.6259346   6.4335628   1.1142799  46.5847244  38.2716866
   1.0971514  47.4143562  37.7945595   0.2349175  46.2243843  38.1571922
   1.4412508   6.6142478  42.6251297   1.2660267   7.4511819  43.0553246
   1.1070564   5.9567442  43.2352409   4.1165676  46.0756302  86.4824219
   4.4938669  46.8786736  86.8415756   3.6050797  45.7080917  87.2032089
  70.7711258   8.6864071  72.6935501  69.8708191   8.3965406  72.5463867
  70.7361984   9.6375303  72.5916748  23.3010330  32.6779366   1.5670317
  23.6083431  33.5253448   1.2450154  23.5962181  32.0498352   0.9077998
  25.6098766  51.5477753  14.7017469  25.9625034  50.7551231  14.2972841
  26.0006466  51.5650635  15.5753794   6.7170420  22.8311729  78.0616760
   5.8037887  22.6762314  78.3029099   6.7818537  22.5220127  77.1581039
  50.4629402  40.0684586  53.1197205  50.1004982  39.3205261  53.5945549
  50.4157982  40.7934685  53.7429123   3.4205477  54.2237167  11.3389025
   3.7567639  54.7813911  10.6373405   2.5277293  54.5359230  11.4859886
  64.2707291  51.8741684  72.4292297  63.9586334  51.0935631  71.9715424
  63.8086319  51.8611717  73.2674026  68.1876450  31.3386021   2.4055476
  69.1058655  31.3736382   2.1374269  68.1914520  30.8119087   3.2048042
  48.8229561  38.8201790  34.2805519  49.3260460  39.4856567  34.7498817
  47.9408684  38.8843155  34.6466675  10.1475420  35.7895699  83.9625549
  10.6292257  36.1205368  84.7206345   9.2601271  36.1301842  84.0752945
  62.3802071  35.6148071  30.7643147  61.8980560  36.3639793  30.4143085
  62.4558525  35.0119286  30.0246906  39.8431931  53.7606049  17.8953247
  39.8259354  52.8236694  17.7001743  38.9640961  53.9536171  18.2211666
  11.5824070  53.8284836  68.6571655  10.6659737  53.5585938  68.7166824
  11.8760996  53.8812675  69.5666656  35.6556854  49.6728439  39.3056526
  34.8191757  49.2680473  39.5350456  35.6679268  49.6715126  38.3485336
  70.9731369  12.7529259  53.2410736  71.2146988  11.9627800  52.7578049
  70.5495453  12.4277172  54.0354538  31.6605721   2.1801775   5.1819582
  31.4271469   3.0998397   5.0556011  31.2270679   1.7219419   4.4620094
  84.0358658  20.9060726  80.7087555  84.2785797  21.1923580  79.8282089
  83.7584229  19.9968033  80.5970154  44.5171165  12.6809206   2.4425721
  44.1671295  11.8061790   2.6115971  43.7489243  13.2078123   2.2223506
  44.7634926  19.3011723  63.1081429  44.6637840  19.1379452  62.1702499
  44.5485725  20.2278881  63.2141533  72.6144257   4.2502871  21.2549191
  72.1601257   3.5083439  21.6541233  73.5297394   4.1365294  21.5108395
  75.0383606  30.2125549  29.0621033  74.2173767  30.6984291  29.1404514
  75.2021484  29.8754253  29.9428692  28.8529530  51.2901344  25.6177464
  28.1244030  51.0609016  26.1947193  29.5264969  50.6383171  25.8119144
  45.1717339  12.3449898  34.9676743  46.0140800  12.5684986  34.5717812
  45.0407906  11.4227104  34.7474747  75.6151657  50.6765518  69.7537613
  76.0186539  50.3923950  68.9335938  75.9180450  51.5770607  69.8703003
   6.0532103  71.3481979  33.9601402   5.5288906  72.1208801  33.7497063
   5.4101987  70.6789932  34.1945190  16.2198105  63.7144089  17.4103146
  16.6576233  63.4541245  18.2207489  16.5148296  64.6118927  17.2562981
  31.3471069  29.1493053  16.2142334  31.5848236  28.2232971  16.2614670
  31.7659492  29.4635334  15.4129448  47.4904289  41.1947060  88.5836945
  46.7052155  40.6665878  88.7277832  47.1823120  42.0997391  88.6306381
   1.1570290  47.8165550  53.1732941   1.8397120  48.4870224  53.1986961
   1.5878063  47.0238724  53.4931641  44.4174156   2.9507697  10.4352388
  44.3410912   3.8871775  10.2520819  43.8824539   2.5306144   9.7618008
  56.5215759   0.6041753  18.1449699  57.2272491   1.2337780  17.9971390
  56.0243454   0.6052991  17.3270493  80.2062073  44.0241356   0.8401923
  80.1289520  44.6000824   0.0795686  79.3210983  43.9860077   1.2026318
  45.9889641  62.0866165  83.6041870  45.2046585  62.5720978  83.3484497
  45.9821129  62.1074104  84.5611420  41.6002655  15.8203478  37.2362022
  40.9852448  15.9829369  36.5209770  41.1319542  16.0995827  38.0229301
  52.7669640  28.7536259   6.9772444  52.0749702  28.1459904   6.7161694
  53.4898224  28.1895962   7.2521529  70.8534012  13.4818811  61.1196671
  71.3235245  14.1263170  60.5905914  70.5893326  13.9627438  61.9040604
   1.9612991  30.6704845  14.3248072   2.9054961  30.8277016  14.3272552
   1.7405795  30.5234947  15.2445402  16.0116558   6.6068430  31.9272308
  15.9265165   7.0125885  31.0644703  16.9395561   6.3820076  31.9956551
  60.4331207   6.0258842  51.9848442  60.8485756   5.2304974  52.3179932
  59.6668930   5.7125964  51.5042419   8.2443199  27.7427578  88.8711472
   8.6513252  27.0398941  88.3646317   7.9407735  27.3158245  89.6722870
  13.3929815  61.7841110  21.3617249  12.8257046  61.7923164  22.1326714
  13.2062273  62.6114960  20.9181213  51.9872131   1.2806400  29.3500061
  52.3628540   0.7690095  30.0664997  51.1505928   0.8542927  29.1642056
  82.2197113   7.6235127  60.3076897  81.7479477   7.5292630  59.4801712
  83.1087341   7.8674965  60.0501175  28.2784023  63.2153854  46.8200684
  27.7397881  63.1611900  46.0306435  28.8074322  64.0033112  46.6954384
  72.2135468  29.5030880  36.1242523  71.9782486  30.4113140  36.3139763
  72.4821014  29.1436157  36.9697647  20.7359467  25.0845184  82.5562973
  20.5797215  24.8633175  83.4743958  19.8950138  25.4184227  82.2439346
  51.0399513  49.6618233   5.0626979  51.7669716  49.7294846   5.6816435
  51.2536087  50.2898750   4.3726721  69.1057358  42.8848114  21.4806004
  69.0609970  43.0606880  22.4204407  68.4389954  42.2146492  21.3303356
  45.1742287  16.8195515   9.4496469  44.6343727  17.6064644   9.5241871
  44.5655441  16.1375084   9.1658335  26.9551849   3.1274412  44.6987152
  27.2258415   2.7647924  45.5421982  27.4149323   2.5942912  44.0501671
  23.7239609  69.2826691  79.7292480  23.6469078  68.3353653  79.8428497
  23.2869568  69.4603500  78.8963623  33.0538979  39.0264015  69.8048477
  32.1567955  38.9418640  69.4818954  32.9954071  38.8068542  70.7346878
  44.1346664   0.9643896  37.2691917  44.0106964   0.1781110  36.7375641
  43.2715759   1.3777443  37.2903442  50.0209770  65.0914993  48.1185188
  49.5329819  64.2683487  48.0957451  50.4289131  65.1520691  47.2547188
  58.7116928   2.6160860  38.8056183  59.6514359   2.6418724  38.6254845
  58.3566093   3.3693981  38.3337402  22.5577755  62.9504433  49.8298531
  21.7374382  63.1039848  49.3611259  22.6699333  63.7276192  50.3772545
  81.3140182  59.0703735   6.2494445  80.7296371  59.8182602   6.1253681
  82.1788254  59.4605980   6.3762207  43.3739548  64.3645782  21.2344151
  42.5598183  64.8260803  21.0333576  43.6306229  64.6955566  22.0951157
  47.1253014  18.0107956  34.4076347  46.7544899  17.1367302  34.5290565
  47.1264687  18.1408558  33.4593124  84.8684082  18.1520596  26.5654755
  84.7355042  18.8414822  25.9148884  85.2285843  17.4185562  26.0670033
  81.7813034  68.3469238  62.1489601  81.6438828  67.9756317  63.0204506
  81.2360458  69.1335220  62.1350365  39.7801781   8.4128771  73.4401321
  40.2430840   8.7881813  74.1891937  39.9983139   8.9914007  72.7094040
  33.4745407  35.4863243   6.9306808  34.2169876  35.6620483   7.5087209
  32.9826126  36.3073196   6.9163256  37.4317665  56.6440926  54.3612213
  38.1879272  56.4584122  54.9179726  36.7036514  56.1921310  54.7876053
  49.1019096  11.4426069   2.2956626  48.3952103  11.8847809   2.7660775
  49.8160362  11.3897123   2.9308465  61.5877991  40.6036339  15.5520134
  60.7414818  40.1591835  15.5026731  62.2308159  39.9127426  15.3925495
  65.2150803   4.1090622  27.6613483  65.3807144   3.4859610  26.9538593
  65.7407990   3.7859187  28.3930798  37.8636246  62.9520683  49.3382301
  36.9524078  62.6641045  49.2835350  38.0431023  63.3427238  48.4830055
   1.7873620  70.2527542  43.2688484   1.6044310  70.1731415  42.3326683
   0.9322479  70.4155350  43.6669846  46.0570488  26.8739758  87.5189514
  46.3756561  26.1834793  86.9376297  46.8346672  27.3939152  87.7219391
   4.4577732  20.3407192   4.3423014   3.6082072  20.4072456   4.7782412
   4.2712083  19.8828125   3.5226998  28.8028717  38.5922241   2.5397782
  28.0491982  38.6328621   3.1284685  28.8770618  39.4778214   2.1841834
  51.5497551  15.3839407   5.4982767  51.9474564  14.5522537   5.7558818
  52.1549988  15.7491074   4.8528585  15.8577757  20.4138794  26.1030273
  15.3878956  20.8548851  26.8108120  16.7608490  20.7195625  26.1881790
  10.0735359  43.5749588  74.4087753   9.5564194  43.8687172  73.6587601
  10.9820633  43.7214050  74.1454086  61.0255356  23.4487476  37.0384293
  61.9628105  23.3629875  37.2127686  60.9790688  23.8905678  36.1905670
  70.9525681  21.9304867  59.1990585  70.8808517  20.9925232  59.3760109
  71.5916672  21.9921131  58.4891396  43.3397293   9.9682426  84.7033310
  43.2619476   9.2495766  84.0758743  43.4721870  10.7460613  84.1614075
  74.7387924  26.6375351  66.9968567  75.3667679  26.7307320  66.2804794
  74.0153809  26.1383228  66.6177979  73.8498764  49.2809639  55.5590858
  73.6505127  50.0720215  56.0597954  74.4806061  49.5680428  54.8987885
  47.4179649   7.6337810  27.1636009  48.0512085   6.9191542  27.2309914
  46.8000946   7.4743700  27.8770847  57.9534950  13.4806433  33.9863129
  58.4235649  13.0850649  34.7203293  57.5554810  12.7396021  33.5295029
  85.7836075  41.3413849  56.0566711  86.3811111  42.0819397  56.1605988
  85.7173157  41.2181816  55.1097488  45.2857513  44.2037735  49.1791000
  45.7396507  43.3741493  49.3271980  44.7417145  44.0447769  48.4077530
  41.0419960  36.3569374  47.9494667  40.1716156  36.4363098  47.5591164
  40.8906784  36.4396515  48.8910027  57.5432854  65.3545151  10.5948429
  57.5536385  64.9405975  11.4578600  56.8113327  65.9701462  10.6332417
  61.3467140   1.3312337  35.8195801  60.4290161   1.0593141  35.8085709
  61.7774849   0.7457713  35.1967621  19.6341400  39.9165421  14.1244717
  18.9336929  39.9505234  13.4729729  19.6097527  39.0188332  14.4557657
  51.6322403   7.3679724   4.2875004  51.0012589   6.8923707   4.8277740
  51.1598625   7.5552325   3.4763141   9.0113888  45.7903023   2.9742470
   9.3193312  45.6627121   3.8715336   9.8011065  45.7207756   2.4378300
  53.8119621  20.7166348  47.2065697  53.3360748  20.3969498  47.9730988
  54.5681496  20.1342659  47.1340637  66.0106201  35.5293007  37.0621338
  65.4822464  35.7605553  37.8260536  65.4103851  35.6137161  36.3213081
  23.0684261  60.4397812   8.3745890  23.1523781  61.3877220   8.2716618
  22.2624416  60.2186470   7.9079862  16.2835293   4.8799047  73.6246414
  16.5041580   5.1349216  74.5204773  16.1811943   5.7092705  73.1578293
  71.8189163  26.0670757  17.2600498  71.7189102  25.1488209  17.5111217
  72.6821594  26.3135395  17.5921688   7.3634338  51.4570732  61.7342644
   6.6890073  52.0186539  62.1163750   8.1895475  51.8715019  61.9832916
  32.3927231  43.3751183  14.7761526  32.6508942  42.9277954  13.9702482
  31.6183376  43.8817139  14.5313663   6.3370266  58.3764038  14.0570011
   7.2193871  58.0523338  14.2376957   6.4753642  59.1919746  13.5753994
  22.0984669  13.9736652  13.9018679  21.7525768  13.1205969  13.6394424
  21.9303169  14.0210800  14.8429890   3.4413943  54.2074280  83.5145264
   2.8337495  53.7505722  84.0961456   4.1511889  54.4957390  84.0883713
  82.3302231  32.3307190  29.1489277  81.6301422  32.7205429  29.6725197
  81.9818802  32.3143158  28.2575130  34.2766342  54.4150429  44.3027573
  34.7116470  54.6523056  45.1217194  34.9922066  54.1928368  43.7070961
  72.1419907  14.3263588  18.9673977  72.1765900  13.7140646  18.2324619
  71.4220047  14.9190722  18.7516441   6.9065032  47.8470001  47.7169266
   7.5978131  48.1731682  48.2930679   7.3293943  47.1616135  47.1995888
  15.3049297  37.9645576  58.1945419  15.6720304  37.0864639  58.0924492
  15.7356634  38.4846001  57.5161209  23.6430168  38.0688667   3.5477989
  24.4161053  37.9822922   4.1055374  23.0051918  37.4641914   3.9269826
  80.0277710  45.1675568  53.8336754  79.8334885  46.0952454  53.6999626
  80.4431915  45.1316147  54.6952820   4.5371089  43.7253418  30.4241257
   4.8975196  43.8872986  31.2959671   4.1615767  44.5653610  30.1603584
  75.6715164  63.2987442  62.7992821  75.4048004  64.2093048  62.6729202
  74.9188004  62.8851242  63.2218590  37.5639687   4.7253380  76.7158432
  38.0213165   5.4645491  76.3150558  37.0872192   4.3180399  75.9926224
   6.5355258  53.6848221   7.9796581   5.8863106  53.3505135   8.5985193
   7.3402386  53.7578316   8.4928236  41.2108879  55.7228928  83.1868668
  40.3800278  55.3182602  82.9375229  41.8750420  55.2084312  82.7281036
  14.8348923  33.4977760  32.3475647  14.7736855  32.6440163  32.7760315
  14.0120802  33.9351501  32.5664597  38.8297081  16.5543308  76.0176773
  38.7702904  16.1427441  75.1555252  38.5921898  15.8594818  76.6316833
  83.7767334   1.4118966   4.8375936  82.9501495   1.8822412   4.7290812
  83.5856857   0.7396215   5.4916430  37.7854843  59.1038513  32.0446892
  38.1575661  59.1166153  31.1628590  36.8684044  58.8626595  31.9142303
   7.7174816  29.0849419  23.5026493   7.7555408  30.0413837  23.5011978
   6.8703141  28.8783512  23.1078587  31.6503563  66.9077682  79.0403214
  31.3251114  67.4986267  79.7195358  31.5820770  66.0356064  79.4287872
  48.5834923  57.8230133  66.2639236  48.4510040  57.0085640  66.7490540
  47.8774185  57.8344612  65.6177368  48.5700455  56.0003967  17.0406094
  49.1561508  55.2662125  16.8570671  47.7104034  55.5966110  17.1597710
  13.6400385  70.6216507  23.4221249  14.1992674  71.0783920  22.7937317
  14.2096415  69.9583435  23.8117485   5.8859353  41.2311249  64.8918152
   5.0806842  41.2281799  65.4093018   5.9146199  42.1032639  64.4983902
  28.0642166   2.9739430  68.6294937  28.8729744   2.7816072  69.1039963
  28.3057880   3.6676450  68.0157776  65.9509811  13.3018751  58.1731873
  66.8646698  13.5284109  58.3466187  65.5039673  13.4555702  59.0055237
   0.0897866  22.3678455  20.0200081  -0.5452675  22.6124535  19.3468781
   0.5262457  21.5924931  19.6670723  62.7056274  31.0226994  32.6031189
  62.1757660  30.7903099  31.8405762  63.3080444  31.6931267  32.2808609
  48.3219223  25.3350563  22.5245800  48.7928123  24.5019531  22.5037155
  48.9505005  25.9563274  22.8921986  39.1428299  23.0872307  64.0732117
  39.3256798  23.8343773  63.5035019  39.5359306  23.3245850  64.9130707
  16.7509995  60.9940147  37.7717133  17.6660824  60.7316971  37.8719368
  16.4106846  60.4189644  37.0863419  54.1332550  39.1676712  39.5963402
  54.0929298  38.3205566  39.1524887  54.8963699  39.1012306  40.1703377
  61.4491920  55.4747238  15.2459440  61.2254982  54.8154106  14.5890608
  62.3355446  55.2443161  15.5243788  66.4981766  59.4110947  27.5802460
  66.0187683  59.1394310  26.7975578  65.8165054  59.6622314  28.2035294
  63.2858963  56.9556961  41.0598984  62.3697243  56.7560883  41.2522964
  63.2470016  57.6143341  40.3664169  45.9076767  32.3370895  37.9799805
  45.9289780  31.4027157  37.7732773  45.5134621  32.7441292  37.2085228
  19.1942978  37.6430092  64.3508072  19.4979191  37.6489258  63.4430580
  19.2664909  38.5546722  64.6334534  47.9589310  71.3943863  56.7168427
  48.8450203  71.1151199  56.9472466  47.7647591  72.1042252  57.3289337
  67.9282608  53.0771523  23.2999153  67.2474136  53.7000999  23.5541286
  68.3118896  53.4519577  22.5070839  23.9016457  26.6187592  14.7635336
  23.5713501  27.4842014  15.0046682  24.8376045  26.6561699  14.9605446
   1.0001349  20.2499828  70.8822174   0.4368823  20.9974670  70.6816025
   1.8185264  20.4364719  70.4221191  40.3929672  24.3796787  42.5198936
  40.5097542  23.4423599  42.6749001  40.9317474  24.8020344  43.1888962
  62.5296631  16.1555977  25.5093613  61.5743713  16.1878681  25.5604286
  62.8046074  15.8325262  26.3674202  81.0844650   4.8685088  46.9696426
  80.6508026   4.3647432  47.6583977  81.3088226   5.7004371  47.3865242
  61.7728043  68.6676941  33.8438911  60.8399086  68.4778824  33.7443466
  61.8685570  68.9238358  34.7612000  36.8659897  36.7690468  20.6325226
  35.9957466  36.6159477  21.0005875  37.3824654  36.0150795  20.9171600
  68.1766968   5.1768880  36.5415306  68.3876343   5.7284493  37.2948685
  67.4337463   4.6480727  36.8324127  35.3028870  37.2848396  54.6269569
  35.7055016  38.0717735  54.9942017  35.5235710  37.3150406  53.6960335
  40.4848442  43.4134598   1.2802047  40.9464264  42.6914978   1.7067555
  40.8279457  43.4224434   0.3866549  68.8076096  51.6842575  65.7888260
  69.1836624  52.5604782  65.7048645  68.4724350  51.6523209  66.6848602
  17.5375557  53.0469093  87.7085953  17.4399204  53.9659042  87.4592972
  17.1527443  52.9938774  88.5834274  73.4697495  38.9322052  19.3110523
  73.9203339  38.2958794  18.7558060  73.6526794  38.6422157  20.2047367
  77.5235977  67.0794830  88.1949463  78.1761169  66.7378845  88.8063049
  76.8425064  67.4519119  88.7549820  38.1750984  49.0905838  30.9408989
  38.0796204  48.3078308  30.3983021  38.4071274  48.7549515  31.8067780
  33.0852928  20.2672253  84.7593842  32.2947044  20.1908913  85.2935867
  32.9344406  19.6753387  84.0223999  80.7947693  37.8906364  17.0288486
  79.8685684  38.0516319  16.8486671  80.8565674  37.8911819  17.9840527
  64.2888870  34.5306892  26.3393078  64.6404953  33.7132607  26.6920223
  63.7709465  34.8975410  27.0558224  55.9568443  53.6461067  61.6024818
  56.5026779  53.0774269  61.0594368  55.0688019  53.5137138  61.2706985
  43.4260216  35.3813438  21.7683945  42.8120956  35.9637222  21.3210011
  43.1504555  34.5009727  21.5129757   9.3876743  46.0805321  84.9835587
   9.9330206  46.8558426  84.8504333   8.8252192  46.0475922  84.2097397
  16.6261940  38.1117859   2.7134366  16.9842892  38.3499527   1.8582896
  15.7497873  37.7781067   2.5216002  84.0031586   3.1621842  67.8692780
  84.7377701   2.7663672  67.4003296  83.5243149   2.4187067  68.2355881
  81.6207352  24.5273571  10.9402294  82.3675613  24.4202309  11.5293016
  80.8626785  24.5822773  11.5220938  70.1813126  50.4147606  54.4557991
  69.5253754  50.1367722  55.0950966  70.4451675  49.6063499  54.0163841
  83.0965500  51.2580605  86.4837723  82.7881851  50.8463593  87.2910233
  83.8678284  51.7586899  86.7497177  14.0499239   2.3090444  13.3895330
  14.3030262   2.7282610  14.2119856  13.0976486   2.4004784  13.3572292
  30.1237793  70.9629974  24.7346001  30.5419102  71.4180450  25.4655819
  30.8524666  70.6578140  24.1941319  79.5611954  62.8706741  30.8782864
  80.1658401  62.3770294  30.3242493  79.9389572  63.7491074  30.9216766
  65.8235245  48.6679306  85.2296448  65.1832428  48.7177963  85.9394150
  66.1093979  49.5723381  85.1009827  75.4823227  15.5083084  81.3361282
  75.9031906  16.3595257  81.4566956  76.2040634  14.8797741  81.3527756
  60.6469917  42.1150665  22.6176796  61.4614334  41.6123657  22.6321774
  60.0691452  41.6182365  22.0384712  71.6325531  41.2932549  14.8168154
  72.3746414  41.1418762  14.2314739  71.9636612  41.0685577  15.6863632
  16.5344810  70.2244720  27.7546425  16.4397430  70.8157043  28.5014343
  16.7095642  70.8026276  27.0121365  65.3646774  59.7759514  51.2209854
  66.2314224  59.8504639  50.8216934  65.3940659  60.3711891  51.9700241
  29.2122555  71.0123749  20.1427898  29.3831367  71.4532700  19.3105392
  29.9082108  70.3591919  20.2151260  44.5312538  50.5286407   4.3001575
  44.2462387  50.4967422   3.3869317  44.8704224  49.6509895   4.4760060
   9.5048380   8.8072052   8.5165548   9.4285431   8.8994427   9.4662409
   9.6679211   7.8741021   8.3788767   1.1669779  54.1442451  73.7745209
   0.5146448  54.1279335  73.0742188   1.9454807  53.7452126  73.3860168
  70.6568375  56.0659790  83.7508545  69.9112396  55.6524124  84.1859283
  70.2899323  56.8480186  83.3385162  67.5806427  44.0744362  76.9664917
  66.9555206  43.3504181  76.9311905  67.1269150  44.8034630  76.5435486
  82.8124161  67.0311813  10.5532646  83.3496552  67.1901321  11.3293676
  82.1759720  66.3732910  10.8331738  82.8943558   2.9559662  46.1295509
  82.3520584   3.6103654  46.5699005  82.2752609   2.4403369  45.6127586
  84.7215881  67.6465454  45.0284538  84.1274490  67.2021103  45.6331902
  85.5871353  67.2998810  45.2449608  72.2040939  32.1852760  68.1857376
  72.4881439  31.6522064  67.4431839  71.2934036  32.4045105  67.9887390
  44.8339272  65.1478119  66.7612610  45.6002045  64.5871811  66.6398392
  44.1008034  64.5375214  66.8406143   5.4678836  11.4963675  87.5562515
   5.8352256  11.2398081  88.4021072   4.6659002  11.9699316  87.7771378
  84.1989441   7.8417211  83.6572495  84.7999268   7.0968866  83.6735916
  84.4292221   8.3178186  82.8594131  60.4725266  42.0551338  58.0815887
  59.8996544  42.0647507  57.3148079  59.9191132  42.3662567  58.7979431
  28.5985718  60.2947159  28.8406086  27.9393692  60.9108620  29.1600552
  29.1098804  60.7981300  28.2070694  79.2249222  38.0196495  56.0580330
  79.9363022  37.9681473  56.6964073  78.9420090  37.1127319  55.9410019
  43.6310768  59.5938492  51.1262817  42.7080460  59.3841591  50.9838943
  43.6239357  60.2376976  51.8345451  60.7721786  32.9584122  55.6228828
  60.5425529  32.7340622  54.7211227  61.6573486  33.3176384  55.5623436
  38.9577980  49.5707436  85.7156219  38.8096466  50.1683502  84.9827118
  38.1066628  49.5076027  86.1489944  63.8900604  42.0912781  88.9835434
  64.4640503  42.0005302  89.7441559  64.4355240  42.5153885  88.3210983
  31.7685070  18.4277859  70.8115768  31.1115932  18.8533096  71.3625946
  31.3819275  18.4261341  69.9359131  46.3241501  69.7974319  76.0196762
  46.7607384  70.6000366  75.7342911  45.8843384  70.0406876  76.8343048
  60.3867302  26.5946236   7.5404654  60.8999519  26.6140060   8.3482151
  60.1586952  27.5102329   7.3795547  81.2934723  38.4810715  58.1173439
  82.1688309  38.8336716  57.9571991  81.0320816  38.8607903  58.9562263
  11.0280647  43.7487907  57.8977623  10.5068903  42.9665108  57.7170792
  10.7015419  44.0648079  58.7402306  63.3241997  19.6489773  25.4613018
  62.7649994  19.6165676  24.6851063  62.7760735  19.3036823  26.1659737
  72.4017944  17.5192165  45.8540993  73.1723328  17.3714752  46.4024391
  71.7131729  16.9943905  46.2622604  80.2913666  49.5105095  67.2696915
  80.2669525  50.4593391  67.3936157  81.2073517  49.2735100  67.4146957
  82.9575882  61.7719383  40.1299858  83.5970459  62.3921928  39.7798309
  82.3669815  61.5975151  39.3971863  26.6775646  21.4121342  84.0677185
  27.2486172  20.6543121  83.9418793  26.4460506  21.6875000  83.1806946
  25.6450119  28.6019745  75.4460449  25.7421246  27.6607857  75.3012619
  25.2518005  28.9294319  74.6371002  43.9418144  70.6667938  32.4360771
  43.1767921  71.2347717  32.5275879  44.6103096  71.2270737  32.0418358
  71.6633682  63.2198029  15.1119518  71.7113647  64.1513290  15.3268766
  72.5575867  62.9847794  14.8642063  41.7737503  39.7113609  22.0744057
  41.0282631  39.1399536  21.8900986  41.5577240  40.5352821  21.6376915
   3.2779560  46.5392532  56.4234886   3.7490826  46.3850021  57.2423172
   3.8038921  46.0964661  55.7574844  18.4982452  65.3392563  31.6435184
  18.0179768  64.9708557  32.3850403  18.9917564  64.6006241  31.2870159
  34.5790253   0.9309117  37.3921242  33.7108955   1.0183632  37.7857437
  34.6283150   1.6473174  36.7592201  79.2866669  57.6727524  75.0861816
  78.4597168  58.1173439  75.2725067  79.0273666  56.8405151  74.6907349
  12.7334242  49.7342567  15.3698044  13.0378618  48.8291664  15.3037825
  11.9768820  49.7757568  14.7848654  65.4939728   9.8713293  65.8834076
  65.2366409  10.4987335  65.2078476  65.0265579  10.1587286  66.6677246
  24.8234825  41.6740036  68.4045868  25.5794373  41.1207581  68.6012573
  25.1089935  42.2174339  67.6701431  67.4569397  33.6362610  78.9349289
  67.1107483  33.4464417  79.8069153  67.9565506  32.8542786  78.7001419
  50.4310417   4.4087267  23.3436852  49.7386360   3.7859674  23.5649891
  51.0759811   4.3086147  24.0438728  53.6776848  12.0430984   4.3234835
  52.8990211  11.4938917   4.2324457  53.6150284  12.4026899   5.2083564
  29.9670582  47.1248627  76.6552887  30.6106853  47.6981430  76.2389679
  30.4769287  46.3748322  76.9614182  48.8144836  45.0736237  52.5842285
  48.0878754  45.5009766  53.0376968  48.5981560  44.1415558  52.6104164
  40.6950188  19.1557713  69.2216415  40.9576530  19.7577267  69.9179993
  41.5188141  18.8820839  68.8182983  14.8870058  41.3587685  50.1997261
  14.3425341  41.5847092  50.9538727  14.9560661  42.1732063  49.7015800
  76.6581497  29.2919693   4.9275341  77.5960846  29.1264153   5.0229163
  76.3851166  28.7177219   4.2120447  44.9893990  68.9427643   4.0964398
  44.0969620  69.2119598   3.8789108  45.1625404  68.1988754   3.5194805
  37.8762970  42.9224091  48.1915207  38.2369156  42.6929092  47.3350639
  37.0229683  42.4894371  48.2159309  79.6271286  20.9524784  82.6596222
  79.3662720  20.6069031  81.8059464  79.4157715  21.8849983  82.6152725
  19.3975677  28.0096111  23.2760391  18.6995354  28.3658276  22.7264080
  19.1978550  28.3311863  24.1552067  79.1277008  34.3559380  34.7382431
  79.9681015  34.6732635  34.4077110  78.6288376  34.1353226  33.9516678
  34.7139359  65.7473755  15.9857759  35.5035324  66.2027130  15.6934795
  34.6957169  64.9428024  15.4675407   4.0381594  48.4511642  68.6013641
   4.1457725  47.5644798  68.9455185   4.0136189  49.0086136  69.3791046
  55.1922302   4.2243733  47.4883804  54.2841339   4.0713749  47.2272682
  55.2962837   5.1750216  47.4474831   8.9613457  41.2393456  25.3927212
   9.6790047  41.7224884  24.9831219   9.0483932  40.3483353  25.0539684
  48.6093292   9.9509926  50.4926453  48.4048843  10.1854467  51.3978882
  49.4028778  10.4465275  50.2902679  42.6170654  13.7216091  74.5080719
  42.4567680  13.7526236  75.4512405  41.7520752  13.5822639  74.1225739
  26.8430920  68.6321182  85.7347336  26.5018406  68.3442230  84.8880386
  27.6056767  69.1677246  85.5160370   8.2623463  54.0827713  33.5898552
   8.0572147  53.9648476  32.6623573   8.9422426  54.7564545  33.6010132
  42.2310219  20.1717491  85.0920944  42.3126869  20.4541988  86.0030212
  42.7705994  19.3830738  85.0365829  62.6759529  11.0745935  23.5891647
  62.5262451  11.9794149  23.3150883  63.6150627  10.9385366  23.4635201
  84.4181976  44.5661087  70.8487091  84.9140472  45.3724632  70.9906845
  84.9853287  44.0307617  70.2937317  55.4026184  55.5519676   4.1001301
  55.9618683  56.2536125   4.4335370  55.3556480  54.9212494   4.8186154
  39.5032768  38.7354240  78.8907700  40.3803062  39.1188011  78.8992538
  39.0651131  39.1561584  78.1510162  83.5585938  37.1840630  22.9317284
  83.7428665  36.8086548  23.7927418  83.8983841  36.5390205  22.3114948
  52.1026192  63.5486031  11.0067129  52.5942879  64.3698807  11.0077572
  51.1964874  63.8121223  10.8463516   0.7400168  40.9014397  79.9233093
   0.0918145  40.3113976  80.3079071   0.8908553  41.5638199  80.5976486
  49.6752777  44.5990372  40.2978401  49.3366203  45.4659348  40.5215302
  49.4596367  44.4893036  39.3717270  47.7506714   9.2933559  47.5849686
  47.9019279   8.3540602  47.6902161  47.5544968   9.6048489  48.4685478
  37.4007149  36.5265541   6.7663631  38.0687637  35.8413582   6.7875190
  36.7337761  36.2300148   7.3856316  70.0822830  28.3757534  68.6758499
  70.2414093  28.7444534  67.8069611  69.1842270  28.6330795  68.8844376
  55.7511864  34.5229912  17.0570660  56.1657410  35.2031441  16.5262470
  55.2978210  33.9674072  16.4230156  71.3764877  41.8720779  60.5854874
  71.5843277  41.7150574  61.5065613  71.3718491  42.8254547  60.5001526
  49.3773880  14.1323872  29.9519730  48.7327728  14.1958790  30.6567230
  49.9128876  14.9202480  30.0454903  47.9131241  37.2478714  22.5732117
  48.0455322  38.0193558  22.0222931  47.8602448  36.5186310  21.9554424
  42.9712105  56.3955879  18.6233864  42.7519226  55.4812431  18.4441738
  43.9263878  56.4052086  18.6848087  46.2966080  46.5138855  53.1484261
  46.1815720  47.4450188  53.3381386  45.4592819  46.2405739  52.7736969
  34.4522476  60.7653427  24.6493340  34.0578461  60.3116913  25.3942356
  34.1181908  61.6603203  24.7097397   5.0440011  50.0017395   2.2219145
   4.1430693  49.7771530   2.4545407   5.4119968  49.1884537   1.8764054
   1.8304509  13.3117056  69.9128799   1.1739677  13.1432915  70.5888214
   1.9018043  14.2656994  69.8806992  28.7152100  47.0194702  79.4437180
  29.2764206  46.8152351  78.6956787  28.8064518  47.9651337  79.5604630
  11.1683493  36.9902992  13.6925697  10.8155699  36.3030663  13.1273346
  11.9863672  36.6259117  14.0306559  40.0446281  37.1903801  73.2978134
  40.3720589  36.9705925  72.4256287  40.7767830  36.9986687  73.8838425
  41.8218155  31.3246632  63.2628670  41.0293503  30.9483166  63.6457443
  41.6457672  32.2647209  63.2237358  59.7408447  39.8671761   2.5162938
  59.6415939  39.9619102   1.5689785  60.0165405  38.9587288   2.6385703
  42.4816055  26.0854244  17.2697201  42.0108528  25.4044743  17.7502728
  43.3217659  25.6843166  17.0473003  12.0289736  66.3529434  14.5694380
  11.3753557  66.3002777  13.8721275  11.5194273  66.3137741  15.3787947
  77.3227234   3.5238621  44.2384872  78.2091599   3.8797464  44.3001175
  76.8355560   4.1795168  43.7394676  62.2712936  32.3894386   3.8739972
  61.5643196  31.8508949   4.2295098  62.5549812  31.9235039   3.0874498
  23.1817722  49.3733368  64.5278244  23.5900116  49.6251259  65.3561783
  22.4697037  48.7857208  64.7806015   8.2975302   0.3300777  82.4797516
   8.6074257  -0.5699458  82.3789825   8.2429333   0.6661656  81.5851593
  46.2403679  42.6283913  21.5693207  46.8815460  42.5755424  22.2780743
  46.7266884  42.3694344  20.7865906  56.3086433  64.2023926  66.6118317
  56.1593361  63.5088768  65.9692001  56.4471817  64.9902420  66.0861588
  69.9012146  59.0474892  13.8564615  69.6810837  59.0625763  14.7878847
  70.4652557  58.2806740  13.7560453  18.1499844  45.1513977  57.2917366
  18.8167553  44.7034492  56.7711716  18.6452045  45.7478256  57.8532181
  17.0042000  31.2336121  78.6681061  17.9484348  31.0982323  78.7476349
  16.7421856  30.6713448  77.9391098  10.6660309  41.1963692  32.2511101
  11.3552113  40.5418396  32.3645020  10.0389004  41.0072212  32.9490776
  56.4178810  51.9493599  53.8160629  55.6748161  51.6818275  53.2752113
  57.1696434  51.9140358  53.2245903  48.9554062  25.7385960  81.1290359
  48.4381371  26.0147839  81.8855972  48.6707687  26.3159695  80.4206238
  77.2721024  39.1638145  73.1713028  77.0339355  39.3133278  74.0862579
  76.8259735  38.3498192  72.9376144  83.4825516  35.6704903  18.8335037
  84.1283264  35.5550919  19.5305653  83.2609863  34.7796288  18.5623894
  72.5893250  67.4956284  81.0594788  71.8795471  68.1202469  81.2088013
  73.0402069  67.4395370  81.9019699  50.4272156  35.4892464  18.7665749
  49.8277397  36.1672897  18.4549370  51.0800247  35.4086761  18.0711765
  10.2815800  26.2988720  71.7293320  10.2225361  27.1740685  71.3462219
   9.5801229  25.8041611  71.3057175  53.7536850  14.2282982  16.1077366
  52.8830414  14.5302382  15.8488083  54.3231316  14.4908161  15.3845205
  70.9238968  44.7723961  60.1056709  70.0881882  44.4307213  60.4235954
  70.9000702  45.7042160  60.3233452  76.5148163  35.5042648  69.2648010
  76.7193604  35.8539047  68.3975449  77.1615982  35.9071388  69.8441162
  22.2129345   3.3036418  77.8005142  22.0325375   4.1675587  78.1711044
  21.3535995   2.9686656  77.5444565   3.6853714  26.4869556  82.5187607
   2.9555397  25.9683285  82.8572922   3.7578659  27.2233448  83.1259766
  48.4139442  63.9508057  73.3350220  48.1311493  64.5842743  72.6754913
  47.6001625  63.5737000  73.6693649  85.2805252  11.5864305  49.7927666
  85.6812286  11.9406834  50.5866013  84.4562912  11.2021856  50.0914803
  23.9369850  45.1326332  45.3413887  23.0598755  45.5011253  45.4468575
  24.1453762  44.7611465  46.1985970  37.4220619  13.2778635  62.8784943
  38.2041893  12.7489386  62.7211990  37.2872772  13.2305288  63.8249741
  79.1636734  54.8186455  19.1635952  79.4581985  54.3016243  19.9133835
  78.3339691  55.2019348  19.4480400  80.9167099  65.6799240  38.4380417
  81.2848206  66.4613876  38.0256882  80.0037384  65.6650467  38.1508064
  39.2459908   4.8165574  86.9382858  40.1938438   4.9489164  86.9211960
  38.9353485   5.3985610  87.6318283  51.8601685   6.3018727  62.5932083
  52.6980019   6.0626087  62.1969490  51.3455086   5.4951186  62.5707169
  28.0566158  65.4871140  12.7329903  27.7433529  65.1937027  11.8774166
  28.9881859  65.2671051  12.7353134  69.9285202   5.6168556  59.6948776
  69.5821762   5.2385292  58.8867035  70.1550980   4.8602405  60.2356491
  73.2976761  23.3239021  44.3704300  73.3909760  24.0623302  44.9723053
  74.1274033  22.8517551  44.4401741  25.1819344  68.3208694  87.8450012
  25.6039677  67.5163116  88.1463470  25.7552013  68.6466446  87.1511230
   9.4009218  16.4522781  17.9398460   9.8969765  16.9876614  17.3205509
   9.4065180  16.9585381  18.7521877  60.4371948  62.9297333  86.9056473
  60.4513245  63.8861008  86.9429626  60.4688454  62.6538048  87.8216705
  74.5444565  30.9585056  61.7527618  75.1616745  30.5161552  62.3355141
  73.9244308  31.3880310  62.3420906  79.8379898  60.9533920  26.3774834
  79.6280365  61.8845940  26.3066540  79.3719025  60.6617050  27.1610107
  56.3990288  29.5858402  60.1012993  57.2517433  30.0020752  60.2272377
  56.5323639  28.9832745  59.3696098  29.0071335  15.4624615  79.0193100
  28.6083298  14.7757683  79.5537643  29.6880913  15.0120020  78.5196915
   7.4319487  27.1127644  67.2147369   7.1491604  27.4296532  68.0725479
   8.1686716  27.6776924  66.9816513  82.9741364  65.4514160  51.1765289
  83.1406937  65.7098465  52.0830078  82.2514496  64.8264465  51.2345734
   0.6942742   5.0386772  63.8198624   1.6418827   4.9171352  63.8790016
   0.5483785   5.3533549  62.9277153  71.8767242  29.3510342  11.0818396
  72.7813492  29.4294510  10.7789660  71.5044174  30.2233429  10.9526262
  59.4424591   4.4986248  34.4799805  60.1864510   4.3694539  33.8917389
  59.2513237   5.4347792  34.4224091  24.4629154  28.4405556  82.4577026
  23.9249783  29.1685200  82.7690201  24.3040791  28.4117393  81.5142136
  46.9889259   5.5262847  39.1122589  47.8008842   6.0054398  39.2776833
  46.5059586   5.5815573  39.9368324  84.1753540  64.9858170  53.9668388
  84.7312546  65.6105804  54.4325485  84.4638290  64.1286011  54.2801971
  28.3132935  40.2832069  74.9828720  27.4101925  40.0514908  75.1995468
  28.3418751  41.2365799  75.0634689  67.2911606  50.8442650  30.2566013
  67.1334610  50.0300751  29.7786274  67.9973526  51.2729149  29.7730942
  58.4096298  33.1906776  44.5058060  59.1447716  33.7646751  44.2905846
  58.2130508  33.3865280  45.4219017  44.9759483  21.0767117  33.6026573
  44.7743492  20.7164097  32.7390747  45.2886543  21.9637833  33.4250298
  52.8529510  60.2447853  32.4541130  52.6319427  59.3816147  32.1043663
  52.0325737  60.5703316  32.8245659  44.6393127  18.6760159  40.7351952
  45.5583534  18.9105282  40.6063652  44.6683197  17.8491325  41.2165031
  79.6045990  40.0099335  75.9047470  80.3068390  40.2567673  75.3029404
  78.8378067  39.8944435  75.3435669  12.9603500  36.0324821  26.6842003
  13.6264658  35.3681183  26.5077305  12.9393730  36.1030312  27.6385670
  24.4726200  52.2416115  62.1966438  23.7242737  52.5988808  62.6747360
  24.8778019  51.6282425  62.8096962  14.1263962  24.8887672   0.4526556
  14.5289745  24.4892521   1.2237270  13.3037500  25.2566071   0.7754223
  21.4780388  36.6005936   4.4591413  21.4415455  36.0135422   3.7039773
  20.6918755  37.1409760   4.3806391  51.1124802  17.7063637  27.7527828
  50.5026817  17.1861477  27.2295666  50.5893440  18.0171051  28.4917011
  63.6455650  34.5536957  32.9291992  63.2364044  34.9885330  32.1810455
  64.3395462  34.0181046  32.5448074  39.1214828  39.9704285  82.1157379
  38.9581032  40.1043053  81.1821289  40.0716896  39.8754120  82.1813889
  27.0283661   8.2614431   1.2538172  27.4977493   7.5586843   0.8043281
  27.3442173   9.0640831   0.8387990  59.7151260  25.8943939  56.0267143
  60.4383850  25.4795494  55.5565758  58.9749641  25.3009605  55.8993340
  14.0812902  37.4483871  61.0309410  14.4239063  37.9044991  60.2622986
  13.2819834  37.9247093  61.2555695  85.4920959  63.5383110  66.3817978
  86.2997284  63.3351707  66.8537140  84.8336487  62.9667931  66.7768250
  49.3675537  18.0375309  42.2722282  50.0707512  17.3914680  42.3381615
  49.7989273  18.8777695  42.4276352  65.6897964  12.9588947  72.1053314
  66.2915802  13.4991207  71.5932388  65.0678406  13.5825720  72.4800720
  84.0523682  24.8557415  12.5396938  84.5862274  25.4186039  11.9789667
  84.5056915  24.0127106  12.5339117  42.7481117  58.9873352  32.5314331
  43.4410133  58.4039612  32.8409348  43.0861664  59.8680077  32.6938248
  64.7832489  28.0706730  66.6902924  64.2356491  28.8555965  66.6742020
  64.2200317  27.3785610  66.3438873  56.5648880  29.5168514   2.5831785
  55.8849754  29.1294861   3.1344485  56.2089386  29.4706516   1.6958244
  79.0877762   4.4271441   7.2580032  79.6951752   4.9515357   6.7361693
  78.3500977   5.0130849   7.4275136  19.5689220  70.4407883  39.5130882
  19.1844177  70.9581757  40.2206879  18.8344822  70.2497025  38.9297218
  10.8298531  51.3003311  67.1734695  10.3702183  50.5034332  67.4378967
  10.2407703  51.7196808  66.5462875  19.3371143  29.4750462  84.6085281
  19.2004757  30.2632141  85.1342239  18.4760532  29.2823849  84.2374649
  38.0827713  63.3234482  85.7708817  38.1216011  64.2798157  85.7614365
  38.7672386  63.0620193  86.3868256   9.7079277  61.5047188  69.5122528
   9.9279032  61.0729179  68.6867905  10.4970150  61.4158783  70.0467453
  75.6191940  38.5844307  65.4327698  75.8458939  37.8218498  65.9650345
  76.2536392  39.2533455  65.6901779  56.1454620  41.6427193  11.8578606
  55.5797920  41.4642067  11.1066046  56.7387619  42.3292923  11.5531549
  86.5271683  56.5529594   5.6013999  87.4799423  56.4908333   5.5336499
  86.2896194  57.2575111   4.9985642  38.7981529  23.4142857  84.6472702
  38.1042137  23.2342129  85.2815094  38.3836937  23.9750519  83.9915314
  77.9844971  26.4640369  78.3434143  77.3595657  26.0657997  77.7375259
  77.8440704  26.0023766  79.1700821  71.9843292  17.2605610  36.7245827
  71.6614914  16.3783646  36.5409088  71.3410721  17.6298637  37.3296204
  65.5349274  71.8133698   7.1358070  66.0713577  71.0307083   7.2619572
  64.6332092  71.4982376   7.1976819  49.8487778  45.2643356  60.4913139
  49.3481216  44.9154434  61.2287750  49.2756004  45.9261589  60.1044197
  46.6801796  33.2097549  88.7904892  46.0651779  32.6135826  88.3631973
  46.4317780  33.1881866  89.7146454  29.7721767  55.2032089  79.6158295
  30.4698639  54.9875984  78.9969788  30.2205048  55.3088837  80.4549103
  66.3816528  41.3264809  27.1803493  65.9167557  41.9684372  26.6436996
  65.8220901  40.5500526  27.1635170  43.5800591  59.5297699  47.4630508
  43.3674355  60.2919655  46.9244576  44.0049248  59.8956909  48.2388268
  41.5546570  25.9045525  10.2018709  41.6863251  25.0259190   9.8456430
  40.7164192  26.1878986   9.8367586  82.8092194  39.1155930  77.3069763
  82.7525635  38.4589577  78.0011292  82.9657364  38.6088600  76.5101318
  31.8770409  46.9042549  67.3160095  32.8030128  46.7467728  67.5004272
  31.4126511  46.2725716  67.8651505  10.4310455  64.4738464  59.9370918
   9.9782286  64.1421432  59.1617432   9.9500580  65.2666397  60.1745186
  81.1630859  17.4436474  58.9099960  80.5406494  18.0373554  58.4900970
  81.1767807  17.7199421  59.8263512  70.3251190  56.7939301  19.9250889
  70.5137177  56.5940247  19.0081921  71.1844940  56.8225670  20.3456573
  44.9141121  31.4910908  66.0150452  45.4711990  32.2613716  66.1271057
  45.4133072  30.9169197  65.4342194  60.7941055  42.0446548  34.5435066
  60.4098892  41.5444336  35.2634964  61.6765442  41.6865349  34.4471817
  27.7692318  63.4271088  49.6795006  26.8591251  63.5235710  49.9599190
  27.7119236  63.0131302  48.8183556  66.6679840  52.7806549  16.0637798
  67.3885422  53.2038879  16.5305920  66.1591568  52.3485870  16.7498074
  25.1799183  40.5840111  65.0375595  25.7608376  41.1002045  65.5964050
  24.7978802  41.2221451  64.4350128  44.4773483  41.3929405  42.5090942
  44.7770424  41.3270645  43.4157753  44.5294991  42.3270798  42.3068695
  72.1129608  13.1741009  74.1761627  72.8413086  13.5293159  73.6666870
  72.2022324  13.5814152  75.0377655  84.0054398  11.4464378  69.3164062
  84.3928604  12.2923136  69.0913925  84.7477798  10.8427782  69.3441010
  75.6159744  33.4077759   4.5812001  74.9109268  32.7718506   4.4598231
  76.3081818  32.9164162   5.0235195  52.8157806  24.9743919  40.6067505
  52.1392746  24.4332008  40.1997070  52.7049217  24.8298206  41.5464516
  26.3536167  52.0749130  84.4761963  26.8546677  52.7889252  84.0820312
  26.5850506  52.1039085  85.4045410  79.5348969  35.3570137  20.1029873
  80.1708298  36.0227280  19.8409958  78.7068634  35.8318291  20.1746616
  40.7221375  71.0802689  71.9420929  39.9836845  70.6948700  72.4136734
  41.1811523  71.6015472  72.6007385  67.7364120  25.8553715  17.7984333
  67.7507248  24.9021358  17.7126045  68.6472168  26.1209869  17.6714706
  60.8702736   5.4018555  20.0665646  60.1337852   4.7916160  20.1042728
  60.5463257   6.1949029  20.4936047  15.1503315  65.4360123  80.9569092
  14.3633327  64.9003067  81.0563049  14.8199434  66.3237000  80.8187332
  29.4808025  38.5864410   9.1029005  28.7059536  38.7948608   9.6248236
  30.0309505  38.0659294   9.6882477  85.3313751  18.5068951  17.8266506
  85.6897964  17.9065609  17.1729183  85.0481720  19.2693176  17.3219299
  27.6721592  62.2500725  43.1433334  27.1661015  61.4440880  43.2459297
  28.5763302  61.9890785  43.3182297  70.5610504  45.9781189   0.9082505
  70.8067093  45.1849403   0.4320733  70.9698334  46.6896324   0.4154217
  68.9557724  16.9926395  16.5708370  68.4305267  16.4164925  16.0154934
  68.3370438  17.6521301  16.8846569  55.5349922  45.5468559  38.2430725
  55.8921738  46.1861916  38.8594360  54.6547813  45.8682938  38.0477791
  42.8535614  29.6880875  67.0556641  42.8750496  29.1236820  66.2828674
  43.2588387  30.5056286  66.7665176  22.6208057  26.8197689  69.7934570
  21.8968410  26.7184830  69.1755142  23.1711254  27.5015202  69.4079742
   3.5557797  29.0836277  42.9690361   3.5242875  28.1270275  42.9564896
   4.4830198  29.2912483  43.0845833  59.4213181  23.3772087  39.2420349
  59.8723907  23.5270233  38.4111786  59.3618546  24.2447529  39.6421127
  49.7114258  31.1842766  61.9310493  49.0790482  31.5962944  62.5197525
  50.0544662  30.4424496  62.4292908  57.4454575  18.6892071  56.2937088
  56.5100784  18.8916492  56.3116035  57.4831963  17.7440853  56.1469040
  36.6011314   4.1554875  86.1667938  37.4218483   4.6468105  86.2022552
  36.8028069   3.3909202  85.6273499  73.0714188  47.2795563  76.3709869
  72.3670654  46.8063202  75.9280701  73.3552322  46.6887245  77.0685501
  10.7997398   6.8744016   7.2274251  10.1474485   7.0867658   6.5598555
  11.1317940   7.7242622   7.5167494  51.1070976  38.8668137  57.9253998
  50.5656128  38.8285904  58.7137909  51.3732567  37.9600067  57.7734413
  69.8949966  11.9747648  55.6779060  70.0073853  12.4337664  56.5103226
  70.1705627  11.0764809  55.8606033  54.4125824  41.5966263  15.8818111
  55.0656471  41.1591454  15.3355980  53.7119484  40.9519081  15.9802198
  47.7620811  62.2781448  27.3327312  48.7096481  62.3495636  27.4478302
  47.5871582  62.7242737  26.5041161  78.6250000  33.8606720  22.5562305
  78.6755905  34.7046242  23.0050220  79.2296982  33.9448051  21.8190136
  41.8759270  44.9245453   7.8310156  42.1293030  45.7509689   8.2421837
  42.3627892  44.2572403   8.3146505  31.5278950  10.6972237  68.7479095
  30.6191902  10.7998304  68.4651413  31.4760418  10.6314001  69.7014313
  38.2585030  11.1610470  14.2026415  38.4703293  10.7722368  15.0512810
  37.8273430  10.4573603  13.7177114   2.1378582  32.8706894  76.9769211
   2.5386820  33.1686592  77.7934952   1.6472220  32.0865402  77.2231369
  38.5216827  46.2616196  77.3306351  38.4351196  46.3583336  78.2789917
  39.3176117  45.7427444  77.2144547   3.6014452  38.2971954  20.7041073
   4.3191814  38.1811523  21.3266983   3.5037892  37.4403572  20.2887478
  34.6033325  53.1963272  32.3716545  34.7273064  53.0696831  33.3123055
  35.4749451  53.4160233  32.0426292   2.5526798  53.7489815  17.1450825
   2.2021978  52.9742355  17.5845890   1.7831281  54.2860909  16.9565678
  41.2472305  48.7423820  65.0508347  41.5324020  48.4384880  65.9125595
  40.3740540  48.3659172  64.9409790  30.4162197  30.1558342  84.8574753
  30.8694668  30.0871372  85.6977615  29.6762981  29.5534954  84.9345016
  11.9565763  67.0765839   9.9136372  12.4831495  67.3973465  10.6457996
  11.1894598  67.6489563   9.9014578  68.1890640  61.9205780  47.2766228
  67.3840790  62.2100563  46.8471565  68.4749374  61.1640091  46.7646523
  57.1512489  66.5647430   3.3664579  57.4717331  67.0027847   4.1548991
  57.1177025  65.6381226   3.6041279  82.1788406   8.5249462  33.6931152
  82.2503891   8.9748898  32.8512955  82.2120361   9.2266331  34.3433228
  71.7450562  56.2708282   4.2718363  71.0959702  55.9678879   3.6369021
  71.3887939  57.0948448   4.6039610  36.6690102   4.8277359  66.5541306
  36.8803902   5.7347097  66.7753754  37.0770798   4.6883125  65.6995697
  16.7886314   3.0910041  77.0727997  17.6062927   3.4649680  76.7444534
  16.6041813   2.3616295  76.4810028  60.6067162  16.6718502  84.8851166
  59.9449768  16.0285282  84.6312103  60.2456131  17.5116692  84.6013184
  64.0212936  39.1664696  15.4956179  64.1968460  39.3784447  16.4123955
  63.7530403  38.2477303  15.5093403  38.8837662  24.0170212   7.8566360
  38.0737305  23.5308189   8.0105190  38.9835930  24.0209446   6.9046636
  10.8977919  55.0559540  42.7669525  10.3841619  55.1433830  41.9639740
  10.2859230  54.6865044  43.4036255  13.2730141  42.7258987  52.1858788
  13.8014383  43.5016479  52.3735352  12.9893122  42.4155998  53.0457993
  29.7563324  41.8439102   8.8293676  28.8513584  42.0932922   9.0166197
  29.8202610  40.9354095   9.1239395  54.4526520  71.5860367  23.1515007
  55.0245056  71.6569595  22.3871803  54.6100655  70.7036209  23.4873447
  83.4433594  14.3806467   5.7343822  82.8440552  13.9697676   5.1112881
  84.2520676  13.8742390   5.6584229  33.5728874  39.5782127  72.4414520
  33.0797005  39.3211479  73.2205048  34.3930969  39.0888748  72.5049515
  86.5528870  15.4861088  49.3288116  87.0316086  14.7991238  49.7926140
  85.8429565  15.0241108  48.8829498  48.9902611  15.1244793  83.1828537
  48.8076439  15.5010862  84.0436935  48.5230103  15.6914997  82.5693436
  53.9110146  58.9926491  34.7673111  53.8051414  59.4919205  33.9575272
  54.4850845  59.5340233  35.3091507  18.0952034  56.7279892  77.8870773
  18.5839405  57.3876381  77.3949127  18.1195869  57.0378456  78.7924118
  61.4678268  67.3874283  50.2450142  62.0039444  66.7448349  50.7096367
  62.0925369  68.0463715  49.9420891  37.1687202  68.6632919  28.1639633
  36.7516556  67.9231873  27.7228985  37.4095345  68.3236923  29.0258865
   4.5994945  52.3063812  54.5977936   4.7899141  52.6925964  55.4526672
   4.8852224  51.3962708  54.6771355  51.1492538  51.0428619  36.2695427
  51.9317398  51.3677368  35.8241234  51.0017128  51.6668968  36.9802094
  10.5306864  33.3767395  15.7246037   9.7439795  32.9958038  15.3344612
  11.2382517  33.1252289  15.1310358  66.6286545  12.6938829  49.1207962
  66.8174744  12.8696318  50.0425835  67.4689636  12.8109560  48.6776314
  72.7223053  59.5462646  73.0548019  72.9387817  58.9100761  73.7364426
  73.2923889  59.3149223  72.3215027  86.2567520  27.9673290  36.9765854
  85.4408264  27.4675865  37.0039940  86.9394836  27.3213234  37.1576576
  79.9247818   3.4535177  73.7043228  79.9021378   4.1330051  73.0305176
  80.7019119   3.6578286  74.2244873  83.0436478  51.1203957  59.3863983
  82.7544785  50.6904678  60.1912422  83.8501358  50.6636200  59.1473160
  40.9297066  35.9522018  33.5505219  40.5212479  35.1202469  33.3112526
  41.6908035  36.0199089  32.9740028  69.6050415  10.7593899  86.4234543
  68.6987762  10.4581442  86.4879379  69.5374680  11.6501074  86.0795288
  82.0750046  12.4048233  26.3431664  81.2184525  11.9916010  26.4517994
  81.8757095  13.3138857  26.1192913  58.9081154  61.8541718   8.0079594
  57.9857788  61.6695480   8.1852798  59.0865631  62.6638641   8.4862719
  77.6702347  48.1436615  58.3679657  78.3011856  48.8615150  58.3148956
  78.1038513  47.4831123  58.9082298  72.8912048   2.1614161  14.8073235
  73.8127747   2.0524535  15.0419912  72.6688538   1.3609554  14.3318701
  31.0292816  16.6345310   9.8250093  31.1551552  16.3866386   8.9090748
  30.9341393  15.8019352  10.2875738  60.1537971  32.4880295  53.0294609
  59.3833046  33.0367203  52.8827972  60.6373482  32.5286751  52.2043800
  79.0580063  17.7687645  28.9340267  79.2092972  18.7136497  28.9572144
  78.1220169  17.6716957  29.1093636  27.1642628  48.1565819  51.0663338
  27.5728893  47.6587296  50.3582382  26.7099037  47.4975891  51.5912323
  83.9693375   6.4976521  32.3693275  84.9025650   6.5058565  32.5820312
  83.5668640   7.0544229  33.0358543  26.7434616   3.9698370  64.2601395
  26.2972546   4.1216540  63.4270248  26.6387768   3.0319881  64.4204941
  24.5279541  57.3578835  63.3479080  24.6622639  56.8402405  62.5540314
  23.5872593  57.5342674  63.3625336   1.4469336  70.4862366  60.3193665
   2.2676928  70.9030457  60.5817719   1.0772756  70.1501007  61.1358185
  64.0179749  71.4318314  86.9995499  63.9037514  70.4854965  87.0868988
  63.1360550  71.7653046  86.8344955  64.1863861   7.5897036  49.6899948
  64.7194138   7.7439723  48.9100456  64.4316559   8.2933922  50.2907410
  14.2160711  59.3040085  20.4161816  13.6423807  59.9996109  20.7375031
  14.4244261  59.5611534  19.5180168  78.1520157  26.2374916  66.1760330
  77.3884125  25.7383289  65.8862610  78.5384674  26.5747509  65.3678589
  24.7243958   4.9559684  67.8739700  24.4509811   5.1900358  66.9870148
  25.4017258   5.5960245  68.0925674  57.7064819   1.8154491  76.9529877
  57.0181847   1.1706790  77.1165466  57.3655052   2.3538377  76.2387772
  70.3167343  23.8782978  65.6435013  70.4313278  22.9340439  65.7506714
  69.6980591  23.9636898  64.9181213  35.6557579  63.0123711  82.9557953
  36.5365334  63.2130623  82.6392670  35.7868576  62.3253746  83.6093063
  63.2597466  21.8729362  11.7462320  63.9582138  21.7589340  11.1017332
  62.7359886  21.0748749  11.6754980  69.6887894   8.3858242  27.3257580
  69.3371735   7.5594468  27.6569691  69.9673920   8.8589592  28.1098213
  81.7027969  17.8623714  39.0352859  81.4886780  17.0036583  39.3999710
  81.7529144  18.4402313  39.7967300  34.8671646  56.7628250  71.7905655
  35.5466385  56.2313080  71.3757935  35.3317833  57.2666779  72.4587708
   4.2518163  61.3796043  41.4614029   3.3477910  61.6482277  41.6251450
   4.2621999  61.1231918  40.5392456  83.1298828  47.8771172   2.0283935
  83.8615570  47.8433342   1.4121655  83.4989777  47.5678215   2.8556387
  73.2698059  44.7926750  78.6013184  72.8538666  44.0653725  78.1384430
  73.0663071  44.6372871  79.5236359  85.2389984  58.7238007  50.9102478
  85.7889709  58.9847183  51.6489525  84.5582809  59.3955078  50.8694382
  86.1877594  53.3381767  65.6731262  85.4794540  53.7636337  65.1898804
  86.8428726  53.1324883  65.0062408  38.8416443  46.9173889  79.9635773
  39.1345024  47.4886246  80.6736145  39.6015968  46.3691444  79.7683182
  21.3334293  18.7792397  87.8779221  22.2377586  18.6873589  87.5779572
  20.9774685  19.4940491  87.3501205   9.5078545  65.1069717  76.4080353
   8.6114607  65.3738861  76.6116638   9.7092342  65.5522537  75.5849915
  37.8521309  25.7192707  64.6229630  37.0395851  25.6786385  64.1186295
  38.3657570  26.4042072  64.1948471  14.0855961  38.4553757  18.8815918
  13.9376917  37.6284599  18.4227180  13.7216778  38.3128395  19.7553635
  20.9916325  60.9767838  58.4858093  21.8006134  61.4808846  58.3982544
  21.2546597  60.0712852  58.3211250  50.1164513  30.8504219  71.1351700
  50.0466614  30.5829105  70.2187653  50.3096619  30.0403671  71.6070938
  29.4396687  66.5478897  37.9280319  29.1826553  67.1686783  38.6097946
  30.3809643  66.6852112  37.8215675  47.0355148  66.7826996  48.7574463
  46.7524223  65.8761063  48.6383591  46.4193001  67.1443329  49.3944206
  79.6007843  39.5291786  78.5571365  79.2279205  38.6526146  78.4631577
  79.6061020  39.8837852  77.6680603  45.0611115  18.7830505  60.2152557
  45.6854630  19.4683475  59.9769554  44.8367043  18.3640461  59.3844070
  71.4279480  41.9978943  50.5600548  72.2780151  42.3057213  50.2456360
  71.5908127  41.1006851  50.8511314  78.9800644   5.9052725  76.6014328
  78.1265945   5.6645041  76.9617920  79.5390320   6.0251484  77.3691711
  83.8020477   6.4488239  87.1629333  83.1640778   6.8831997  86.5967636
  84.4944534   6.1619272  86.5675430  53.4276390  59.0380974  48.1006088
  53.2975159  59.0211716  49.0487709  52.5424652  59.0167542  47.7369537
  58.9357948   4.9571209  45.2862129  59.3611488   5.5621243  45.8938942
  58.3062897   4.4787865  45.8257942  54.1794662  11.7850657  74.5206528
  53.6234093  11.0382671  74.7427444  54.2368927  12.2904463  75.3315277
  82.9634171  70.4293900  85.5656586  82.0175247  70.3012848  85.4942322
  83.3173065  70.0560837  84.7584152  78.9712753  59.0501900  53.1212158
  78.0918732  59.4116020  53.0104370  79.0968246  59.0119705  54.0693741
  14.3649693  16.5118198  76.5094376  14.9809151  17.0360050  75.9975052
  14.5391197  15.6092129  76.2425919  20.2834187  43.4338226  86.3330994
  21.1770782  43.5580521  86.0134583  20.1495571  42.4863625  86.3078537
  33.2653160  11.3152466  86.2381744  33.1553535  11.7310867  87.0932922
  33.5784683  10.4333439  86.4392090  71.6397095  12.4233150  66.7418213
  71.7486572  13.2490711  67.2135086  71.8294449  12.6418285  65.8294144
  75.3295212  28.7821522  39.8893013  75.7609787  29.4348755  39.3379135
  75.3135605  29.1776752  40.7608147  29.7097340  64.9525299  28.2681351
  29.3496628  65.8385773  28.2293491  30.0607071  64.7980270  27.3911076
  13.0405722  -0.0419328  70.8909607  13.4862823  -0.5481352  70.2117386
  12.5501509   0.6246285  70.4099045  61.3699074  45.1567268  30.2714958
  61.1291809  45.7732697  30.9629841  61.8595543  44.4694061  30.7232361
  45.0319595  10.4842520   9.7422638  45.7228508  10.9103489   9.2349777
  44.3861809  11.1742535   9.8942595  39.4504509  21.0352936  79.0373611
  39.9092674  20.3780766  79.5606079  40.1206436  21.6862240  78.8291321
  52.8054619   3.4167073  64.7580490  52.5634270   4.0297828  65.4521561
  53.7035065   3.1600850  64.9675674  44.4394608  22.7350731  58.7885056
  43.6169739  22.4240208  59.1666489  44.3965759  22.4689465  57.8700447
  64.5410156  23.3807278  53.2171974  65.1598206  22.7423630  52.8624992
  63.6855888  23.0822716  52.9083328  53.0420914  53.8390541  86.0835648
  52.5453835  53.3673973  86.7521896  53.7296257  54.2925148  86.5713196
  36.4422569  65.7123947  49.2536278  36.1228523  64.8483734  48.9934616
  37.3953590  65.6240082  49.2582436  37.4766693  37.6232414  80.5165253
  38.1460533  38.3051109  80.4598694  37.8653717  36.9520416  81.0774384
  57.9331398  56.3142052  57.9603424  57.4584732  56.5019531  58.7700768
  58.3281746  55.4549179  58.1080170  19.9698029  37.5343437  75.5481110
  20.6039066  37.2308235  76.1977463  19.1243706  37.4759750  75.9931641
  33.4656868  67.5151291  77.1274414  32.6643639  67.3480911  77.6236420
  34.1599922  67.5142288  77.7863541  37.6312981   4.2910857   4.2249346
  36.7142715   4.2232614   4.4908161  37.9329414   3.3842177   4.1716981
  56.8838615  22.9985600  86.4885254  56.9353104  23.7325077  85.8762283
  56.0069962  23.0632935  86.8668671  61.6067657   3.7478371  44.1066284
  60.8856735   3.1401138  44.2707405  61.6057968   4.3311715  44.8655434
  60.6413002  26.6710243  27.0185680  60.2415695  25.8122559  27.1562748
  61.4747887  26.4809799  26.5879745   4.4488411   5.5279827  12.7720871
   5.3915133   5.6499095  12.8849344   4.1392145   5.2451582  13.6325369
  24.1941967  63.3874702  18.7293243  24.5772839  63.5770378  17.8728542
  24.0832977  64.2461624  19.1374626  69.7740402  61.5766296  43.7591209
  70.4676056  62.0479660  44.2206841  69.9708099  61.7088318  42.8317375
  32.5435905  38.6924057  65.3046112  32.2096024  37.8863258  65.6982117
  31.9868374  39.3830566  65.6641312  76.0938797  65.6678314  20.7649364
  75.9848785  65.8648605  19.8346004  75.9170990  66.4977722  21.2078476
   4.2987919  45.1145210  23.9909019   4.6505175  44.4994583  24.6345005
   4.7609577  45.9343491  24.1655941  71.3629608  15.7511683  24.7151184
  71.4242096  14.9664421  24.1704292  71.9290390  16.3891144  24.2805920
   3.3060431  36.4181633   1.8750900   2.3933680  36.1316414   1.8410327
   3.3147290  37.1123085   2.5341213  11.6775799  40.9213066  73.9069138
  11.5636396  40.4283867  73.0943375  11.2837410  41.7748718  73.7264938
  18.0083027  47.3572006  54.6490173  18.3055573  47.9858170  55.3068275
  17.0942116  47.1868896  54.8763123  61.4606323  55.5892029  44.9113998
  60.6074142  55.3465919  44.5516930  61.5440025  56.5235291  44.7208252
  49.2596092   0.2213651  29.6588097  48.7495041  -0.5515643  29.9008904
  48.8847198   0.9294342  30.1825714  34.0900993  19.4974194  64.7340622
  34.5159760  20.1737843  65.2607422  33.3060417  19.9226475  64.3866806
  20.0003910  49.5383720  32.0791740  20.6875992  50.0269470  31.6261044
  20.2670975  48.6223335  32.0018997   9.0702591  66.0438919  37.5751839
   8.7845125  66.9375992  37.7645683   8.4397488  65.4885864  38.0337982
  14.1207867  44.2389336   3.5485387  14.5721083  44.0795593   4.3774781
  14.6990795  43.8630180   2.8848383   2.6952305  58.1544266  31.7307320
   2.7531037  58.3859367  30.8037548   2.1395197  57.3752632  31.7487659
  73.2049408  28.2847691  13.2858248  72.5990143  28.8148727  12.7680626
  72.7153854  27.4865189  13.4842472  73.3906403  71.4474792  42.3406830
  72.8747177  70.9972687  41.6718330  74.1749496  71.7439117  41.8789330
   9.9564924  61.1006966  51.0292816  10.6798658  61.7259254  50.9839935
  10.3467188  60.2641830  50.7759094  20.6485252  41.9898872  18.9913158
  20.0952454  42.6432877  19.4193153  20.2766113  41.8987312  18.1140442
  47.4144096  65.7636108  75.5125046  47.5396271  64.8477478  75.7610016
  48.0366096  65.9054260  74.7990723  46.3022346  22.6547222  38.4306450
  46.0602493  23.1445599  39.2166061  45.6761093  22.9430161  37.7665024
  46.0165520  16.4033890  83.7273102  46.5009880  16.6514359  82.9398956
  46.6946144  16.2071037  84.3737869  73.5765533  31.6149311  23.0980167
  73.7482758  31.4694519  22.1676521  74.4452972  31.6774750  23.4950047
  72.3764572  25.9253674  80.0283813  72.1432266  26.6084251  79.3996811
  71.8971405  26.1579971  80.8235931  15.6419554  52.2706718  36.4549484
  16.4080238  51.8185730  36.8084679  14.9909239  51.5795784  36.3333969
  25.4828320  25.8241024  74.7030792  26.1147785  25.1198273  74.5586166
  25.2440281  26.1158295  73.8232498  37.0284233   3.0361125  21.7009068
  37.3486633   3.3384628  20.8510475  36.2138901   3.5203779  21.8360233
  86.0726013   0.4691221  82.7746964  86.8784561   0.4798364  83.2911377
  85.3965836   0.7752438  83.3792801  33.0522766  50.6915512  55.8003387
  33.3479614  50.3754196  56.6540718  32.3218269  51.2765656  56.0014114
  17.2765732   2.4109862  70.1938248  17.8285332   2.6713736  69.4564209
  17.2611179   1.4546795  70.1554718  49.3431244  44.4689941  88.6679764
  50.0519028  44.7883530  89.2264328  49.7802010  44.1849060  87.8651733
  13.0955572  35.6799927  22.6943989  12.3054523  35.8050766  23.2200603
  13.5423365  34.9401741  23.1058426  83.1012115  64.4314194  19.8350258
  82.6819077  65.0781326  20.4026299  83.8808441  64.1581039  20.3184586
   5.3272662  46.9167786  63.5631943   5.9604001  47.6069794  63.3657112
   4.8161097  47.2628288  64.2947693  55.9454918  52.4287605  32.8810120
  56.3933105  51.6109695  32.6644287  55.9168892  52.9121170  32.0553093
   6.5977573  18.8162727  50.5333443   6.6878471  19.6926098  50.1589813
   6.5561037  18.9626465  51.4783669  39.2092094  70.6433563   1.2507201
  38.6620064  71.4083710   1.4283561  38.6045113  69.9948730   0.8901117
  77.6482544   6.3445187  28.2605495  76.9339828   6.9717650  28.1482449
  78.0729294   6.3091507  27.4034424  16.2674160  62.1282883   0.4517527
  15.4570599  62.3267403   0.9209784  16.8193569  62.8978539   0.5908859
  28.4505100   0.7411890  82.7507095  27.6108494   0.6091906  83.1909103
  28.2807045   1.4356924  82.1142654  13.1695242  45.4394646  15.3700447
  12.2900267  45.5320015  15.7363129  13.0282640  45.0708313  14.4980421
  17.1650677  71.2051620  70.2001038  17.2495880  70.6177902  69.4490509
  17.2045021  70.6269989  70.9619446  55.8200569  46.3836823  22.4789200
  55.9119110  45.5107040  22.8606319  56.1152382  46.2817230  21.5740967
  79.8120193  36.2645569  31.5951233  79.4809113  36.9263229  30.9879436
  79.0830078  35.6540298  31.7048340   0.4377975   3.8465590  73.1956024
  -0.4834081   3.6534715  73.3697510   0.4170872   4.5152907  72.5110550
  64.8298798  17.7148857  87.7080078  64.0251083  17.2757072  87.9831467
  64.8821106  18.4908142  88.2660751  77.1312637  63.7208824  73.8972244
  76.9811630  63.6811256  72.9527054  76.7810211  62.8947029  74.2303848
  51.2271614  25.0878868  63.6699562  50.5562668  24.7348022  64.2543030
  51.7557030  24.3282261  63.4254303  42.7559395   3.7115512  18.0101337
  43.2213287   3.2189364  17.3341331  42.1639214   4.2852182  17.5236645
  27.7744789  13.7504835  88.2909622  27.6951256  12.8000679  88.2094421
  27.1794968  14.0983534  87.6267166  59.4836769  66.3414230  87.5297241
  59.8724174  66.6469650  88.3493347  60.1100807  66.6036758  86.8551331
  60.1902161  66.3129730  17.0778217  59.8718834  65.4338913  16.8726044
  59.5087738  66.6907272  17.6338577  57.1897659  20.2477322  70.6892700
  56.4242210  19.7265606  70.9312515  57.7943993  20.1403999  71.4235229
  42.8477287  22.0022621  17.8760853  42.0850677  22.5510845  17.6934032
  43.5538826  22.6242085  18.0514793  10.8973408  48.4051399  85.4597855
  11.4763784  48.2539482  86.2068405  11.2922058  49.1437302  84.9963226
  71.4545975  21.0747776  37.1553040  72.0554657  20.8304024  36.4514122
  71.9238663  21.7481594  37.6478157  80.8877869   0.1463333  88.2843170
  80.7872849  -0.6431182  87.7524414  80.8924484   0.8633605  87.6502228
  14.7447033  42.4509926  40.5730057  14.2291985  41.7242546  40.9227791
  14.4877415  43.2045059  41.1044350  84.8308640   4.9285941  24.0998192
  85.2665482   4.8438191  24.9478893  85.5448761   4.9250588  23.4623184
  12.2924471  57.9532776  26.9504852  11.4809208  57.4808617  27.1361732
  12.9146786  57.2708054  26.6989059  46.1590958  10.9320431  74.7061234
  46.8112144  11.6327286  74.7092514  45.5022964  11.2189484  74.0716705
  36.8524513  68.0840378  59.7494736  36.5763969  67.1893387  59.5506477
  37.5029678  68.2888336  59.0778198  59.5727577  18.8741093  22.5125427
  58.9631462  19.4999390  22.9036160  59.1003685  18.5178013  21.7601299
  37.4323196  61.7478218  64.7579575  36.4767456  61.7610245  64.7037582
  37.6577110  60.8180084  64.7876205  80.8044128  60.3379135  69.7321396
  80.5060043  60.6056595  68.8629456  80.5312271  61.0509605  70.3093414
  84.2400284  26.1141014  65.3014221  83.3880005  25.6788483  65.3303070
  84.4221039  26.3448544  66.2123795  69.4252319  28.8826160  77.3303452
  69.2643051  28.5188866  78.2010040  69.6888046  28.1297588  76.8012238
   5.6801143  53.2899246  30.0588303   5.8576417  53.3136215  29.1185360
   4.8835416  52.7652626  30.1390324  53.1229286  69.0816193  46.7404099
  53.9142036  68.5430069  46.7362595  53.1334953  69.5162201  47.5931931
  60.1038551  13.1411171  17.5831833  60.7568245  13.7963104  17.3370438
  60.2735062  12.9701529  18.5095863  82.3776398  60.8125305  56.8493118
  82.6666336  61.5449104  57.3936729  82.6216202  60.0326767  57.3478432
  16.1115208   7.5158510  64.4926376  17.0194149   7.5828137  64.7883987
  16.0571384   6.6541033  64.0795212  82.5868454  20.4322948   4.0770946
  82.8172073  21.2303658   4.5527472  83.4069214  20.1494503   3.6724973
  63.2281113  59.4510002  49.4325714  63.8881912  59.5766945  50.1142807
  63.4744072  60.0685272  48.7439270  52.4395943  22.4349594  16.7557640
  51.5010452  22.2470798  16.7481136  52.6334953  22.6494312  17.6682529
  46.8816948  39.0206528   9.8370447  46.8474541  38.8241501   8.9008579
  47.7683945  38.7750969  10.1010437  56.8103943  15.0827475  18.6243801
  56.9661179  15.8968086  19.1032162  57.0233841  15.2949190  17.7156162
  65.2075348  47.8887062  82.7758636  65.4630661  48.1155739  83.6699982
  66.0095215  47.5529709  82.3754501  62.5129509  31.6002178  80.8405991
  62.6415520  30.6778545  81.0618210  61.5637093  31.6986694  80.7665558
  73.8241730  54.1417847  14.0223541  73.0143356  53.6526184  14.1676750
  73.6836472  54.9760971  14.4700260  71.1718750  51.5338745   2.6150548
  71.4787140  52.0896034   1.8986454  70.5095062  50.9707603   2.2145538
  37.8516502  58.6934433  12.3547277  37.5167160  59.3495178  11.7434835
  37.4298325  57.8775597  12.0852127  84.4387817   4.9004583  77.4694290
  85.0638428   5.5988460  77.6638184  84.3284683   4.4394526  78.3010178
   2.6402378  10.9474068   8.0391245   3.5168407  11.3095083   7.9099693
   2.6959479  10.4758472   8.8702450  40.7470436   4.2679534  78.6617355
  40.8171921   4.1259570  79.6057434  40.1340904   4.9979258  78.5742264
  37.5759163  65.8272781  15.0656595  37.8499908  64.9917221  14.6875706
  38.3929138  66.2495880  15.3309803  39.6586685  66.7491226  70.3903275
  40.6059532  66.8647690  70.3161163  39.5545235  65.9738922  70.9420700
   7.4462051  21.5402527  11.0424719   7.9962730  21.6177540  11.8219910
   6.5649323  21.7538662  11.3489990  21.5752640  50.5709305  76.7577209
  22.0664673  50.0914383  77.4248276  21.4886646  49.9518394  76.0328369
   0.8515046  16.1190357  22.7541943   0.7747895  15.1663685  22.8068428
   0.2920670  16.3640022  22.0171375  65.6080322  59.0895004  68.4879227
  65.8510284  58.9609184  69.4047928  65.2815018  59.9885063  68.4504929
  60.6483498  31.9280453  41.7320061  60.8496399  30.9946251  41.7986641
  61.3937569  32.3639030  42.1450768  17.0222721  52.7769470   9.2870893
  16.3981514  52.1122513   8.9957371  17.2350788  53.2694893   8.4944086
  45.9993896  34.1406441  86.2012787  46.1741829  35.0795784  86.1374207
  45.6266594  34.0253105  87.0753555  76.8691254  14.6449242  68.6673203
  77.5376205  15.3087912  68.4981232  77.2057877  14.1511335  69.4150238
  46.6903801  31.9465046  52.9004250  45.8399773  32.0629158  52.4767570
  47.3261490  32.0391960  52.1908913  31.7494888  60.0180435  36.3025360
  32.4226761  60.1264267  36.9743233  31.0578880  59.5172386  36.7351074
  54.6079521   8.0865726  61.9744492  53.7503281   8.4349604  62.2180481
  54.5252037   7.1405931  62.0948944  43.9533844   2.5351954  12.9670458
  44.6014824   3.1639688  13.2846098  44.1330490   2.4586632  12.0299788
   5.3938451  49.5050468  73.4202805   6.2168660  49.1501083  73.0842972
   5.6443810  50.3199615  73.8554535  79.5947418  22.4244137  34.7889633
  80.4685211  22.6125317  35.1315422  79.7539978  21.9285908  33.9858246
  51.2749863  37.3996048   9.6098633  51.9485359  37.3014984  10.2828684
  50.5766907  37.8931503  10.0400162  72.7429810  21.0805779  67.4067001
  71.9264450  21.0701962  66.9073105  72.7714539  21.9522839  67.8011017
  19.3930912  70.9403915  11.9274435  19.4966602  69.9931946  11.8362761
  20.0855522  71.1996384  12.5353231  68.6056137  49.2067642  17.3449154
  68.7610245  49.2868309  18.2860165  68.8764038  48.3135567  17.1325817
  78.8296280  10.0172644  77.0109177  77.9841843   9.8109598  77.4095306
  79.4754486   9.7228603  77.6531601  81.2007828  45.7169266  51.0205994
  81.6032028  45.5339165  51.8695946  80.4222412  46.2326279  51.2307510
   4.8996186  47.1599197   8.3209934   5.6243148  46.5549545   8.1626673
   4.1433806  46.7403336   7.9107671  47.2091446  17.6716938  65.9474716
  46.3805389  17.3509979  65.5913849  47.8586426  17.4489040  65.2805786
  42.9704285  63.0082016  62.2076340  42.4209824  62.5131340  62.8152924
  43.8569221  62.9158478  62.5566788  18.4722195   4.6114311  15.5039549
  18.9060287   4.4615297  16.3439369  18.9673767   4.0800915  14.8804741
  65.6874695  58.4306831  20.0023403  65.6199799  57.8211136  20.7372589
  65.9491730  57.8843155  19.2612419  43.9152718  48.5875931  56.4829979
  44.8215065  48.8805046  56.5787621  43.9793892  47.6371460  56.3893509
  65.8442917  54.0501251  60.1897354  66.0144730  53.5877228  59.3690948
  66.4280930  54.8082123  60.1630135  74.6607132  11.5329456  74.1720047
  73.7463608  11.2675247  74.2706680  74.6670914  12.0837603  73.3891983
  19.2251110  36.4804077  52.5792389  20.1262341  36.6867218  52.3309555
  19.3040218  35.7239647  53.1604424  25.9421806  38.6907234  23.3167019
  25.0959225  39.1189690  23.1875362  25.7340870  37.7574577  23.3607979
   4.8298745  20.8399525  52.2500496   5.3366675  20.0557156  52.4606857
   5.3498406  21.5626945  52.6014900  32.4243279  59.7264519  66.2115707
  32.0613060  60.1311951  66.9993744  32.1917381  60.3280411  65.5043030
  86.4049683  61.4395638  24.7933693  86.6639633  62.1736641  24.2363682
  86.5976562  61.7345619  25.6833572   7.4872618  20.2053375  67.1706772
   7.1926212  21.0619755  67.4798584   8.2387953  19.9960213  67.7253113
  68.4060974   0.4014057  22.2985611  68.2800140   0.2346543  23.2326546
  68.6859055   1.3157161  22.2541122  23.1347713  62.5745201  65.2244949
  22.6324100  62.9080505  64.4811096  23.9334373  63.1020966  65.2298889
  60.9904785  50.8371010  23.7472916  61.4998627  51.0457497  22.9642067
  61.5541077  50.2490196  24.2500000  53.3525848  70.3248444  76.4354248
  53.6255455  70.4440918  75.5257568  52.4084358  70.4820099  76.4247513
  62.5827026  45.2382317  80.7342224  63.2915649  44.8834763  80.1976624
  62.2207947  44.4764977  81.1870117  19.8351994  13.2012091  41.7848320
  20.0502720  12.8452253  40.9227142  20.1465073  12.5389566  42.4018745
  63.8792152  43.3326988  83.7768402  63.1968689  42.9190903  83.2481079
  64.6890869  42.9033623  83.5011368  43.5577469  70.5220337  19.5024948
  43.5668335  70.5537415  20.4591274  43.1968880  69.6601181  19.2948399
  23.2917919  39.9536514  45.6690521  24.0317917  40.2075958  46.2205429
  22.5215569  40.2699165  46.1412239  40.5404778   1.7627995  20.8061047
  39.6493225   1.6042498  21.1174507  40.6146431   1.2331054  20.0122814
  78.8228302  33.4798622  87.9776001  78.3103180  33.2294235  87.2089386
  79.2257919  32.6634712  88.2731781   5.7572947  33.0438538  27.1625366
   5.0515728  32.4512787  26.9036045   6.0726323  33.4152222  26.3385963
  15.2689686  22.9027081  84.5488892  15.3586330  23.4276028  83.7534790
  14.4291420  22.4549026  84.4469376  84.4178391  43.2195511  10.3906050
  85.1491623  43.5362587  10.9207878  84.2145538  42.3574753  10.7535563
  45.1707764  18.9620590  78.1271973  45.3494644  18.4323616  77.3502045
  45.3094215  19.8642769  77.8390808  45.1708450  59.5588951   2.7161014
  44.6665154  60.3611946   2.8510056  44.6048317  58.8616486   3.0473218
  35.5973930  31.1507816  19.1539230  36.0174789  30.5247250  18.5641670
  35.9964828  31.9924259  18.9334888  30.7676086  52.5993462   6.9966335
  30.4138279  51.7717781   6.6707473  31.3964615  52.3420448   7.6708546
  44.4984016  70.1213074  65.3721390  45.0232162  69.9132309  66.1451263
  44.3180809  69.2719193  64.9693298  68.7532883  37.1880455  64.5310211
  67.9524612  36.7491722  64.2441559  69.0787277  37.6294060  63.7464676
  82.3117752  29.0735912  49.5235519  83.1308289  28.6260700  49.3111458
  82.1854019  29.6949291  48.8064728  58.0691566  18.1823502  78.0574188
  57.2903328  17.7046165  78.3427811  57.8007240  18.6160221  77.2474136
  81.9578018  64.1162643  70.2756348  81.7779846  65.0563431  70.2882767
  82.2392654  63.9142342  71.1679382  15.8851070  57.9648323  32.3532448
  16.0753880  57.1174927  31.9507027  16.2664108  57.9048996  33.2291718
  46.7820930  22.8262463  65.6512375  47.0650558  22.6932697  66.5559387
  47.0092545  22.0095177  65.2067337  50.5805817  50.9579506  59.8047371
  50.4235687  50.0485878  60.0589752  51.5178185  50.9948502  59.6137962
  84.7835541  35.4390030  52.3052330  84.2531357  35.7015343  53.0575409
  85.5170135  34.9561081  52.6861343  32.2870712  39.8332672  10.6732473
  32.6749725  39.1927834  11.2695236  31.9889908  39.3148575   9.9258289
   2.7123094  64.9326706  66.4066315   3.2110927  64.3376694  65.8467865
   3.3735964  65.5016022  66.8006439  24.2866650  68.3146133  18.6085472
  24.0744133  69.2284927  18.7982674  25.2114830  68.3296890  18.3621426
  58.5319557   6.8309450  62.6406136  58.3957443   6.8895488  61.6949692
  59.3993187   7.2104564  62.7816353  69.3958282  42.0469284  57.1238480
  68.4780502  41.7931480  57.2213554  69.7103653  42.1575394  58.0210991
  45.2242050   1.6854787  39.6529694  45.9442520   1.0594435  39.7294312
  44.9040604   1.5741348  38.7577896  34.8941994  14.7730227  70.8281097
  35.3013000  15.6388035  70.7977066  33.9783058  14.9308414  70.5990524
  22.6521740  60.6325722  82.1948929  22.4578037  60.8972359  81.2957764
  23.5617828  60.3359184  82.1659164  78.8863144  64.3510056   7.5193458
  78.8511658  63.4504852   7.8419194  79.6074524  64.7514114   8.0050030
  83.3404007  19.6360283  51.6670113  84.0814362  19.8633060  51.1053696
  83.3838730  20.2651138  52.3871422  34.1030121  45.6355743  36.1056633
  33.7615051  46.1687431  35.3877945  34.9610329  46.0138702  36.2978134
  58.8646317  69.4960709  46.5485001  59.7390862  69.1929169  46.3042603
  58.8050308  69.3233948  47.4881096  34.7427940   3.5191319  82.2357101
  34.7367020   3.1534171  81.3511505  34.1464996   4.2665100  82.1900024
   5.0849109   6.4987063   4.6691222   5.5478606   6.8646789   3.9154820
   5.0536280   7.2158346   5.3023520  78.7653580  71.0373230  14.5811834
  78.7279587  70.1189270  14.3140192  78.1074753  71.1126709  15.2723780
  41.4599266  63.3493729   6.2397151  40.7607002  62.7262306   6.0422182
  42.2178421  62.8018570   6.4447107  68.7611618  24.6073627   0.5302424
  69.5636826  24.2476349   0.9081160  69.0092697  24.8657761  -0.3573932
  46.6316452  14.4757767  68.3544769  47.5267677  14.5956593  68.0372849
  46.1056557  14.3876638  67.5596161  84.3919754  18.1472664  63.0647163
  84.3519974  17.9366875  62.1318207  83.7623291  18.8594704  63.1766853
   8.9079819  20.4748211  74.6674652   9.1013060  21.2368832  74.1214600
   8.9146156  19.7361507  74.0587311  40.4733696  64.3214798  80.0876465
  39.7035446  63.7528458  80.0715179  40.6965256  64.3962250  81.0154648
  62.1513138  27.6067905  15.8452644  61.9727249  28.2978115  15.2074337
  63.0303230  27.2986507  15.6247482  81.7804565   0.6532301  80.0514984
  81.2095947   0.2170947  80.6840668  81.6774979   1.5861472  80.2393799
  73.8399963  57.7922058  75.5226974  72.9606171  57.5643005  75.8243256
  74.0898972  58.5443115  76.0594635  51.7013702  53.2401466  37.8521500
  51.5272064  54.1137733  38.2023926  52.0984039  52.7643890  38.5817070
  80.2374115  35.3224182  15.7239647  80.3268814  35.7663956  14.8806925
  80.6646500  35.9077454  16.3493385  12.4844265  44.0017090  80.1836166
  11.7694845  44.5575600  80.4936523  13.2452602  44.2850494  80.6906509
  47.7749939  20.3846321  20.2329044  48.6172447  20.7976475  20.4233208
  47.3142166  20.3823833  21.0718994  25.1427689  11.3671083  27.6821842
  25.5931911  11.8877249  27.0171204  25.7193298  10.6176014  27.8306675
  19.6895275  49.8649979  39.1371765  19.1350765  50.0046387  38.3695107
  20.5525513  50.1813240  38.8700409  75.5556946   8.3730097  13.4805603
  76.3486099   7.9247537  13.1863222  75.8299561   8.8592043  14.2581367
   6.0888157   4.3342319   9.6178513   6.7003651   4.9520483  10.0185280
   5.2685609   4.8222189   9.5451727  71.7048569  49.4422531  17.4092026
  71.3176270  48.7973709  18.0011616  71.2208939  50.2492752  17.5844994
   9.3122377  39.4102440  46.8029099   8.8600130  40.2522964  46.7512131
   9.9914408  39.4614601  46.1303825  29.1723881  63.7728119   5.1222205
  29.1903915  64.7107162   5.3126030  30.0838680  63.4934349   5.2081566
  56.9829712  59.0989876  33.6861420  56.1869240  58.8386269  34.1495590
  56.7550468  59.0267105  32.7592888   7.3409133  45.8492317   7.9466352
   7.4508481  44.9035721   8.0460110   7.9128957  46.2282906   8.6140041
  81.4879150  60.1656837   1.8533105  81.5032272  61.0126457   2.2990170
  82.3460693  59.7831726   2.0363243  69.3980942  26.3655529  54.8425484
  68.6373215  26.8926849  55.0866470  69.1285019  25.4629288  55.0123100
   6.8149199   6.1392064  14.0012426   6.5738406   7.0581069  14.1184368
   7.7345443   6.0975323  14.2635136  30.8076725  70.3905792  87.1241837
  30.0542831  70.5994034  86.5718918  30.7937412  69.4362946  87.1974716
  65.3215408  59.6529274  38.1111374  65.9144745  59.7120743  38.8602486
  65.8128967  59.1583595  37.4552345  64.1959229  56.6893501  86.9783325
  64.2578125  55.7986679  87.3234177  63.8958054  57.2135811  87.7208557
  44.9512520  65.0381393  59.9822655  45.6364822  64.6558762  60.5305023
  44.3386536  65.4312744  60.6038780  76.2816162  50.5362244  20.0937958
  77.2285614  50.5254517  20.2331390  75.9639893  49.7550087  20.5466175
  65.7021790  30.3808041  79.3091507  66.1445007  29.6711197  79.7749100
  65.3326340  29.9630070  78.5312576  64.5577164   1.4654275  43.6773491
  65.3336792   0.9967884  43.3699570  63.8352432   1.0870384  43.1762657
  19.8306904  62.8321686  78.4959106  18.9796314  63.0912628  78.1426468
  20.2158985  62.2823296  77.8136215  82.4337082  70.5924530   9.1531334
  83.2800674  70.4051056   9.5591106  81.9759445  71.1366348   9.7938681
  86.7559586  59.1970520  27.9681568  86.6037216  60.1413689  28.0045090
  86.1216202  58.8766937  27.3268929  16.3744297  55.8907776  30.7458038
  17.0191078  55.4581833  30.1859055  15.7239370  55.2131233  30.9298573
  49.2349739   1.6692843  19.9886856  49.7265396   1.3571227  20.7483902
  49.4279137   2.6059074  19.9469261  78.8291626   8.5100126  73.5413361
  77.8945007   8.7077732  73.6007996  79.1505203   8.5997772  74.4384918
   0.6976743  46.8355103  81.3214340  -0.0986434  46.3044510  81.3120346
   1.4088119  46.2026367  81.2214966  35.0066757  35.9869308  57.0189171
  34.5637970  36.3153267  56.2364540  35.9104156  36.2886696  56.9270325
  26.0146103  22.6118546   8.3800888  26.8638153  22.7786121   7.9710932
  25.3746929  22.9069519   7.7322807  69.3634338  57.7897263  34.0405464
  69.7805939  58.6002502  34.3325424  69.7597122  57.1076050  34.5826759
   4.2605038  27.1520576  29.9382515   3.3130810  27.0753078  30.0510864
   4.5015035  26.3899498  29.4116173  51.6127129  59.6034775   5.2405276
  51.2095184  59.2308617   4.4564204  51.8452187  60.4971962   4.9886513
  40.3341103   1.5592432  15.0299196  39.4809265   1.3548996  14.6470985
  40.8377953   0.7504960  14.9379368  45.0303802  45.8773117  19.5676308
  44.5784874  46.1664848  18.7749100  45.9079781  46.2521820  19.4933052
  29.3169670  66.0581436  18.9851570  28.7130756  65.3534164  18.7508411
  29.2977390  66.6499863  18.2331028  51.5190010   5.5721297  15.6724224
  52.2163277   5.9428515  16.2132854  51.7140770   5.8787293  14.7868862
  67.5107651  24.8645267   4.8073058  67.0712891  24.4181786   5.5310917
  68.2155304  25.3602562   5.2241893  82.2854462  39.0404816   5.3814068
  82.3734055  39.6011276   4.6105828  82.1214523  38.1673546   5.0250587
   6.1201801   5.9036889  60.5016785   6.6715612   5.1220737  60.5375824
   5.7602119   5.9836445  61.3850021  34.6474190  42.7326279  45.5051460
  34.1652145  43.5578308  45.5576668  35.5302887  42.9877472  45.2374039
  40.7507591  45.1147156  44.8791046  41.0290184  46.0296440  44.8377342
  39.9288292  45.1362724  45.3692055  36.8322563  66.8267136  22.2791195
  36.3933144  65.9795456  22.2025032  36.4176140  67.2438736  23.0342884
   4.1490068  40.2798996  53.3126183   3.7072122  39.4311485  53.3384628
   5.0791483  40.0682716  53.3918686  60.2457657  40.7250633   5.4200692
  59.9518890  40.4755783   6.2962122  59.6488457  40.2675972   4.8279161
  54.8685837  11.6528788  30.3598785  54.2819519  12.3683586  30.1145515
  54.9683189  11.1393652  29.5582619  12.2386360  44.8809166   9.8249083
  12.3475256  45.6640053   9.2853298  12.9263458  44.2862320   9.5255146
  76.1804657  47.3799171  87.6740265  76.0139389  46.4375381  87.6533585
  77.0374985  47.4808350  87.2598495  27.8953056  46.9040489  87.5977478
  28.3727341  47.5554428  87.0839539  27.4079018  47.4174843  88.2419968
  14.9804831  15.1159954  53.1994133  15.7649250  14.6288424  53.4515343
  15.0767088  15.9649305  53.6310158  34.7133713   3.7909646  12.6150780
  34.6523552   2.8430572  12.7333164  35.4108276   4.0623670  13.2118444
  14.3486261  32.0131683   9.8079748  13.9212675  31.4973469  10.4917336
  14.7845535  31.3642521   9.2556076  28.4048100  25.0224342  11.0306387
  27.5169544  25.1305580  11.3716011  28.9501762  25.5551853  11.6094170
  64.4532013  42.5223312  59.3358421  63.9011002  42.2263298  60.0595818
  65.0655746  43.1382828  59.7381287   2.9930422  23.0786076   2.9081552
   2.6947222  23.2070923   2.0077505   3.5987511  22.3392239   2.8565853
  80.5624084  68.7710648  31.5172520  81.1877518  68.3498459  30.9275436
  79.8394775  68.1473541  31.5849285  55.5489540  40.7969017  74.8385620
  55.0989914  40.7637520  73.9943619  54.8458710  40.7528763  75.4866104
  49.2860565   7.1198053   7.1587148  48.4521904   7.5109816   7.4192600
  49.1406822   6.1763940   7.2299438   0.9997600  53.8295631  41.0346756
   0.0740452  53.8459587  41.2776070   1.3115929  52.9765015  41.3367996
  23.2894974  48.7510757  44.8890839  23.2875595  49.5527496  44.3660698
  22.7245140  48.9507103  45.6355247  68.4238510  59.1206017  11.7452536
  68.6500702  58.6333580  10.9530087  69.1450195  58.9437828  12.3493042
  43.6721230  32.5678024  33.6489525  43.2014313  33.0216713  32.9498940
  44.3537140  32.0715256  33.1957664  46.8773613  50.9890785  33.7143707
  46.7929344  51.6044807  34.4426422  47.8210602  50.9125252  33.5736542
  50.6859283  20.4050331  51.6896973  49.7949638  20.2539139  51.3741379
  50.5966530  20.4619312  52.6410255  64.6569595  54.9849472  74.4128571
  64.6088181  55.7781754  74.9464340  63.9891853  54.4070358  74.7820816
  59.9742165  43.6511765  44.8739090  60.2958794  42.9522514  44.3044662
  59.2532806  44.0466270  44.3839035  46.1305809  15.6034698  34.9681969
  45.3530846  15.5472422  35.5236893  46.1403236  14.7769690  34.4854622
  67.8225937  45.7738113  11.2171726  67.8958511  45.2012825  10.4535799
  67.2877502  45.2784653  11.8375025  49.3655624  25.9815788  75.3693619
  49.0204735  26.4562893  74.6131897  50.1729813  25.5780888  75.0507660
  12.5273380  33.2120934  28.3123474  11.6212559  32.9290924  28.1892376
  12.8895950  33.2474823  27.4270515  22.6883392   3.0922813  14.7751713
  21.7590904   3.2480509  14.6064625  23.1402111   3.7663288  14.2675257
  55.1039352  36.6049042  79.5937500  55.7599411  36.8437119  78.9388809
  54.9664841  37.4065247  80.0984726  36.7689400   7.9097981  10.2866373
  36.5383911   7.1277146   9.7852163  36.0258789   8.0449572  10.8747053
  41.6108055   8.3230619  57.2155418  42.3167343   8.9184694  57.4673080
  40.8258514   8.7010098  57.6120644  64.5927658   0.8846343  79.0790939
  65.3806305   1.1190977  78.5886536  64.6894379  -0.0514055  79.2543564
  55.2292709   4.6347313  15.8502741  55.1626816   5.0781975  15.0046167
  54.6395531   5.1236658  16.4242134  66.2599411  13.6893291  65.1043472
  65.6268539  12.9955568  64.9196548  65.8140182  14.2601109  65.7301254
   4.4866238  48.3695793  53.3145943   4.4330339  48.2312965  52.3689499
   3.7554867  48.9546814  53.5129051  39.3575821  30.8594990  66.8941650
  38.4259109  30.9229507  66.6839447  39.3783302  30.5426712  67.7971725
  52.5442162  59.6904755  22.6118870  52.2200584  60.2783966  23.2941647
  51.8321037  59.0654106  22.4761543  42.1316452  20.8596725  75.6059418
  42.8957596  20.2889786  75.5242691  42.3982964  21.5280972  76.2370834
  18.8133221  59.7790871  13.1278543  18.8724537  60.0235481  14.0514202
  19.0365562  58.8484230  13.1116686  82.9222260  54.6433716  12.5998993
  82.3027344  53.9382820  12.4119959  83.3866272  54.7805405  11.7742195
  10.2046070  53.3968658  78.7361069  11.0712204  53.0159569  78.8779526
  10.2472486  54.2537918  79.1604843  27.4884090  14.8380899  12.0719175
  27.7052593  15.2768898  11.2493229  26.6409435  15.2054005  12.3231506
  39.6368484  47.9278717  20.4964504  39.1034088  48.6743469  20.7693119
  39.2212563  47.1720543  20.9114838  63.3757057   5.8861508  57.8187027
  63.5607147   5.4919934  58.6711349  64.2183075   6.2353668  57.5283508
  63.7456970  60.4431915  34.4002724  62.9915543  59.8555260  34.4465904
  63.4365120  61.1896248  33.8869705  63.9436188   6.7645760  75.8603897
  63.8912659   6.1288061  76.5740356  64.1638947   6.2416987  75.0894775
  80.6169662  29.6531296  18.5477791  80.0445786  30.0504074  19.2041168
  80.8537750  28.8033733  18.9193516  52.7615547  54.2203445   3.4974973
  53.4939384  53.6559219   3.7450287  52.9080238  55.0306320   3.9855638
  51.8051872   3.6903751  40.4964027  50.9546967   3.3354626  40.7551308
  51.6685257   4.6370578  40.4596901  57.6017036   6.1987782  17.7706833
  57.3146286   6.9073367  18.3466740  56.9643974   5.4993944  17.9153728
  41.3136368  34.9621239  57.0495682  41.5311050  34.0360756  56.9428978
  40.4374313  35.0472221  56.6737328  73.5620956   5.0072122  55.7718506
  73.7160416   4.3239803  55.1193733  72.6902084   5.3437862  55.5650635
  15.1984787  38.5411873  68.7732620  14.8994398  38.7167130  67.8810730
  14.3934317  38.4110336  69.2744522  67.6221085  33.8472404  85.0962830
  67.7489395  33.5692520  84.1891632  66.6928787  34.0704079  85.1507034
  51.2278481   0.5874510  18.3368263  50.5790749   0.3343669  18.9935398
  51.8750229  -0.1175668  18.3553753  60.5574188  30.2012177  15.5822144
  60.7098122  29.8836136  14.6921940  61.4342194  30.3305111  15.9437943
  23.9711914  46.9516029  55.7361145  24.0413132  46.4366531  56.5399437
  23.0896111  46.7691345  55.4109154  37.8155899  68.2825317  31.1735439
  38.2881470  67.8730240  31.8982697  38.0030212  69.2169266  31.2629681
  57.7662201  21.1754837  38.5749207  58.0547523  21.8823109  39.1523056
  58.5098343  21.0241528  37.9915085  16.6356049  67.3159485  28.1960449
  16.5331230  68.2674637  28.2146187  15.8348436  66.9808807  28.5994663
  35.8004837  28.2677402  13.4198179  35.5301399  29.1269016  13.7438364
  36.2630386  27.8685608  14.1566563  12.5764494   4.0961161  64.9450684
  12.2744122   4.9792848  64.7328949  13.3796568   4.2319703  65.4476929
  77.2085266  17.6721916  68.0959930  77.6600342  17.1247120  67.4536209
  77.2839355  18.5608864  67.7484741  41.6163139  30.2774887  18.7047882
  40.8842392  29.8209095  19.1193199  42.3964729  29.8562908  19.0655880
  32.1092911  62.4535370  52.8169365  31.3146343  62.5544319  52.2929344
  31.9100037  62.8961868  53.6419067  29.8206959  54.6849174  16.7596169
  30.4862289  54.6389275  16.0731926  29.3387299  53.8616104  16.6814766
  26.5252876  42.7482986  66.4451370  26.4910431  43.6861649  66.2568054
  27.4549484  42.5268974  66.3908615  44.7049751  37.9580574   2.3496764
  45.2632561  38.7328987   2.2850385  44.3265457  37.8619347   1.4757296
  20.8247337  38.5865326  56.9043159  21.5012455  38.2738571  57.5049782
  20.9573765  39.5337372  56.8663101  72.3507156  15.5875425  59.7746620
  73.0491104  15.2401390  60.3294487  72.7337189  15.6173382  58.8979340
  71.2072601  37.0943642  52.4293861  71.7107697  37.3380203  53.2061386
  71.0612106  36.1531334  52.5241585   8.6571941   9.7524309  10.9447107
   8.9309864   9.9252853  11.8454838   7.7314448   9.9949865  10.9250345
  21.7951775  18.8066330  70.2184830  22.5115471  19.1560211  69.6884155
  21.6073723  17.9508133  69.8330841  22.9987278   1.5366514  82.9024582
  22.1246281   1.3138479  83.2226715  23.0389385   2.4912457  82.9604568
  37.3992462  55.4218979  40.3740005  37.7466507  54.7881355  39.7463951
  37.6866379  56.2717323  40.0402069  42.7772293  56.4292297  25.7684155
  43.7268486  56.5301628  25.8337688  42.5920830  55.6065102  26.2212830
  84.3982391   6.5772552  50.5657692  84.1180344   7.3418179  50.0626144
  84.0796814   6.7443953  51.4527931  14.0937433  49.4579887   3.5822310
  13.9196100  50.2510109   3.0752556  14.8895988  49.0950966   3.1934447
  83.4848785  59.8520775  70.3393936  82.5446014  59.8885841  70.1639481
  83.5524673  59.8968010  71.2931595  74.8609619  33.6517715  88.2315826
  74.3040161  34.4217567  88.3463364  74.6726151  33.1041946  88.9937592
  83.3042755  36.5102348  67.7158203  84.0684204  36.2584457  67.1972504
  82.5957260  36.5865211  67.0767822  33.5005341  49.3468933  18.2775478
  33.7091217  48.7014732  18.9529419  34.2760201  49.3658943  17.7167549
  57.9306526   5.2589417  38.0077171  58.1546745   6.1548114  37.7557983
  57.1559639   5.0499840  37.4857712  27.5024815  67.8050308  82.5451813
  27.5550137  66.8809891  82.3009949  26.5674782  68.0078125  82.5155334
   4.4176388  49.5488052  21.2778568   3.9070737  49.8770180  20.5377007
   4.1251221  48.6441040  21.3882046  68.9997025  61.8369675  25.0771103
  68.5051498  62.3106346  25.7459106  68.6441879  62.1540413  24.2468662
  21.3843079  30.0424976  76.5140381  20.9939709  29.2327957  76.8430557
  22.2690563  30.0475502  76.8793106  75.5479050  58.0277443  55.4957657
  74.9987946  57.5235558  54.8953476  75.0367737  58.0771561  56.3035622
  80.6551743  18.7585220  87.9022751  80.9487381  18.6886120  88.8106537
  80.0648193  18.0144901  87.7834167  35.0393639   3.3885698   4.9447703
  35.4453430   2.9936805   5.7164407  34.7503738   2.6432240   4.4182959
  84.9107056  19.4203548   6.1315598  85.5324783  19.4198170   6.8593216
  84.0956879  19.7465572   6.5130954  32.4698715  32.1527290  57.7577133
  32.6358452  31.3877048  58.3085518  32.5874252  31.8336525  56.8629456
  55.4706154  71.4743500  77.5644989  55.3840294  71.4558411  78.5175934
  54.6485252  71.1049576  77.2420883  11.0599318  16.3092995  68.5005341
  10.4284868  17.0242882  68.5799026  10.5225430  15.5294962  68.3614197
  24.7008781  53.5218315  81.1729126  24.4973431  54.4551773  81.2334824
  24.4472408  53.1656303  82.0243912   3.3866940  48.5384521  28.8374081
   3.7163572  48.7798119  27.9717865   4.0154948  48.9220772  29.4486961
  86.9921188  46.8942833   3.0477536  86.8112183  46.6574516   2.1381295
  86.2688675  46.5104752   3.5435617  45.6135788  65.7597733  36.7289543
  45.0737839  66.4937897  37.0223351  45.4009933  65.6620789  35.8007851
  76.2294846  63.9673386  87.4742126  77.0327988  64.4730911  87.5972443
  76.4386292  63.0984459  87.8170242  58.9136124  31.0945854  35.8800430
  58.0156784  31.4247818  35.9103584  59.2986221  31.5177250  35.1126099
  27.8521690  68.2850494  77.6915359  28.5134506  67.9319458  77.0963440
  27.0484219  68.3046951  77.1720810  66.9451523  29.9174881  52.3803749
  67.1781921  30.4251328  53.1576920  67.1153412  30.5095501  51.6477547
  27.8190269  64.0872345  84.4204712  28.7654629  64.0418396  84.2846985
  27.6938782  64.8533173  84.9805450  81.3987732  33.2284393  52.7534256
  81.7716064  33.2374039  51.8718643  81.5764542  34.1037979  53.0975304
  48.3963928  32.9713516  85.0614624  47.5966301  33.3393555  85.4372101
  49.0907173  33.5646362  85.3480911  66.4105301  18.8290749  29.2624474
  66.9418030  19.0377464  28.4940491  66.9691010  18.2606316  29.7926388
  48.3236046  53.4539909  13.4934959  48.0739937  53.1047173  12.6379633
  48.3361511  52.6898155  14.0697851  62.4142647  60.1509972  45.5291405
  61.8508949  60.3190422  46.2845268  62.8264389  60.9951134  45.3452606
  52.3355331   3.0061076  77.9946823  53.0897293   3.3724990  78.4563904
  51.7580643   2.6921864  78.6905441  84.4304581   9.9104452  77.0087051
  84.6857834   9.7070246  76.1088943  85.0561600   9.4289389  77.5498886
  17.0022659  37.1557884  47.0762558  16.6135998  36.6940308  47.8191872
  16.2529354  37.4479446  46.5572357  58.6278076  25.7508488  14.6389933
  58.2927132  26.6456146  14.6967878  57.9400063  25.2118092  15.0296268
  44.7838821  30.7122173  70.0656357  43.9627838  30.2203274  70.0570374
  45.4322128  30.0902843  70.3959351  62.1641579  42.2343063  66.9577026
  61.8141975  43.1130409  67.1046219  62.4760895  41.9537849  67.8180695
  60.2551498  37.8897209  70.9101639  60.1754417  36.9373894  70.9644470
  60.2265434  38.0794029  69.9723816  62.1130905  51.0546036  42.6298561
  61.4677811  51.0751419  43.3365288  62.2955627  51.9759445  42.4452820
  82.1713181   9.5100870  46.7874832  82.3108139  10.3271246  47.2662544
  83.0311050   9.0895319  46.7758141  47.4561157  30.5652256  20.4033756
  47.5266380  31.3360844  19.8403187  46.8738327  30.8387871  21.1121387
  54.3196526  13.7533884  18.6207428  55.2497101  13.9604263  18.7121773
  54.1266098  13.9206352  17.6982479  15.1691198  51.8993530  57.0717354
  15.2018881  51.3161087  56.3134575  14.2357292  51.9915810  57.2628059
  43.9456635  22.9158840  86.7061157  43.0894127  22.8890057  86.2790909
  43.9325523  23.7243557  87.2183990   5.2613716  58.4473991   3.1212149
   6.1856232  58.6413536   3.2773328   5.2110724  57.4916649   3.1378512
  49.6129608   5.4426117  11.0400820  49.6526794   4.8888717  10.2603216
  49.4079704   4.8378277  11.7531366   6.0502224  25.2031288  88.6258163
   5.5655246  25.3480835  87.8132324   6.7441936  24.5895901  88.3845520
  51.8402863  41.1903534  56.7234344  51.4685516  40.4056168  57.1262169
  51.8986893  41.8225288  57.4397964  50.8835411  63.6222916  14.4546337
  51.6602783  63.6627502  15.0125542  50.9469910  64.3991623  13.8990421
  72.2246094  68.1677017  41.1738968  72.4802094  68.8577271  40.5617218
  73.0168915  67.6426926  41.2874260  53.8725014  18.3723354  78.2328873
  53.3800125  18.2354622  79.0421753  53.2322273  18.2295609  77.5358200
  16.1970215  60.2402496  65.2576370  16.5191441  59.4459457  64.8315506
  16.0582752  60.8578033  64.5395737  21.5899887  46.4191856  77.2745743
  22.1774197  47.1687355  77.1779861  21.9393501  45.7619705  76.6727066
  41.7820168  23.4351177  84.6289444  40.8374329  23.3027840  84.5484085
  41.8683891  24.2484512  85.1261978  51.1226158   5.1386375  83.8548965
  51.5368690   4.7098842  83.1060333  51.8225937   5.2177329  84.5029755
  46.6387787  12.7560377  54.0829964  46.2346039  12.4423227  53.2740097
  46.1252060  12.3491211  54.7807732   7.1048250  12.9345741  71.7366409
   6.1486073  12.9229116  71.6948853   7.3721237  12.1068430  71.3370819
  56.9229965  58.7457581  68.4656754  56.3514748  58.0025520  68.6586380
  57.4786530  58.8281670  69.2407150  63.7057686  52.7893906  38.5301628
  63.8912849  53.4227295  37.8368378  63.9160881  51.9403114  38.1414909
  66.4697571  32.2247047  24.9468098  65.6683121  31.8583946  25.3206081
  67.0323486  31.4652214  24.7954369  61.6524658   2.8262010   0.1101002
  61.1053505   3.4938381   0.5238099  61.5941582   2.0717649   0.6963238
  71.9978638  51.8448830  52.9444122  72.4681702  52.4254799  53.5427017
  71.2693634  51.5048103  53.4639015  59.9744987  37.8588676  68.3300171
  59.9688988  38.5522385  67.6701431  60.4300613  37.1303787  67.9081116
  75.2417526  35.2751389  77.0283279  75.4263916  34.8239632  76.2045670
  74.3001099  35.4450569  77.0025177  73.5885544   0.6662679  70.8240585
  73.7389221   0.1832036  70.0114899  74.1669159   1.4263945  70.7613373
  30.4412708  54.4578247  40.0669899  29.8463402  53.9052849  40.5739288
  30.4921093  55.2741776  40.5641975  70.4741974   4.3051281  65.2318420
  71.0040741   4.9790020  64.8059845  70.5462265   4.4989114  66.1664505
  41.0605278  49.0680962  16.1201878  42.0062866  49.0413017  15.9750862
  40.6890068  48.6173248  15.3618956  82.8443832  50.6547356  74.4270020
  82.3083420  50.1305962  73.8318787  82.7110138  50.2534828  75.2857437
  14.8530922  22.8098202  64.6041183  14.3515615  23.6202259  64.6932297
  15.7180758  23.0237846  64.9537659  34.6099548  62.1535912  70.3743744
  34.2815170  61.2710876  70.2024765  35.4431953  62.1946869  69.9050598
  37.8327141  68.8677063  20.4664917  37.4570847  68.3756714  21.1965885
  37.2541504  68.6790085  19.7276478  61.7100029  60.2835999  56.4778862
  61.3947906  59.5958023  57.0642357  61.5313568  61.0986557  56.9469261
  33.0291748  45.8098564   5.6738048  32.8276100  45.5578041   6.5749564
  33.6902809  45.1782188   5.3905997  71.5407639  24.7154827  10.2858801
  72.4551697  24.9388618  10.4596796  71.4607391  24.7581348   9.3329849
  26.4002247  26.0624790  71.4084015  26.1875362  26.4197102  70.5462036
  25.6338501  26.2620640  71.9460526  26.0574131   3.9910679   6.5362997
  25.2022686   3.6567025   6.2658229  26.1745987   3.6574810   7.4258046
  45.1885147  15.0008068  88.4452744  45.6289749  15.4970446  89.1351852
  45.7228241  14.2139130  88.3378448  32.6674843  24.6616917  88.0272446
  33.4603806  24.7608433  88.5542374  32.9721146  24.2739716  87.2068176
  36.7062073  17.1475544  61.3489189  37.0460396  17.9535160  60.9601135
  37.3312187  16.4722862  61.0850945  27.8042297  19.9496231  74.3255997
  28.0962715  20.3671436  75.1359177  27.2122936  19.2548714  74.6139832
  82.9986343  71.7136383  51.5924873  83.9116669  71.9133911  51.3858452
  82.7604599  71.0191803  50.9782982   2.9639320  26.8331470  34.0547714
   3.1509528  26.5071964  34.9351196   3.6950581  26.5190811  33.5227470
  48.8601151  22.8279362  87.7213364  48.3573532  22.1001225  88.0870514
  48.5258827  23.6017437  88.1749268  71.7195435  70.0053253  54.3565559
  72.6463547  69.8120880  54.4976768  71.2651596  69.2053375  54.6207466
  86.0935669  44.2351151  81.7500458  86.7312622  43.6043816  81.4157410
  86.4393768  44.4957733  82.6036835  80.8261414  10.4104090  17.0414696
  81.4661407  11.0274267  16.6866074  81.1901932  10.1473904  17.8867626
  24.1811581  45.5572662  73.0217743  24.7967587  44.8751259  73.2900085
  24.2907085  45.6190910  72.0728760  68.5705643  66.0684204  28.2097435
  67.9536438  66.2030182  28.9291344  68.0502625  66.2086182  27.4186306
  66.2397232  53.0633163  62.8944168  66.9977570  52.5705414  62.5801239
  65.8122253  53.3787727  62.0982018  70.2949524   1.5381339  44.6421127
  69.9411240   2.2752726  45.1397705  69.8609085   1.5935296  43.7907791
  70.7447815  27.5919189  35.2250786  70.1518784  28.1207981  34.6912384
  71.3124313  28.2304535  35.6566849  45.3058777   0.4663989  48.2918854
  45.3382149  -0.1057326  47.5251694  46.0836258   0.2323066  48.7983856
  70.6671371  43.9853020  35.3419304  70.6441956  44.6104813  36.0663986
  71.5244751  43.5658607  35.4145851  28.7034912   6.7175221  68.5673370
  28.9670010   7.4926877  68.0714417  28.6060219   6.0320606  67.9063721
  26.3435860  49.4389534  83.8199310  26.8040657  49.1223526  84.5970764
  26.2796230  50.3853378  83.9483719  23.0835381  29.3396816  64.1510620
  23.7949886  29.9782619  64.1988754  23.2259312  28.8841438  63.3213387
  10.2431726  61.3984375  24.2188377  10.2921848  60.9167366  25.0445461
  11.1383667  61.6998482  24.0638847  79.4856033  69.2406845  41.6028709
  80.3239212  68.9348831  41.2565460  78.8303528  68.8449173  41.0281944
  46.8737297  15.5002871  77.5745392  46.3754311  14.6882420  77.4822769
  47.5108681  15.3133106  78.2639771  52.2421150  43.3093033  16.0823860
  51.8407021  43.7285347  15.3212395  52.8333206  42.6544304  15.7111034
  18.3843632  46.7220078  82.4959335  18.1644764  46.0700989  81.8304291
  19.3279114  46.6245117  82.6241760   1.2908180  53.4688301   3.0229819
   1.2245142  52.5242233   3.1628020   0.7995373  53.8534660   3.7488821
  58.8925705  46.8931122  61.0712128  58.6496239  46.5355721  60.2171783
  58.1598282  46.6653633  61.6434479  14.9505749  44.1583061  65.7963638
  14.9423227  43.4964180  66.4877853  14.0611973  44.1462936  65.4426727
   7.8022509  65.3429260  42.3937302   7.3343992  65.3993988  41.5605659
   8.3713322  64.5792923  42.2975845  45.5649605   8.4782963  75.8581238
  45.6110420   9.3798790  75.5399094  46.0705757   7.9733758  75.2212219
  12.2229557  37.4005928  33.6264992  12.3227940  36.5252533  33.2522697
  11.3550920  37.3909378  34.0301704  22.8700714  22.7848644  65.7834625
  23.5157242  22.3199806  65.2512512  22.4792290  22.1057606  66.3332748
  51.3084526  43.5729980  12.4003582  51.6326027  43.7098198  11.5101681
  51.8650208  42.8791275  12.7539186  23.6212254  10.8116045  70.2605362
  22.6651936  10.8186178  70.2137909  23.8739185  11.7261581  70.1341629
  11.6217852   7.0508533  81.3811569  11.8814659   6.4005303  80.7285614
  12.3332510   7.6911926  81.3774643  32.0927391   0.7816678  38.8498154
  31.9403038   0.3342347  39.6821594  31.2173920   0.9177155  38.4871979
  13.8479118  66.5648651  77.1283417  14.3769827  67.1862411  77.6285553
  12.9468613  66.8629608  77.2527466  67.2142792  63.2555542  39.8784981
  66.8948975  62.6677971  40.5631714  68.0020752  62.8273087  39.5435104
  74.8105011  50.8944359  48.0884972  75.7450790  50.7384377  48.2243423
  74.3770905  50.2019615  48.5873642   4.6262288  44.9598923  52.7071609
   3.7511396  45.1052208  53.0667839   5.1797042  44.8157501  53.4747009
   0.5994686  24.0369473  -0.0703769   0.3037144  24.9109001  -0.3252615
   0.1687950  23.8735924   0.7687106  49.9581223  41.8438377  87.5079422
  49.9089088  42.0806694  88.4340744  49.0450058  41.7852898  87.2268372
  60.9414368  29.6334209  83.4636459  60.3868179  28.8537292  83.4902496
  60.6232948  30.1279964  82.7083893  55.0666313  67.0779419   1.4568161
  55.5528336  67.7282944   0.9499842  55.6146584  66.9137878   2.2242470
  30.4017277   9.4779215  16.9170513  30.1939507   8.6148691  17.2751045
  30.9005833   9.9108706  17.6098213  47.5597115   7.8835511  53.6810226
  47.3113708   8.2473745  54.5308418  48.3905563   8.3101559  53.4714050
  82.7668762  60.9127121  61.5488014  82.5593338  61.0757523  62.4688950
  83.5213470  60.3241882  61.5740967  47.8827438   6.5672631  31.7984905
  48.7316704   6.8555660  31.4631729  48.0982666   5.9814916  32.5242004
  25.1958237  39.6072922  28.0182991  25.0361786  39.8341522  28.9344215
  24.9871483  38.6747742  27.9626064  50.0072174   0.5996504  50.7518959
  49.1453285   0.1972311  50.8588295  50.1638832   0.5829314  49.8077507
  16.2801399  64.5029221  38.9040184  16.2635002  64.4058762  37.9518967
  16.6829262  63.6942062  39.2201996  74.3686676  14.0708141  60.9784431
  73.9292679  13.2647943  61.2495384  75.1285019  13.7728291  60.4783592
   4.1465559  33.1722031  45.2400932   4.1309052  32.8607750  46.1450806
   3.7689419  34.0507431  45.2825584  57.6790199   2.2077181  80.1658096
  57.7276688   2.1363664  79.2125168  57.5300484   3.1390672  80.3289948
  22.6958351  41.6868706  27.7594872  22.9979401  42.4101219  28.3089142
  23.3554802  41.0036163  27.8789215  44.6756973  34.5909996  24.3024445
  44.4727058  34.7679787  23.3839092  43.9156227  34.1080856  24.6269646
  25.3525372   4.5415497  83.4795380  26.0032959   5.1928296  83.7414169
  25.7498837   3.7009876  83.7071381  35.9264946   7.9817729   2.0391064
  35.9543991   7.1430717   2.4995778  35.8701897   7.7449927   1.1133653
  21.5276814  55.6119080  47.0973434  21.9257469  55.0497742  46.4326782
  21.8377876  55.2551689  47.9296951  44.9162598  27.7040405  68.5393372
  45.2722473  27.6667938  67.6515808  43.9722252  27.8017826  68.4149323
  80.5857544  19.9698143  56.9901390  79.9959946  20.6637688  56.6954498
  80.2950287  19.1909237  56.5157585  85.2741241  23.8102512  25.8008003
  85.3904037  23.9691143  24.8640633  84.7679520  24.5614777  26.1101151
  30.5529881  52.9780884  43.5301323  30.8505039  53.2053375  44.4110832
  31.3020725  52.5355377  43.1310692  50.3198280  29.2455349  68.9893951
  51.1800575  29.0687332  68.6086426  49.6991081  28.9980106  68.3040695
  59.7738457  68.1427994  28.6360226  59.6262741  69.0726929  28.8084946
  59.8195457  67.7424698  29.5042839  15.5320578  33.2296867  80.2949753
  16.3857822  33.4200096  80.6837692  15.7342319  32.7170143  79.5123367
  12.9303093   9.6249361  85.1961441  12.4491653  10.3912601  84.8839264
  13.4830055   9.3715734  84.4568481  44.3796959  68.9299088  56.4579926
  43.8969841  69.3000793  57.1970444  44.1267166  68.0068359  56.4448929
  23.5909290  20.5785255  82.7601089  23.4603424  19.6679173  82.4955902
  23.5564346  20.5574341  83.7164612  44.2451096  45.2696304  44.3981857
  44.9809456  45.2074890  43.7891579  43.5004692  45.5165367  43.8497505
  70.3253403  58.6192741   4.5492654  69.4258347  58.4094048   4.8004293
  70.2773514  59.5138397   4.2120938   6.5012679  64.0166397  53.2412224
   6.2084355  64.8059616  52.7857590   6.8931212  63.4758682  52.5554771
  81.6654434   6.9662614  84.2442245  82.4814911   7.4121614  84.0173645
  81.8183670   6.0515952  84.0070877  10.2438593  54.4481392  46.2301407
   9.7405653  53.7845306  45.7583923   9.5903597  54.9265633  46.7403183
  50.2687073  10.0006227  85.1863556  49.7517433  10.1566877  84.3960190
  50.1344147   9.0731201  85.3811264  56.5053253   4.8022943  40.3918343
  57.3112411   5.1944447  40.0557594  56.7822609   3.9624214  40.7581024
   9.2072630  62.4021034  75.8725052   9.5186319  63.2608376  76.1586075
   9.0582771  62.5023956  74.9323044  11.1597967  57.8125610  19.3129578
  11.5495119  58.1004791  18.4874516  11.0349293  56.8699379  19.2029629
  56.7724609  62.5752068  70.6866302  56.1060410  62.8376884  70.0516357
  56.5199738  61.6892090  70.9464188  61.0937119   6.4665732   4.7227325
  60.7439651   6.4728384   5.6137261  60.9906731   5.5606427   4.4313483
  59.4462166   1.0245049   9.1183558  59.7721138   1.4197795   9.9269218
  60.1574821   0.4540154   8.8270235  12.6926432  63.9578133  81.4708862
  12.2954149  63.0870552  81.4858398  12.3145027  64.3803635  80.6997223
  74.9161835  71.4789505  54.8076553  75.8183899  71.7555923  54.9680099
  74.9082718  70.5477219  55.0290031  65.3098373   6.2461696  69.6723709
  65.4407043   6.8834190  68.9702148  64.4964752   5.7979383  69.4404831
  65.6916122  60.1385536  15.8496761  66.2746201  60.2753258  15.1029301
  65.2221298  59.3306160  15.6421709  18.7227650  68.8407288  87.6987610
  17.9483700  69.1814194  87.2510147  18.3951340  68.5344315  88.5443802
  70.1723099  14.3866129  63.4351921  69.6654816  14.2503290  64.2356873
  70.7825317  15.0905590  63.6549988  14.5628347  40.9289513  60.7392006
  14.7339716  40.8309708  59.8025322  14.6922865  41.8618431  60.9100304
  55.1559792  14.4935617  24.3397865  54.4177017  14.4934196  23.7305412
  54.7509041  14.4808702  25.2069588  80.8646240  53.5932274  36.0640221
  80.9363937  54.1464386  36.8418655  81.4290390  52.8430290  36.2507515
   8.4298592  38.4558220  49.2022171   8.7587261  38.6315765  48.3206367
   8.1023140  37.5573540  49.1609650  75.5172424  22.5961857   5.2637234
  74.9710693  21.9204178   5.6652961  75.9721069  22.1451454   4.5524573
  55.6110802  36.9799194  31.3460369  54.7900772  37.0561256  31.8322201
  55.4179001  36.3563232  30.6460056  19.0032673  68.0381927  43.1026230
  18.3695011  68.6906738  43.4006805  19.8351059  68.3214188  43.4821777
  48.0406380  17.2771168  44.7771645  47.1800423  16.9351215  44.5349998
  48.4660454  17.4687881  43.9413872  68.2694855   8.5619631  82.7764816
  67.7090607   9.3317575  82.6786575  68.8875504   8.8018513  83.4669037
   5.1818447  37.8668022  15.3734932   4.4277000  37.3412743  15.1064358
   5.6630449  38.0252266  14.5613480  52.9200172   1.5139650  58.0794106
  53.7497597   1.9830970  57.9918137  52.5506516   1.8323556  58.9030800
  48.9664879  55.4042053  84.4116211  48.7919235  54.5419846  84.7888870
  49.8014450  55.6697197  84.7970810  78.0322952  36.6776199  22.9930496
  77.4211502  37.2676659  22.5519314  77.6682281  36.5687981  23.8715992
  53.4772644  22.2094116  44.8278999  54.2285690  21.6480942  44.6363297
  53.2459869  21.9994888  45.7327080  79.2824249   1.7749088  78.3129120
  80.2192001   1.5879128  78.3739624  79.0473022   2.1060162  79.1796951
  39.7066345   1.3129363  37.2727661  38.8799400   1.6533191  37.6147499
  39.7701225   0.4293347  37.6353264  49.8492317  39.8359222   5.6800437
  50.0270424  39.1342049   6.3063097  50.1533012  40.6307602   6.1182318
  49.2734718  44.6912575  67.8359985  49.2757988  43.7526360  67.6483536
  48.4028206  44.8614845  68.1954727  53.4314651  39.2339592  13.6407089
  54.2184181  38.6931877  13.7077866  53.0094299  39.1498070  14.4957161
   1.4691879  24.5572109   4.8287749   2.3217070  24.6203728   4.3981318
   0.8525833  24.3900566   4.1159706  67.4623871   1.9428287  79.2838440
  67.1773148   1.9453417  78.3700790  68.4181900   1.9640480  79.2366104
  13.2156534  45.9566154  31.6034069  12.2889242  46.1596756  31.7305698
  13.2877417  45.0254059  31.8128777  41.1293907  40.7899590  16.5162544
  40.3350830  40.8448715  17.0475674  41.7273865  40.2513199  17.0344257
  48.6602249   3.3069322  65.6947784  48.4194717   4.1211987  65.2529144
  48.8108826   3.5635991  66.6045303  75.3665771  38.5785866  80.6536865
  74.8579712  38.1932678  79.9401855  74.7183838  38.7786751  81.3289948
   1.2115630  68.4954453  86.5689240   0.8780808  67.6945724  86.9734344
   1.4453062  69.0574951  87.3076324  82.4890289  12.1878834  16.1729965
  82.5807114  13.1255646  16.3420544  82.9502182  12.0473862  15.3460722
  65.4202805   9.1172266  27.8824940  64.6429977   9.3737106  28.3787594
  65.5349197   8.1877642  28.0804558   1.2441863  49.3980675  49.3535957
   0.9164454  48.5365639  49.6117210   0.7110999  50.0166283  49.8530273
  21.5120316   0.1572919  84.9512558  21.0609779   0.8672053  85.4082108
  20.8118610  -0.3337658  84.5213089  33.4040260  62.3826752  50.2519302
  33.0412598  62.5994759  51.1107864  33.5596199  63.2309151  49.8365898
  14.6873245  25.7227154  71.0002060  14.8576126  25.9774551  71.9070358
  15.0327606  26.4474163  70.4789429   0.8811172   7.7179227   3.6985726
   0.2964780   7.5766540   2.9539440   1.0769069   8.6545897   3.6750343
  62.0764198  32.7532921  14.2489681  62.2374992  31.8605824  14.5545063
  62.9431419  33.1589165  14.2268190  58.6797600  34.7065125   6.8937111
  59.4665680  35.2459984   6.8154988  58.8218918  34.1891861   7.6864305
  35.0692749  58.3439178  10.2508516  35.6819000  57.6132126  10.3344460
  34.6137772  58.1812820   9.4248352  15.6631775  23.3371239   9.7794352
  16.4132938  23.4080048  10.3698015  15.6949024  22.4357033   9.4590187
  17.6923122  68.8898010  45.5195961  17.4690742  69.7710495  45.8192482
  18.2122021  68.5188980  46.2326050  30.3257732   6.8752527  17.7291546
  29.4145641   7.0978794  17.9198608  30.2704258   6.1162009  17.1486301
  81.1204605  16.1271362  25.2716827  80.8510132  17.0183239  25.0493889
  80.6279373  15.9190102  26.0656223  35.0662804  15.8200750   7.9122214
  34.5450935  15.0172939   7.9239526  35.6334343  15.7486639   8.6799898
  61.6129875  64.2845459  66.7497940  60.6907120  64.4460907  66.9486465
  62.0881538  64.9219284  67.2828903  71.8650513  50.4262695  74.4903717
  71.6695328  49.4995728  74.3516693  72.1057129  50.7526665  73.6233215
  70.5558014   1.7302643  64.8073807  70.7546310   1.7587847  63.8714981
  70.2250824   2.6056511  65.0087662  69.5245514  65.2879181  31.5468712
  69.3336334  66.1541519  31.9066219  70.0859375  64.8745728  32.2027931
  76.6073685  12.4871235  36.4248619  76.4120102  13.3943253  36.1902351
  77.2869568  12.2206230  35.8056870  39.6277695  17.0641384  70.5304947
  40.1083412  17.7777481  70.1109238  40.2489090  16.6930161  71.1571426
  70.4499893  70.6462936  34.7180519  69.5575180  70.6011276  34.3750000
  70.9990082  70.3329697  33.9992790  41.9095840   1.0226144  33.6833305
  42.1748123   1.7747532  34.2126427  41.3123131   1.3878143  33.0305443
  23.2198753  16.0587673  70.7352295  23.0093689  16.3080807  69.8353577
  23.9314365  16.6475658  70.9866791  28.1971970  39.7354012  15.4712200
  28.0526447  39.9531136  14.5503855  27.3962364  40.0178642  15.9127073
  21.7135925  51.3057747  52.8467674  22.5446892  51.5613594  52.4465332
  21.1835136  52.1025696  52.8276863  44.0290604  44.1867104  77.2561493
  43.9879417  44.1097832  78.2093658  44.6455154  44.9021301  77.0999680
   6.0011539   0.9209415  80.3334274   5.8568048   0.1363545  80.8624115
   5.2019644   1.4357042  80.4454422  46.6746979  25.7816200  28.9709930
  46.6200066  25.5093021  29.8870087  47.6126976  25.7950306  28.7807045
  86.7710571  24.1336002   2.6786296  85.8232956  24.1198826   2.8119881
  86.9809799  23.2553596   2.3610477  25.9874725  49.5408707  73.9140701
  26.2064953  48.6146660  74.0160599  25.0324116  49.5688858  73.9715729
  63.4892387  16.1449947  11.9908514  63.9971275  16.6629848  11.3663778
  63.8992691  15.2802258  11.9741488  33.3932381  62.3345222  46.4078941
  33.0284958  61.5882950  45.9321404  32.6309776  62.7741356  46.7846413
  75.1848679  22.2443924  74.0674744  75.7592392  22.9966373  74.2104874
  74.4532471  22.3839436  74.6687088  17.5823975  54.1356125  79.1445618
  17.1118355  53.5353279  78.5662384  18.0410614  54.7300186  78.5508041
  13.3526220  55.3892326  44.0457191  12.6695414  55.1873131  43.4062958
  13.3525534  54.6396751  44.6410294  69.3670273  17.2925625  56.4538040
  69.2221375  16.5232811  57.0046616  70.2062912  17.6447411  56.7501869
  68.2280884  18.2604370  75.8460312  69.0937729  18.3308811  75.4437256
  68.3401642  18.6301689  76.7218018  29.4729156  58.4192963  23.1864719
  28.8755398  57.6900902  23.3526936  28.9027538  59.1392975  22.9167519
  70.9781876  21.5244064  20.4225998  71.6435242  21.7774963  19.7826748
  70.1682968  21.9136505  20.0927563  65.1002579  42.7505913  73.7345200
  64.9183578  42.9191093  74.6590500  64.2374954  42.6231613  73.3400192
  42.6327362   7.9116192  79.0956345  41.9709587   8.5849257  78.9377213
  42.2127495   7.3002133  79.7006302  31.1634235  66.4215240  61.6254921
  30.6448288  66.7481995  60.8902512  32.0439644  66.7620010  61.4675026
  30.8886356  61.1443253  89.2725067  31.6138821  61.6733513  88.9402771
  31.1355629  60.2428436  89.0661316  14.9870377  65.5766830  24.1819191
  14.1136293  65.9632950  24.1192760  15.0846577  65.0732498  23.3736763
  63.8703423  47.2454834  16.2717762  64.6634674  47.2619247  16.8074150
  63.9694405  47.9867020  15.6742754  19.6842232   3.1497831  13.6926661
  19.2347584   2.3467040  13.9558706  19.3085995   3.3657525  12.8391466
  27.4934826  25.8613625  66.8496552  27.5234756  25.0267658  67.3173981
  28.2640285  25.8456078  66.2819901  20.3003712  47.0556793  58.1560440
  20.0833511  47.4544144  58.9987450  21.2135506  46.7838058  58.2477989
  60.3037491  64.6668472  37.2536507  60.1554375  65.4868393  37.7246513
  59.6827965  64.6931000  36.5256653  43.9167671  43.8538589  22.6882153
  44.0196877  43.7092209  23.6288109  44.7621460  43.6060181  22.3138618
  29.4372578  35.2360497  80.0921555  30.3014126  34.8684998  79.9067535
  29.6154823  36.0075073  80.6300430   8.2930889  35.4814796  38.6909065
   7.4698472  35.5653076  38.2097855   8.7554998  34.7676125  38.2518120
  13.3373804  10.0176487  68.2214203  12.4642372   9.6281719  68.2679138
  13.7065287   9.6812391  67.4048462  72.3429718  32.0213280  63.9068489
  71.5323029  32.3302345  64.3113632  72.9029312  31.7817230  64.6452637
   2.0029218   8.1916676  78.4614944   1.6297965   8.6773272  77.7258682
   1.9151188   8.7836714  79.2085190  67.8728943  40.0644302  81.2430649
  67.1899719  39.6390839  80.7244873  68.6125870  39.4578781  81.2085571
   3.7334709  56.1339264  38.1184692   4.6358867  55.8459053  37.9809113
   3.7916403  57.0880203  38.1690369  55.4926186   1.3905455  73.7738495
  56.0239258   0.6792699  73.4160309  56.1294937   2.0056052  74.1376114
  12.4434929  64.3659058  76.0519714  13.1035862  64.9829636  76.3678055
  11.6080914  64.8015518  76.2209320  52.5620117  33.7860222   7.8703704
  53.4555473  34.0461807   8.0942993  52.6540451  32.9088860   7.4983559
  26.0461807  36.1522789  73.6154175  25.2714825  36.7111549  73.5543289
  26.1195164  35.9455643  74.5471497   0.6868548  44.1392746  16.4662876
   0.1167443  43.4533157  16.8136635   1.2571610  44.3707428  17.1993675
  66.6009293  53.7112961  42.3018570  67.3604279  54.2891464  42.3759384
  65.8526688  54.3054314  42.2440910  78.8176346  48.8699265   0.2359032
  78.3966675  48.3996277  -0.4837065  79.3752060  48.2151909   0.6562222
  56.7767639   4.9234662  79.7945633  57.1647415   5.7912531  79.6820908
  56.7837639   4.7787833  80.7407455  23.0078373  47.5912781  26.1305180
  23.2065792  48.0834656  26.9270649  22.1845798  47.1432953  26.3249149
  64.7329865  11.5592232  63.3344765  64.0788803  10.8637047  63.2664223
  64.2802353  12.2702675  63.7879791  57.7446518  30.3359108  73.8111649
  57.9421730  30.5655212  74.7191849  58.2649345  29.5499859  73.6442413
   3.3556235   6.3681889   1.9705986   3.2018025   6.2500381   2.9079413
   2.4795775   6.4341288   1.5905625  52.5297585   4.9712362  24.7717800
  52.9173470   4.2118731  25.2069492  52.6786842   5.6966934  25.3782158
  74.4111176  15.8515673  18.7929363  73.6530838  15.2672567  18.8068333
  74.5241928  16.0752678  17.8691368  25.8787479  21.7615795  70.1999435
  26.1476135  21.7295628  71.1180496  25.6769753  22.6837559  70.0414810
  29.0429306  59.2486420  77.9117050  29.1732063  58.8794022  77.0382538
  29.9119148  59.2279434  78.3125458  14.6211567  56.3046989  41.3683167
  14.0068626  55.8562202  41.9494705  14.0970459  56.5427780  40.6035576
  86.4217148   4.7548208  26.4959545  86.6637497   4.1189675  25.8226471
  87.2442551   5.1890306  26.7220707  83.7150421   3.5705674  27.8096638
  83.8535538   4.4835072  28.0618286  84.5746918   3.1615160  27.9092236
  38.6602173   9.4697781   7.1162577  38.1324425   8.6728678   7.0650778
  38.9458885   9.6260786   6.2161503  45.2502556  38.8316727  38.4981766
  45.3293343  39.3636742  39.2899818  46.0781097  38.3538971  38.4469643
  52.2545319  31.8362083  46.9922447  51.6256371  31.1370754  46.8135300
  51.9674530  32.5635071  46.4401093  81.7216721  20.9220867  68.8299408
  82.4251022  20.9187145  68.1807861  82.1739426  20.9014072  69.6733017
  54.6463127  29.8001957  73.0353088  55.4767914  29.7419472  72.5629272
  54.1715164  30.5074272  72.5987091  57.1986198  10.5636454  17.3555241
  56.3800545  10.2597952  17.7477722  57.6761017  10.9674063  18.0802460
  34.2274475   3.9934630  22.5438690  34.4825974   3.3149242  23.1689415
  33.6118279   4.5447860  23.0268650  64.3651810   2.7011521  58.7641182
  64.6335602   3.3879888  59.3744164  64.2562637   1.9235176  59.3115234
  22.4618530  57.7703857  20.5538330  22.8500118  57.7134438  21.4269428
  21.8142643  58.4716759  20.6248894   4.5083618  32.9123497  22.5428982
   4.9546638  33.5704803  22.0100613   3.8534434  33.4069595  23.0355186
  46.4100952   0.0401036  71.8347244  46.7983704   0.8767939  71.5789413
  46.9824982  -0.6193753  71.4427109  63.0724754  42.0987587  61.7448730
  62.6984406  42.6256371  62.4510803  62.5829353  41.2767334  61.7742424
  55.7383308  37.8789062  13.2620859  55.9741592  37.0090561  13.5845461
  55.8312950  37.8152962  12.3115368  54.2131958  29.4671917  21.8206100
  55.0475578  29.5236816  22.2863140  54.4157372  29.7551708  20.9305115
  55.2621536  34.4641380  39.0720406  55.9928589  34.0512123  38.6118317
  54.4845200  34.0200081  38.7340050  59.1760292  25.3216610  23.2501316
  59.7801666  25.5963535  22.5603523  59.6929741  24.7340851  23.8012676
  48.7580338  36.1045265  67.1194458  48.9225998  35.8879890  66.2016983
  48.2678604  35.3553505  67.4581223  52.2427216  56.7104721  34.2057571
  52.9016037  57.3696175  34.4240150  52.4731903  55.9537926  34.7447853
  79.1798935  26.1220036  72.4337158  79.2112045  26.7448635  71.7075653
  78.8826904  26.6405392  73.1813965  66.4454422  24.3502426  21.2198200
  67.1998672  23.7775669  21.3580685  65.7984924  24.0527172  21.8594837
   7.1089087  64.0528030  31.2831783   7.7232499  64.3577957  31.9508610
   6.3428640  64.6173172  31.3867970  10.4668293  12.4237061   6.2315154
  10.2107124  12.9265738   7.0046649  11.0028782  13.0288372   5.7189741
  63.3296013  36.9829903  22.2084351  63.1493149  36.6641312  21.3240929
  62.5719910  36.7040672  22.7226944  41.5775871  45.3883591   2.6215432
  41.3213692  44.6444550   2.0763910  41.7081375  45.0133286   3.4924867
  16.5919495  37.3588371   6.0788326  15.9258556  38.0382195   5.9739952
  16.2243881  36.7615356   6.7302623   4.4977217  54.9484367  62.7551460
   4.7869296  54.0642433  62.9805069   5.0450282  55.1968651  62.0101814
  29.8292427   2.5642290  70.7317352  30.6336880   2.0455122  70.7260971
  29.7711830   2.9064746  71.6237717  62.2355995   4.8309965  25.6480827
  62.7567215   5.1157637  26.3987961  62.1738663   5.6070523  25.0911636
  51.2180214  53.6974564  87.9447632  51.0896988  54.6421356  87.8590164
  51.4281998  53.5672531  88.8694763  48.6811295  25.2843666  32.0728188
  49.1959152  25.1282082  31.2810860  47.8162193  24.9277554  31.8703594
  75.9832687  43.4266510  11.9938622  75.3714905  43.5528488  12.7191486
  75.4871597  43.6795425  11.2153015  40.3046417  55.3283234  38.1486855
  40.2210464  55.8143997  37.3283348  40.9170494  55.8452988  38.6720657
  31.7366943   4.8392434  88.1832352  31.7513046   4.4339561  87.3161926
  31.8549595   4.1091843  88.7909012  28.1319885  35.6120682  47.4966545
  28.6133614  35.8145790  48.2988396  27.3058643  35.2366943  47.8013573
  69.0988007  47.4412689  25.1447468  68.7016144  48.3111191  25.1875973
  69.1175919  47.1415138  26.0536079  47.1166573  56.7301865  30.2885208
  47.0279388  57.2233276  29.4729404  47.5070953  55.8973618  30.0235825
   6.3124151  37.0641747  25.0629711   5.7600050  37.0122719  25.8429585
   6.4115515  38.0024643  24.9016876  34.6018066  70.4819946  67.2496719
  34.0441742  70.0919037  67.9228058  33.9915047  70.9253387  66.6604309
  80.9737778  27.1087799  50.9559746  81.1926727  27.3426666  51.8579788
  81.4801636  27.7196026  50.4205322  74.4276962  35.0570450  16.9566231
  73.5774689  34.8429375  16.5725670  74.7334366  34.2331467  17.3360348
  14.4373312  58.7478180  85.7629471  14.3299761  59.5697632  85.2842941
  13.8222761  58.8139343  86.4934082  81.9182281  62.2910194   7.0152521
  82.1973953  63.1996765   7.1276674  81.6257095  62.0208931   7.8857112
  25.9236832  30.3142414  66.9019318  26.5078659  30.5419807  66.1786728
  25.2197380  30.9610767  66.8540039  53.8156128   9.7767639  88.5458679
  53.3195572   8.9587059  88.5765152  53.7364655  10.0710173  87.6384659
   7.8309221  48.3481560  72.6885834   8.4239235  48.4935188  71.9513855
   8.3256702  48.6385651  73.4548187   9.8392897  51.2047958  71.3337402
   9.0398712  51.6831627  71.5535736  10.5487986  51.7998390  71.5761337
  22.1962948  24.0626755  74.6342163  22.3882713  23.3794422  75.2765274
  23.0144558  24.1726170  74.1496964  81.1835098   7.1200032  26.7943134
  80.4998550   7.6059170  26.3330898  80.7111893   6.4412241  27.2763882
  54.1444397  58.4478607  83.5222855  54.1135559  58.5226517  84.4760666
  53.9497185  57.5270576  83.3478165  17.2546158  34.8157768  11.8223791
  16.6425343  35.0057411  12.5333652  18.0190868  35.3594284  12.0127964
  22.1813202  53.0840607  34.1747894  21.3188992  52.7291527  33.9591484
  22.4285469  52.6373291  34.9844475  18.5012169  41.8807220  59.7064285
  18.2505856  41.8826675  58.7826233  18.2661133  41.0061989  60.0165405
  68.0176773  14.5349264  45.5459290  67.2430954  14.0029612  45.3635101
  68.0024261  15.2179842  44.8755341  17.0179768  24.2971992  74.6830139
  17.5767479  23.6184883  75.0616379  17.1313610  24.2008419  73.7374496
  26.9005527  60.8775597  26.0018024  26.1704006  61.3948822  26.3416424
  27.6825180  61.3408775  26.3019676   9.6266899  67.0691452  59.5589714
   9.0081844  67.2879105  58.8619614   9.5230169  67.7719650  60.2004776
  25.9901581  61.4130249   9.5086002  25.2372284  61.9397354   9.2404528
  26.3335552  61.0524559   8.6911030  61.0201950  14.8873730  52.4314575
  61.0234261  14.0540667  51.9604797  61.0672264  14.6406326  53.3551140
  55.0894356  69.8832245  50.8224792  54.1776848  70.0595169  50.5904007
  55.0472298  69.5389175  51.7146149  77.0369263  62.6297874  15.0516520
  76.7382736  63.5391884  15.0564356  77.4230270  62.4999275  15.9178467
  42.3030777  49.3267517  20.7642994  42.2426262  50.1478119  21.2525959
  41.4045906  48.9978294  20.7366295  27.3392754  54.5669403  84.3104858
  27.0301018  55.3344879  84.7916489  27.3662643  54.8517456  83.3970337
  26.9367256  54.3005295  88.4913025  27.2977886  54.1797791  89.3695297
  26.6106396  55.2004662  88.4880524  41.8956718  42.5505600  21.1140881
  41.7714729  43.4168358  20.7263145  42.5836449  42.6770248  21.7674904
  83.5604630  39.3779869  56.4651337  83.7977066  40.1900024  56.0172729
  83.6306915  38.7028809  55.7902031  54.4652786  58.3236122  28.3903732
  53.5628815  58.0655212  28.5782642  54.7964172  58.6602554  29.2229881
  35.1063309  65.3070831  19.4055691  35.4599075  64.7463226  18.7150936
  34.7086525  64.6984940  20.0282230  48.6208611  68.4235001  76.8452988
  47.9338112  69.0056839  76.5208740  48.2604980  67.5434875  76.7359390
  77.4912872  40.4473305  80.0911484  77.0908203  39.5790138  80.1344910
  78.3722687  40.2881432  79.7523727  22.8827877  31.0017567  11.7091589
  23.5894318  31.1603565  12.3350449  22.9969501  30.0887451  11.4453259
  44.3035851  38.8986282  23.1550751  43.8672714  39.5091820  22.5608616
  45.1506805  38.7278137  22.7433872  75.2999725  32.5488663  84.7770233
  75.0532913  33.0597115  85.5480118  76.2179184  32.7733231  84.6246414
  17.7699089  15.2708826  65.1999359  18.4189377  15.9272957  64.9467316
  17.1668262  15.2315826  64.4576569  21.9995918  12.8801527  88.3918381
  22.1583443  11.9800243  88.1075897  21.1112728  12.8656816  88.7480850
  28.8550053  48.1612892  25.0125198  28.1275806  48.4526367  25.5622482
  29.0057926  48.8890419  24.4093056  28.3988152  46.2474098  84.1032791
  28.7836666  46.9986229  83.6518326  27.5836697  46.0763550  83.6315689
  79.6740112  26.4035492  81.3770752  80.6186371  26.4999828  81.2561951
  79.5408783  25.4614449  81.4816971  62.9048004  14.8785419  46.1551170
  62.6133385  15.4724426  45.4633331  63.7443199  14.5409126  45.8429565
  30.8109493  31.2141533   0.5288941  30.7903919  31.7233257   1.3391744
  30.3341656  30.4110546   0.7385166  46.2343025   5.8172269  58.1944008
  45.5230751   5.2320018  58.4549675  46.1143684   5.9351807  57.2520981
  21.4660950  49.8798637  16.3990688  22.1454773  49.2347603  16.2028255
  21.2969971  50.3118668  15.5618048  86.4992142  45.7062492  73.8564148
  87.0893631  45.8257561  74.6005096  85.7333984  46.2392616  74.0700836
  24.5557919   2.6314607  17.0495930  23.7103329   2.5427694  16.6096344
  24.8798466   3.4892709  16.7750359  18.5418091  44.2634163  60.8438568
  19.2949448  44.3772888  61.4235573  18.6876278  43.4148636  60.4256134
  54.2178650  64.9135895  21.9012032  54.7158165  64.2460938  21.4292660
  53.5757408  64.4184113  22.4098339  31.9753685  14.7385798  80.2292175
  32.2971420  15.2799234  80.9500809  32.2879181  15.1805363  79.4397736
  83.4647675  25.6921883  20.1668282  83.1836548  24.7854557  20.2894611
  84.1884003  25.6362782  19.5427589  80.1466751  46.4315834  32.2739258
  80.9040375  46.0459061  32.7142525  79.7777557  47.0364265  32.9175835
   7.9454474  19.6610546  70.7768707   8.2811852  19.3702965  69.9289474
   8.6118231  20.2654133  71.1038666  57.7654190  54.4039612  26.9475098
  58.4283638  53.7391853  26.7609539  57.7018585  54.9123459  26.1389675
  69.8191452   3.4868455  29.1361160  69.4240036   3.1156731  28.3472366
  70.5856705   2.9378037  29.3011189  78.7288437  67.5244522  52.6490974
  78.3941956  67.1278915  53.4534492  79.1068039  66.7930908  52.1607475
  32.0490532   5.0044332  80.1470490  32.9267273   5.2074957  79.8234940
  31.5017681   5.7178435  79.8187790  25.9252148  63.6863365  44.9865417
  25.0877037  63.3363419  44.6827202  26.5835037  63.1634483  44.5288582
  46.8522377  20.7796955   7.0938730  46.6867790  20.5860786   8.0165691
  46.2923508  21.5322189   6.9029136   1.9686759  57.6289406  71.7199554
   2.8962138  57.4148483  71.6196060   1.9536784  58.5784340  71.8402481
  47.4783173  58.6560898  25.2048988  46.9938660  58.3507538  24.4378853
  48.3988228  58.5558052  24.9623203  24.4794312  53.3313789  77.5562973
  23.5330067  53.4599190  77.4931259  24.7942333  54.0997124  78.0325241
  80.1916428  60.3872261  35.6624298  81.0940399  60.0800209  35.7492790
  80.1809616  60.8681908  34.8349113   6.9551430  14.5017214  78.0551682
   7.8795857  14.3879709  78.2758484   6.4903116  14.3271160  78.8735046
  45.6788940  31.3082523  32.2862625  45.4040794  31.6012764  31.4174442
  45.9246063  30.3913517  32.1631813  74.3942337  13.8930597  69.4281006
  75.2653198  14.2824574  69.3518219  73.8630829  14.3671608  68.7883072
  81.3086548  56.6193314  57.5362129  80.4624634  56.9610329  57.8250427
  81.1321411  55.7077103  57.3037949  64.5382843  13.8107214   8.1635971
  64.8979721  13.8103504   9.0506487  64.7509537  12.9435740   7.8185482
  10.2529497  62.6804848  34.9400291   9.5037870  62.1647720  35.2384033
  10.8365326  62.0410194  34.5316811  75.1956635   0.8647975  74.3460007
  74.2408981   0.8887762  74.2821198  75.4411850   1.7546215  74.5993042
   0.7735379   7.0589347  81.4447556   1.4254056   6.7877555  80.7984161
   0.7709355   6.3542066  82.0925140  46.3683090  49.9793549  69.8246841
  47.0042877  50.1057472  70.5288086  45.5397186  50.2868080  70.1922989
  78.6480713  22.5268116  43.3257103  79.0534515  21.7247143  43.6551628
  79.0830002  23.2303391  43.8074951  80.7041626  55.3561440  84.4847565
  81.3547745  54.6568222  84.5471268  80.0819473  55.0463943  83.8266220
  47.3877296  58.2065125  12.3317719  47.4728127  59.1501656  12.4678268
  48.1997261  57.9536858  11.8924904  32.8647842  34.7711296  68.8932114
  33.6510277  34.2418976  69.0272293  32.1529541  34.1333809  68.8401871
  10.8300991  50.1895561  41.6999359  11.0818090  49.3391685  41.3397751
  10.4180555  50.6474800  40.9673004  44.0942650  62.2341118  55.4981651
  44.2770195  62.0137787  56.4115562  43.4738731  61.5646400  55.2098045
  26.3130150  33.7023697  70.1268463  26.3466606  33.7335434  69.1707458
  25.3808594  33.6284447  70.3314209  47.0676422  -0.0995804  11.9913568
  47.4051094   0.7895390  12.1000614  47.2967224  -0.3344394  11.0921373
  84.0419388  61.6749954  47.5749512  83.9035339  62.2533684  46.8249092
  83.9367371  62.2431068  48.3381119  43.9328461  47.6192245  63.3583946
  43.9148407  48.5221176  63.0410728  43.2331543  47.5805130  64.0104370
  36.7817383  -0.2122616  47.3613167  37.3724251  -0.0386667  48.0942497
  36.4110794   0.6432404  47.1446152  30.3896027  42.6172256  61.8368530
  30.7692966  42.1042137  61.1234932  29.6179523  42.1188431  62.1059265
  82.9964828  60.9608421  26.7217979  82.0909729  60.7907104  26.4622879
  83.1574020  60.3521500  27.4427891  75.6765747  65.3150253  31.0621567
  75.7455826  64.9854050  31.9581585  75.5635223  66.2601929  31.1626987
  45.5574112  38.7866096  41.7369499  46.3648872  39.1935234  41.4228897
  44.9976044  39.5233116  41.9821396  25.1676750  45.0352058  30.7626209
  24.3203487  45.0030670  31.2067337  25.3153095  45.9660568  30.5954285
  85.6148987  15.2276249  59.2427826  86.4364395  14.7965775  59.0071793
  85.0510101  14.5173731  59.5490532  33.0623207  32.2942009  16.0329494
  32.5783577  32.4185486  16.8493729  33.3667068  33.1710472  15.7990236
  62.6699066  28.3712082   7.5302787  63.0895538  27.5109901   7.5178108
  63.2996941  28.9511604   7.1021914  45.4602890  27.5346870  56.6535492
  45.6822739  28.3048859  57.1767578  45.0614166  27.8911915  55.8598022
  10.6884251  39.4304619   7.1027474  11.0478992  38.6039543   6.7804227
  10.2505255  39.8137665   6.3427777  81.5524521  32.9482346  15.8202143
  81.0886154  33.7614975  15.6209774  81.4648666  32.4217224  15.0256405
  57.5263519  27.3477364   0.3104422  57.6449280  28.2595882   0.0445523
  56.7320824  27.0670643  -0.1440818  19.2771511  15.8128414  82.7085571
  18.8719940  16.6665516  82.8610535  18.5505447  15.2454853  82.4509048
  73.5195923  62.4683762  45.9382057  73.2282562  62.1394310  46.7885895
  74.3651123  62.8797417  46.1174049  43.6551590  39.1402245  85.3801346
  43.6109924  39.6396828  84.5647659  42.8581390  39.3813705  85.8521881
  58.8785934  26.8977089  49.9219704  58.6698418  27.7909260  49.6484451
  58.0447006  26.4305363  49.8709831   5.5703068  40.2704086  28.9220161
   5.8949118  40.7320328  29.6951694   5.8826952  39.3721619  29.0306454
  57.1608925  27.8494682  10.1940536  57.8163643  28.5414448  10.2821045
  56.4399300  28.1293163  10.7580862  76.2631531  10.5234394  59.6694069
  76.1230240   9.9800453  60.4448547  76.0112152   9.9629774  58.9354858
  82.4871750  39.5683174  19.9190731  82.7472076  39.7896652  20.8132858
  83.3018570  39.6012077  19.4176369  53.0381508  50.8047333  42.1152840
  53.9703484  50.5874023  42.1134338  52.6972656  50.3907204  42.9081383
  58.3283043  39.0165329  38.8396339  58.6427307  38.1537018  38.5696526
  58.1049271  39.4573479  38.0198669  65.8904572  33.6040878  22.4595661
  64.9518585  33.6240959  22.6462841  66.2885971  33.2807121  23.2677402
   8.2585592  57.4833908  61.7145882   8.4476213  58.1413651  61.0455856
   8.1869860  57.9826813  62.5281105  86.6767273  38.4014969  68.6303940
  86.8369370  39.3208237  68.4173203  86.0108643  38.4274178  69.3175430
  18.6957302   8.1507149  60.9573898  18.7596970   9.0630827  61.2397423
  18.4744415   8.2027025  60.0275726  31.2429352  55.6578255  60.2370262
  31.6299152  56.1197701  60.9807205  31.1684437  56.3239975  59.5537262
  41.0200768  47.0261650  18.0732765  40.7839851  47.4678841  18.8889828
  40.8911819  47.6897430  17.3955727  55.3833313  33.9746323  45.2964630
  55.5480309  33.7857437  46.2202759  55.3513870  33.1142998  44.8780823
  55.5713501  24.2445297  30.3877678  56.2765388  24.2929306  29.7423229
  55.9077759  23.6595974  31.0666676  17.2294102  37.7333145  73.7824478
  17.2905045  37.9310532  74.7170105  16.9201965  38.5473976  73.3851013
  78.1917343  45.2944565  28.3318367  77.7932510  44.4259872  28.3884544
  79.1280975  45.1223373  28.2327080   9.1256990  17.8926239  84.5245056
   8.9255466  18.3555546  85.3380508   8.3560801  18.0336418  83.9731140
  84.0048447  17.1695690  45.7185707  83.5867233  17.7770119  46.3288345
  84.8042068  17.6186199  45.4435959  13.5867348  34.9668579  77.2382584
  13.2325916  35.8207664  77.4865494  13.8134604  35.0614090  76.3131180
  69.5981369  40.8631363  47.1583595  69.4397354  41.7455063  46.8228569
  69.0361938  40.7959557  47.9303284  30.0720692   8.0049810   2.0595250
  29.3956451   8.0038033   2.7367840  30.5435219   8.8272114   2.1933148
  68.8640671  67.2517090  16.7587757  68.2615280  66.5079498  16.7578411
  68.5563583  67.8101425  16.0448456  39.1245842  25.1904697  74.3845215
  38.4955635  24.4962807  74.5811539  39.4482880  24.9793587  73.5088043
  58.9385071  43.1865273   2.3459837  59.7510223  42.6825371   2.3007705
  58.5561905  43.1034317   1.4723934  71.8872986  14.4627800   6.1487122
  71.7742157  13.6262188   5.6974821  71.6666031  15.1217251   5.4904451
  39.9433289  21.5656357  42.8052635  40.5729179  20.8892479  42.5555649
  39.1698036  21.0792828  43.0904808  50.6619263  59.9579163  69.9444580
  51.3529205  60.6136017  69.8504639  50.6249962  59.7819519  70.8846130
  68.7805099  52.5908241  35.7026672  68.1642532  52.1354599  35.1289978
  69.3611526  51.9017334  36.0255356  22.0221901  40.4568825  64.1596680
  22.2241745  39.5615883  63.8878632  22.6153889  40.6244621  64.8919678
   5.0636077   8.1731834   0.6022940   4.3094521   7.8202682   1.0744509
   4.6927538   8.5439796  -0.1984617  45.4610863  21.7820778  41.5924377
  46.1405716  21.1148376  41.6889954  45.9022865  22.5121174  41.1581345
   3.1735070   9.1492920  87.8151703   2.9822540  10.0562792  88.0539780
   2.3660908   8.8329735  87.4098892  27.2990265  -0.1869334   8.9925613
  26.8393078   0.1219480   9.7732544  27.4595222   0.6053401   8.4799442
  22.9534435  67.4348221  59.7547760  23.8393173  67.3943176  60.1150818
  22.4864655  66.7192459  60.1861839  53.6467476  29.8892555  24.8937817
  53.7303200  30.7978821  24.6045647  54.4028282  29.4451981  24.5098686
  67.3769073  32.6185570   8.0788002  67.1152039  33.4556122   7.6952877
  68.2942200  32.5154343   7.8255529  85.7315903  45.2776184  36.8607330
  84.9162064  45.7492676  37.0308189  85.7612839  45.1863136  35.9083595
  41.8429413  24.9341183  56.5531387  42.2348289  24.0713940  56.6886406
  42.3919029  25.3442516  55.8848076  31.8693504  47.2023811  12.6572828
  32.6375580  46.8642044  13.1174164  31.2323723  47.3762665  13.3502874
  78.3188095  66.1149216  36.8402748  78.3938904  65.7242737  35.9696503
  78.2089157  67.0511551  36.6740379  71.1428223  33.3504639  79.6234512
  71.8294220  32.9430580  80.1514969  70.5695190  32.6252518  79.3751984
  30.3975220   4.0422401   7.3028378  31.2768059   3.9753122   7.6751471
  30.4621029   4.7501411   6.6617937  61.8335114  51.0506134  61.2102509
  61.8484230  50.6717873  60.3313332  62.5749359  51.6558952  61.2227898
  47.0520821  58.1213989  79.3262405  46.0957031  58.1383286  79.2904739
  47.2945824  58.9848785  79.6606369  12.5906448   9.6549549  62.0217743
  12.5610104   8.7188702  62.2195091  13.2502241  10.0054398  62.6203957
  76.5812912  20.7101269   3.6021695  76.7528000  20.1586189   4.3654881
  76.6758804  20.1201916   2.8543324  22.6652565  13.6295681  66.2695694
  22.0088501  13.0467424  65.8878860  22.3308735  13.8265057  67.1445770
   4.9180560  38.1709366   8.5485573   5.6514783  38.1709671   9.1636372
   4.5208907  37.3058853   8.6494522  34.5213470  57.6589203  68.0399246
  34.3399773  57.3839149  67.1411972  35.1154060  58.4037247  67.9472275
  46.8342857  33.1470528  60.4715881  47.1803360  33.1010780  61.3628616
  45.8894539  33.0341225  60.5753784  12.8153067  39.3287773  32.0278625
  12.6175842  38.6200714  32.6401367  13.4317007  39.8883896  32.5002213
  65.8457413  13.5410690  87.1180038  66.2659912  12.6818876  87.1558533
  65.8306198  13.8405514  88.0270233  43.9584351  29.5779057  27.5924416
  44.0265121  30.3177452  28.1959610  43.0287857  29.3499470  27.5968857
  50.1658821  62.8938751  66.8783035  50.8963165  62.9596710  67.4934235
  49.7163429  63.7359543  66.9493408  47.8662376   0.4135605  37.1309891
  47.9263992   0.8862660  37.9611473  48.4273453   0.9073266  36.5330009
  20.8308487  53.7322426  53.5085335  20.7374611  54.5689926  53.0531693
  21.6854496  53.7864037  53.9362640  70.1961060  68.8380890  81.2414703
  70.0647964  68.3100128  80.4539871  69.4255676  69.4045868  81.2811966
  23.3878098  63.2482300   8.1002445  22.5130119  63.5868073   8.2908401
  23.6742802  63.7433167   7.3327446  64.2683716  28.3088112  47.4162407
  65.1426773  28.5696907  47.7056541  63.9482956  27.7326412  48.1103706
  50.4264145  65.6527939  12.5800848  51.0536690  66.3242493  12.3118753
  49.7540817  66.1326447  13.0637684  73.3030701  71.2145462  16.7762547
  73.9526138  71.1921921  17.4789829  72.7659760  71.9825821  16.9708881
  78.5171127  59.6449509  37.5887451  79.0649033  59.7385902  36.8093910
  78.9499207  60.1828575  38.2517471  80.0253601  47.9696312  54.3960648
  80.4460373  47.4705048  55.0961571  79.1681747  48.2047577  54.7512932
  62.4562988  47.9575729  12.4126101  62.4519653  48.2624474  13.3199492
  61.6628876  47.4278831  12.3341255   3.8962083  56.3999290  23.9921322
   3.9171727  57.2810822  23.6188221   3.6680255  55.8330421  23.2553787
  76.9565887   7.8877301  46.4966316  77.8806610   7.8037243  46.2615318
  76.6955032   8.7375860  46.1419334  67.2033234  55.5147438  38.9902000
  67.5977325  54.6468430  39.0763397  66.5317307  55.5413399  39.6717339
  13.6354599  11.6624136  74.3094101  12.9490070  12.2603645  74.6051636
  13.2046442  11.1048880  73.6614990   4.0057607  47.0791283  18.1446266
   3.1479833  47.1365051  18.5655270   3.8245671  47.2061615  17.2133560
  48.9088631  20.4491920  66.4470901  48.1407623  20.2860718  65.8996887
  48.8333473  19.8156662  67.1606522  49.5676003  69.7071457  61.8786049
  50.0977020  69.5044556  62.6494102  49.9031868  70.5494843  61.5718880
  68.5486450   5.9793320  15.3396301  69.2966385   6.0675340  15.9303560
  68.0187912   5.2823319  15.7265129  32.3286018  57.4587288  22.5285778
  31.3960381  57.6488647  22.4265842  32.3545990  56.5681000  22.8783436
  -0.1981207  34.3691864   3.5964081   0.0355941  35.2602730   3.3364618
   0.1658614  33.8150330   2.9059992  73.3243637  13.2808685  28.1344929
  73.9572754  13.4254742  28.8378716  73.8179092  13.4444199  27.3308201
  58.8159180   5.4467831  42.4247589  58.7000923   5.0806408  43.3015480
  59.7648392   5.4963794  42.3093491   5.8644638  50.0090370  55.2902641
   6.7360220  49.6141472  55.2642250   5.2661061  49.2796516  55.1284103
  41.9214668  18.0132790  81.2629929  42.3055649  17.1441631  81.3784790
  42.5845947  18.6150627  81.6011505  55.5167313  58.3360710  41.3701324
  55.3835526  57.4018288  41.2098618  54.6572456  58.6571999  41.6428757
   5.3778629  64.4884109  37.7868004   4.5096812  64.8561401  37.6216621
   5.8550820  64.6240387  36.9682045  59.3174477  48.4726562  12.1249952
  59.6210213  49.1160355  12.7654171  59.0801430  48.9925995  11.3571558
  76.6676407  61.0701637  85.5779114  77.4591751  60.5319557  85.5708542
  76.5752258  61.3482628  86.4891510  57.0459862  35.9891434  44.5194016
  57.2871208  35.6181374  43.6706123  56.3803139  35.3922920  44.8612747
  29.7441368  53.3618584  33.1310501  30.5228596  53.9165764  33.0850868
  29.8583832  52.7294083  32.4216957  69.2953873  49.7983665  77.9850540
  69.6762085  49.8480835  78.8618317  69.3721008  48.8755722  77.7425766
  71.5312576  20.1287327  30.9623718  71.6154404  20.7803059  31.6585007
  71.7170639  20.6126118  30.1576557  29.3764267  42.7708435  66.7368927
  29.3627491  42.5366249  67.6648941  29.6740456  41.9763374  66.2937012
  28.2806358  47.9450684   2.6315668  29.1153946  47.9025650   2.1650856
  28.5231571  47.9395905   3.5575180  14.9332438  60.4221153  39.8810806
  15.6087742  60.6992569  39.2621460  15.4205475  60.1085434  40.6429482
  49.1173935   0.2754484   3.6355209  49.4829330  -0.0511489   2.8133607
  49.0305786   1.2191490   3.5008953  72.5604248  23.1967640  69.1042023
  72.2085571  24.0631828  68.8999023  71.7982330  22.6876736  69.3800964
  79.1522522  30.7976894  16.5414238  79.3877716  31.6852093  16.8117466
  79.6018372  30.2295399  17.1669712  59.7770538  57.5406303  71.1795578
  59.2224655  56.8914108  70.7469177  60.6078911  57.0877762  71.3239975
  65.9955292  54.5997772  67.4289246  65.0783234  54.8014755  67.6141129
  66.4901123  55.2117805  67.9739685  73.3700256  29.0692158  56.5379868
  73.7042694  29.5816593  55.8018417  74.0392609  29.1597862  57.2163353
  28.0643311  40.9517365  29.7344875  27.2536182  40.9868469  30.2421722
  27.8631554  41.4276810  28.9287357  85.3683701  55.4481392   1.9238639
  85.7292175  56.0725060   1.2944305  85.0604248  55.9907494   2.6497977
  43.4256706  62.7518158  51.1688995  42.9299660  62.3822250  50.4382057
  43.1864700  62.2084732  51.9197578  34.4414711  19.0203114  76.7622833
  35.1990852  18.9570484  77.3438721  34.8067360  19.2991581  75.9226074
  22.2956905  57.4484329  17.7569199  22.4046631  57.6829109  18.6785374
  21.5107822  56.9008293  17.7402916  51.6595116  31.9453487  80.5086365
  51.2167625  32.0595093  79.6677017  51.4965820  32.7634468  80.9781036
   6.9221997  16.6985836  87.1678391   7.4444733  17.4852142  87.0107574
   7.5192394  15.9737272  86.9824829  11.8784094   8.5907173  77.2986450
  12.2989178   9.3766499  77.6475220  11.5928202   8.8417521  76.4202042
  31.9361954  64.3686066  80.0477524  31.0825977  64.0209045  80.3060226
  32.5314140  63.6227837  80.1232147  79.5215378  25.5624123  24.5044594
  79.4317245  25.0163307  23.7234573  80.4578705  25.5450745  24.7024574
  42.8168640  12.3146915   5.5573139  43.0116844  13.2515802   5.5800247
  43.6724930  11.8904943   5.6219907  47.3777542  63.7656708   5.5842328
  47.9468460  62.9961090   5.5721402  46.6503143  63.5166779   6.1543765
  60.6319962   1.2663920  74.6956940  60.1751137   0.4779932  74.9888077
  60.4256744   1.9237831  75.3601532  19.1409092   9.3186369   5.3171806
  18.6585960   9.7669153   6.0119128  19.2018108   8.4110222   5.6151042
  12.3055868  10.7307825  81.3476257  12.8074408   9.9240971  81.2308655
  12.8774443  11.4197359  81.0091705  33.6511803  56.8573685  77.5108185
  33.9928856  56.4155083  76.7334900  33.0017090  56.2501678  77.8654022
  12.7567520  21.5387878  19.5440273  12.2201681  21.8061924  20.2902222
  13.3346567  20.8613071  19.8951359  81.9426956  63.8543777  64.3521652
  81.2889023  64.5288696  64.5361099  81.4603424  63.0299416  64.4144440
  74.9581528  45.3735008  48.6614342  75.4747620  46.1518745  48.8699532
  75.1271744  45.2156029  47.7326012  43.4929008  19.3046322   9.4204760
  42.9596863  19.0540657  10.1748857  44.1025581  19.9575520   9.7643404
  85.3402863  30.9744968  68.2056732  84.7173538  30.5586700  68.8017273
  86.1751404  30.9450417  68.6729889  35.8874321  33.4147301  59.1500854
  35.8840027  33.1670952  58.2254791  36.4217110  34.2082405  59.1835365
  69.0031281  24.9049816  11.5746698  69.6673889  24.6639538  10.9289894
  68.7127686  24.0703754  11.9425726  62.5095444  46.9612656  82.8446198
  63.3722420  47.3123665  83.0653305  62.6882401  46.2699852  82.2070923
  86.9389496  53.9526176   5.7752819  86.2501068  53.3038788   5.9197178
  86.4972076  54.7963753   5.8710065   1.6292814  17.2946529  83.2058563
   1.0106578  18.0136108  83.0768738   2.2915068  17.6517410  83.7976151
  45.5300560  43.9814377   4.8929224  45.0396996  43.4384804   5.5101576
  46.4480095  43.8321724   5.1194434  44.5262756  51.7404823  41.6045837
  44.9195213  52.5104637  41.1938248  44.5138016  51.9476013  42.5390244
  65.1985016  53.0573235  53.6569481  65.3840637  53.6348991  52.9165421
  65.8647079  52.3724327  53.5992889  58.9598732  57.7110176  61.5279808
  59.2000389  58.5974884  61.7976494  59.7710648  57.3373833  61.1836090
  27.1276302  20.5479374  79.6409454  27.0907478  19.6486053  79.3152542
  28.0474567  20.6825294  79.8690567  48.3004684  28.1577015  67.5690002
  47.7452354  27.4440784  67.8831482  48.4356079  27.9653454  66.6411133
   3.9504929  24.1043835  11.9911909   4.1436486  23.2109680  11.7070599
   4.0257716  24.0739498  12.9449406  21.1371918  50.8306007  55.5865822
  21.0402966  50.7140236  54.6414642  21.9635925  50.3963242  55.7980003
  50.4608345  56.2741508   3.0820701  51.3658333  56.3489647   2.7793977
  50.5221367  55.7831726   3.9014676  85.3430252   7.1633000  78.9869537
  85.9027557   6.9048147  79.7191467  84.4557037   6.9529314  79.2778931
  70.5549316  59.8617897  21.4782658  70.6683960  59.0564003  21.9829483
  69.7957077  59.6903610  20.9211121  28.0064964  68.7314758   8.3862028
  28.4767513  68.8802719   7.5658660  27.5816898  69.5684433   8.5739670
  32.0304909  44.4682045  68.7804947  32.7832260  44.6051331  68.2052841
  32.1252747  43.5668983  69.0885391  40.4990082  25.1787395   1.6070882
  41.3321953  25.6494999   1.5867491  40.5739632  24.5915775   2.3593214
  34.3536072  70.7665482  41.2512550  34.6228409  70.0072403  41.7681656
  33.3970833  70.7516251  41.2840157   9.9679823  49.2573357  88.6400681
   9.6919832  49.0441360  89.5314713   9.1826458  49.1270485  88.1085587
   8.5901146  49.6069412  76.8351517   9.1107969  48.9836006  77.3416748
   8.5075188  50.3702507  77.4067917  75.2925568  47.2321434  65.5030518
  76.1215515  47.3500290  65.9668427  75.0164490  46.3436852  65.7280960
  40.3510590  60.0263100  24.1020794  39.5333328  59.6037483  23.8394108
  40.3669853  60.8455811  23.6073322  71.2780228  28.7824287  19.4775276
  71.7074280  27.9372101  19.3454018  71.9754944  29.3593369  19.7888927
  34.7443161  47.2989998  87.3852768  34.6144066  46.9497147  88.2669525
  33.8896370  47.2092133  86.9637451   3.2406313  32.1573410  81.6689148
   3.8571358  32.2303658  80.9403458   3.7708147  32.3218613  82.4487076
   3.5096972  19.1001949  72.9354706   4.1804738  19.5268173  72.4022903
   3.9043663  18.2680054  73.1961060  68.9242859   6.4938517  69.8427353
  68.7070236   7.2005901  70.4506378  68.0800629   6.2148976  69.4881821
  49.1707802  34.1716843  41.9092140  48.7365570  34.6269798  41.1878357
  48.4563446  33.7694588  42.4032021  14.4052677  53.5065231  22.9664402
  14.6587458  52.6086769  23.1805668  15.1536283  54.0379295  23.2380924
   1.0195168   2.0573018  75.4406357   0.9519063   2.5549543  74.6257782
   0.1746398   2.1871607  75.8713989  49.0801086  47.3078651  41.2033424
  48.3594246  47.8253784  41.5625496  49.7301369  47.9569016  40.9341888
  57.6984215  65.5220718   6.2323327  57.2299614  64.9578094   5.6172013
  57.3534431  65.2783661   7.0913038   1.7501689  49.5595856  15.2405329
   1.2264482  49.6317177  16.0384960   1.2571114  48.9566422  14.6841269
  25.0002518  47.0600166  86.7203903  25.9327126  46.8886719  86.8522644
  24.9215698  48.0123749  86.7756577  61.2972374  59.9196777   7.2109041
  61.7311134  59.5752983   6.4302716  61.9504585  60.4901619   7.6159782
  54.7973328  50.4461746   7.4205389  54.3884735  51.2100868   7.8273549
  54.6093330  49.7253418   8.0216122  75.9355621  35.1101875  28.5912724
  76.7806396  35.5583153  28.6266193  75.9803009  34.5768051  27.7977123
  68.1901093  65.3721466  42.3230476  67.9443436  66.2684784  42.5519905
  67.4286499  65.0265579  41.8572350  45.9662132  26.1531067  38.3136749
  45.1962662  26.2290878  37.7500801  45.9376793  26.9351521  38.8648758
  54.4886131  34.3202477  80.7985840  54.8590050  35.0443802  80.2939301
  54.4231186  33.6000900  80.1714325  27.4914265  58.7890663  53.2863998
  27.9394951  58.7968369  52.4405861  27.6721230  57.9202461  53.6451950
  56.1293335  61.7075882  65.3577194  55.4568787  61.3343391  65.9275665
  55.6593971  61.9505806  64.5600052   1.2830274  23.9660931   7.5763650
   1.1779597  24.1396961   6.6409216   2.1852844  24.2221794   7.7676330
  74.0425568  58.2087440  23.4935474  74.1006699  59.0956535  23.8488598
  73.1534042  58.1484566  23.1442432  39.7501450   1.5393070  50.1253891
  40.4740868   2.0779395  49.8059921  40.1167297   1.0625509  50.8700714
  41.7728310  64.2675934  31.2195377  41.8063087  65.1295166  30.8045635
  41.9437828  63.6518555  30.5068836  37.5233116   4.2108006  18.9325638
  38.0594254   3.6268244  18.3961048  36.6258316   3.9097164  18.7907734
  44.3892860  60.7088013  70.7101746  45.2193222  60.2416306  70.8051605
  44.5495415  61.5649719  71.1070633  47.0632820  54.2084312  86.9677505
  46.9032593  53.7576141  87.7968369  47.0925751  55.1362228  87.2013702
  33.9136276  45.1204224   0.3504564  34.1559105  44.3019485  -0.0827068
  34.6524658  45.3138695   0.9274594  52.9091911  29.0711651  67.6255493
  53.1029243  28.1347389  67.5830460  53.6414413  29.4452381  68.1155624
   4.5965462   5.7990527  76.0765305   4.6542468   6.6616044  76.4875107
   3.6646278   5.5823016  76.1044388  14.5932484  15.9795446  81.2008820
  14.1304197  15.2932367  81.6815033  14.1465330  16.0227604  80.3554153
  26.7912636  66.6008682  14.7287874  26.1009865  67.1439972  14.3483086
  27.1129837  66.0747833  13.9966927  37.2102394  59.0946159  61.5141907
  38.1505737  58.9968987  61.6640205  36.8170700  58.9848595  62.3799858
  81.4249802  21.3751106  10.5591288  81.2947006  22.3218422  10.6135149
  81.1226959  21.1417751   9.6813974  73.7193527  62.7194939  71.1832199
  73.3561172  62.6326904  72.0645599  73.5205002  63.6208916  70.9299164
  59.6759872  20.7790451  43.0098839  60.5024452  20.4256210  43.3389587
  59.2702599  21.1898251  43.7733459  20.6098633  19.9900417  75.2410812
  20.0921268  19.1941662  75.1195831  21.2976780  19.9319019  74.5779343
  52.7752380  61.5274239   8.8987703  52.8073654  62.2654495   9.5074720
  51.8596268  61.4840088   8.6230936  11.7342834  29.1609211  77.7359543
  10.9302101  29.1303825  78.2543793  11.9997854  30.0802574  77.7596741
  62.0868988  19.7931271  43.5275536  62.8980751  19.3103714  43.3688889
  61.9125977  19.6685352  44.4604683  29.4110565  28.1519642  79.5088806
  28.7548618  28.0293236  80.1948776  29.5701485  27.2712383  79.1694031
  70.2961121  35.7960472   0.9477348  69.6353455  36.4874153   0.9881014
  70.1312943  35.2615700   1.7245232  70.0923080  33.5668526  64.7922745
  69.4991150  33.8864212  65.4721451  69.9885406  34.1888580  64.0721512
  29.6915073  66.7116547  52.6696930  29.1260872  66.0090485  52.9904327
  29.1598034  67.5033417  52.7518501  30.7328663  67.4984436  26.0702744
  30.6925049  67.2826233  25.1385956  29.9603920  68.0424500  26.2237949
  58.3687630  32.6052399  59.8448944  57.4846420  32.6726532  59.4843102
  58.5244675  33.4546852  60.2577286  76.8901443  19.8912468  24.8356438
  76.4152527  20.1616364  25.6215172  77.1703339  18.9950600  25.0215778
  31.5759335  44.2484741  20.5343189  30.8632698  44.2915344  21.1718845
  32.1594391  43.5693893  20.8728352  81.8058929  29.6137085  63.7719765
  82.3289261  30.0899277  63.1270828  82.4314423  29.3684597  64.4537201
  63.3392525  41.3212395  36.6835594  64.2272186  41.4202614  36.3401375
  63.0261307  40.4998779  36.3046799  69.2158966  49.8563652  47.0653458
  70.1385651  49.7311630  46.8434372  68.7407227  49.5647392  46.2872772
  76.9942856  43.5789566  36.6140366  76.6467896  43.0043259  37.2961502
  77.8155365  43.1654549  36.3479614  74.4731674   4.6660185  28.1345501
  75.1703033   4.6175594  28.7886791  73.9676208   5.4408011  28.3802490
  21.8601875  50.5101013   6.9239006  21.2747650  51.0947647   6.4425683
  21.2796249  49.8536644   7.3089571   4.9731307  57.6696510  72.2378922
   5.4242811  57.7465858  73.0785904   5.0931191  58.5237007  71.8226395
  80.0388260   9.9265480  49.8087158  79.2689514   9.9481478  49.2403374
  80.2611389  10.8474045  49.9459572   9.3630381  52.9490700  62.9708405
   9.1933851  53.8582497  63.2174988   9.9334116  53.0112038  62.2046509
  32.4364853  50.9959946  33.5456581  31.7660484  50.6035423  34.1048813
  31.9444275  51.4127045  32.8382225  71.4685211  17.8168049  58.4155922
  71.6736145  17.1004429  59.0164146  70.9548416  18.4303436  58.9408875
  44.2920837  17.8963013  19.3895111  44.5940514  17.0742035  19.7757759
  43.5517502  17.6439800  18.8377190  62.9853935  50.4849663  36.6925011
  62.1680603  50.3822823  37.1799927  62.7340698  50.9612694  35.9011688
  51.9825020  37.4259796  44.9343109  52.2895241  37.8587990  44.1376686
  52.5499802  36.6604767  45.0248947  72.2265701   1.5854977  79.7983017
  73.0697784   1.5285046  79.3488693  71.9447708   0.6758513  79.8950577
  52.4864540  62.7649994  16.5026817  53.3969345  62.6354370  16.7681484
  52.1092758  61.8852463  16.5033188  84.1697083  67.9425583  34.4276962
  84.5270691  67.2235107  34.9487457  84.6660233  67.9152985  33.6096764
  79.4918976  30.5320702  88.2513199  79.7711945  29.6678276  88.5534973
  78.6419373  30.3784161  87.8387680  43.4057770  37.3063736  89.0331116
  42.8547058  37.2241249  88.2547836  42.8739052  36.9454460  89.7423859
  44.0669937  40.2550850  78.1371536  44.7085953  40.6484947  78.7286072
  44.5566597  40.0828133  77.3329315  79.6650620  70.8355637  57.9782982
  78.8570709  70.3223724  57.9821472  80.1787720  70.4681015  57.2590523
  85.0084915  68.3695679   2.4631479  85.5574188  69.1507645   2.3949850
  84.1173172  68.7093811   2.5442648  80.9435043  42.1654625  86.0635605
  80.3944092  41.6171761  85.5031052  80.3344955  42.7888908  86.4593887
  45.5340538  68.9634247  21.6240349  44.7326584  69.3813400  21.9392281
  45.3279266  68.6948318  20.7287140  47.0040627  17.2491989  47.5847435
  47.6692734  17.1890869  46.8990974  46.2636833  16.7466545  47.2448616
  85.4534683  71.0272827  32.0849266  86.2455597  71.5550766  31.9836082
  85.0390320  71.3671265  32.8780098  51.7576599  28.4733944  16.7446671
  52.7011986  28.3180752  16.7017002  51.6727180  29.4264870  16.7697906
  56.4898415  22.9174995  20.7469711  55.7500725  22.8952446  21.3539982
  57.2297859  23.2054005  21.2815990  34.0165367  50.7338715  60.9084129
  34.4563828  49.8889771  60.8139915  33.1586571  50.5177689  61.2738991
  29.0206852  39.9365997  65.3075790  29.0868835  39.3761635  64.5344315
  29.9248199  40.1825333  65.5032578  10.6363306  23.1985989  10.8734608
  10.0651875  23.9418163  10.6794128  10.1850615  22.7259541  11.5728855
  26.1813030  36.2145042  57.4013252  26.4725723  35.8136597  58.2202988
  25.2296391  36.2707481  57.4873810  10.8198328  32.0818214  75.0562744
  10.7376165  32.3946266  74.1553650  11.3090496  31.2624760  74.9816132
  82.8654556  48.4225807  10.7391825  83.4290924  48.0927658  11.4390106
  82.5772476  47.6374245  10.2736740  83.8509750  34.9334564  81.1198120
  84.0823669  34.0637169  81.4457626  84.6323242  35.2300377  80.6531601
  83.2954330  37.1793556  74.7110672  83.6259613  36.6911659  75.4651566
  82.9698944  36.5059395  74.1137695  55.4009972  22.8199196  25.1367569
  55.8971519  23.3546810  24.5170040  54.5947304  23.3134518  25.2870560
   5.2173572  66.2598343  49.4635696   4.4528527  66.3742676  50.0280800
   4.9919820  65.5176544  48.9026718  21.7204189  50.9992752  49.5247345
  20.8975906  51.1533470  49.9888992  22.3696442  51.5046577  50.0139503
  85.7677536  11.6522160  55.1786766  85.3311768  12.3068886  55.7236824
  86.4293060  11.2656031  55.7523613  24.7266827   7.9425187  81.3068848
  25.6317139   8.1360521  81.0625610  24.3387642   8.7989235  81.4866714
  44.7021713  51.8470039  26.0190182  44.4015923  52.1691551  25.1692505
  45.5611229  52.2521477  26.1385746  56.9714012  67.2784424  72.9443893
  57.6997871  67.2063141  72.3275528  57.0097427  66.4702530  73.4558411
  11.7895117  16.5638885  87.3789673  10.9094992  16.2207012  87.2239456
  12.3196115  16.1907520  86.6746979  83.3205719  46.5781708  53.8445244
  82.9533539  46.0606041  54.5611153  83.8872528  45.9671211  53.3736534
  49.4615479  11.3448381  28.5842838  49.9685173  11.3783789  27.7730579
  49.2590675  12.2600603  28.7781944  51.9753380  68.1304092  12.6970901
  52.2733803  68.7467499  12.0281210  51.2218285  68.5610352  13.1008415
  45.8572845   7.9652324  51.3481903  46.5474205   7.8059263  51.9920578
  46.0423355   7.3473897  50.6409035  52.3431587  23.0699806   1.3540044
  52.4207115  22.2867661   0.8092178  52.5377007  22.7654305   2.2403643
  79.1205368   0.8706397  43.1012650  78.1855316   0.8481314  43.3049545
  79.3087463   0.0028751  42.7437820  68.4871368  20.3843231  50.3967628
  68.4701767  19.6462212  51.0059814  68.8590393  20.0224781  49.5924072
  81.4202499  32.7701111   7.2872753  81.1005707  32.6301918   6.3959494
  82.3545532  32.5671577   7.2412586  79.9722214  54.9362679  12.9930658
  79.3352737  55.2731476  13.6231823  80.7715607  54.8105774  13.5044250
  24.0061779  12.5911589  82.3215408  24.9239674  12.7705812  82.5257568
  23.7518902  13.2943153  81.7239304  52.8124771  18.8133125  43.0677414
  52.8076019  19.6972237  43.4350395  53.4503174  18.8535614  42.3551636
  73.7053909  31.2358055  43.1922531  74.4310455  30.6547642  43.4204025
  73.9740906  31.6424732  42.3684464  84.9588623  59.2605438  83.8751373
  85.0908356  58.6188240  83.1772842  85.6903000  59.1155624  84.4753113
  14.0485458  50.1672211  79.7058182  14.9354591  50.1355667  79.3471909
  13.7383881  49.2629356  79.6578751  46.9483528   8.2654171  18.0948524
  46.8286324   9.2149858  18.1095810  47.4950790   8.1048431  17.3257370
  81.9589310  20.7918053  18.5093536  81.8926620  20.6711807  17.5620995
  82.2469254  19.9407883  18.8396015  42.4265480  35.1180382  45.8350830
  41.8618431  35.5757675  46.4578438  42.5484314  35.7415962  45.1191559
  44.1176109   0.1729563  70.2122345  44.8206902   0.0636406  70.8525162
  43.6048508   0.9103979  70.5431213  84.5017929  32.4519958  81.6076584
  85.4262466  32.5106468  81.3664780  84.5105896  32.2629967  82.5459747
  33.4530983  69.4249268  34.8848343  34.1563759  68.8154449  35.1088142
  33.7102737  69.7860794  34.0365067  73.5939331  20.9614944   6.2901487
  73.0825729  20.9046097   5.4829893  73.2232742  20.2848339   6.8566947
  35.7173996   0.5860630  20.6244469  36.4271393   1.1514425  20.9291515
  36.0371513   0.2247019  19.7977600  31.0317383  43.0196495  75.5322037
  31.0997925  42.5876732  74.6807404  30.1443672  42.8211823  75.8312302
  20.2779293  21.3583355  87.1514206  19.7292843  22.1391602  87.2258148
  21.0915909  21.5939751  87.5971298  44.2925301  57.6175079  62.0743752
  44.6407852  58.0360756  61.2871361  43.5026283  58.1168365  62.2816505
  75.9106522  56.2759590  73.4019775  76.2679367  57.0712547  73.7970657
  75.0765762  56.1392059  73.8512497  82.3759766  13.9227228  41.8853149
  82.9410019  14.6535225  42.1361389  81.8833847  13.7171535  42.6798744
  32.8592453  38.4804611  55.7805328  33.6073647  38.2226334  55.2419434
  32.0944138  38.2668304  55.2460938  16.1626339  52.6615334  77.1130371
  15.3812246  52.3467979  76.6585388  16.2175198  53.5885925  76.8811264
  29.2449207  39.7157478  82.4110565  29.3646374  39.2570648  83.2426224
  28.3936462  40.1453323  82.4948654  52.0344849  17.2878571  25.2388096
  51.8565598  17.3422279  24.2998638  51.2523346  16.8772411  25.6074104
  30.6920757   4.9514418  82.4151993  31.2545280   4.8737926  81.6445847
  31.1715031   5.5343914  83.0038834  52.7263069  19.0521965  49.9976158
  51.9595451  19.5583725  50.2661247  52.9975166  18.5895214  50.7904625
  77.0398941  55.7812843  20.5065632  76.8677826  56.4392548  21.1801224
  76.9288483  56.2503586  19.6795979   9.5892735  51.5333748  52.0469437
   9.2051497  50.9816399  52.7283173  10.3726835  51.0592422  51.7681999
  37.7246246  40.9632759  67.6320953  36.8444366  40.6165695  67.7780228
  37.9976654  40.5804367  66.7983627  10.2679682   9.3465395  88.7275848
   9.4118900   9.0110188  88.4615250  10.8922806   8.8725233  88.1782455
  61.2791901  35.7335167  24.0189857  60.3940239  36.0976105  24.0311604
  61.3093872  35.1518593  24.7785873  37.9279747  38.4369125  34.1063614
  37.9205399  37.4896545  34.2437630  38.3325882  38.7906532  34.8984413
  75.2657318  42.8822937  74.8163376  75.1571655  42.5661926  75.7132950
  76.2128677  42.9628563  74.7037659  81.7580490  27.2065868  13.9381533
  81.0110626  27.7414551  14.2067766  82.3606644  27.2465973  14.6807737
  13.7883968  47.5435753  25.8051414  12.9683685  47.1252556  25.5428524
  13.6042595  48.4817429  25.7586498  22.3228283  20.7803173  42.7370720
  22.8754101  20.6004887  43.4976959  21.8657074  19.9555321  42.5727539
  77.1181564  60.9498787  44.4985085  77.4339142  61.7398186  44.9372864
  77.3557739  60.2359924  45.0902252  47.1749191  30.6505146  85.0313797
  46.2813377  30.7207870  85.3672485  47.5072670  31.5480576  85.0452194
  15.4153585  59.5213509  36.0395622  15.9639368  58.7456741  35.9228706
  14.6597672  59.3678741  35.4723244  12.9415245  68.7091370   1.4017745
  12.1764288  69.2752838   1.5034467  13.5010252  69.1722641   0.7783147
  46.3368301  34.5289497   4.5325875  45.4620743  34.9130058   4.5920391
  46.2947769  33.9545708   3.7680297  58.0327110   7.6002760  75.1720734
  57.9705009   7.3483634  74.2507172  57.3114128   8.2161293  75.3012238
  65.6853485  47.4510117  18.4522915  66.2950439  46.9267197  18.9715347
  66.2158432  48.1743202  18.1181850  71.2191391  50.5237503  63.9195747
  71.8823318  49.8408775  64.0200653  70.4071884  50.0460014  63.7501030
  78.2682266  56.5132866  27.0270176  78.8831024  57.0885391  26.5717773
  77.6980133  56.1770706  26.3356056  63.6524048  65.4381180  60.1437454
  63.2655029  65.8634186  59.3784637  64.3728256  64.9168854  59.7894287
  35.9707375  22.6866570  78.0057831  35.9914818  23.6435032  77.9900360
  35.3741760  22.4483128  77.2961731  26.8858967  49.6530266  26.8877544
  26.6011791  50.0167465  27.7261314  26.0734615  49.4095726  26.4440098
  81.7569885  51.4380302  28.4990730  82.3320312  50.7740974  28.1186008
  81.5752411  51.1192932  29.3831596  45.3131714  68.0280380  45.4702225
  44.7990456  67.5975800  46.1533127  45.4752235  67.3410645  44.8236618
  45.7089272  26.7340736  41.8732719  45.6540146  27.5448208  41.3673973
  45.6949768  27.0202255  42.7865906  75.0553818  52.4696350  38.6259041
  75.7003174  52.7299232  37.9682312  74.4689636  51.8714790  38.1627045
  65.5743484  50.5723228  63.8763885  65.2409210  50.3177948  63.0159950
  66.5112076  50.7119827  63.7384758  70.8815613  39.7084885   5.3565378
  71.6755371  40.0842590   5.7368426  70.1698380  40.0626068   5.8897104
  58.1081276  68.3876190  83.1078339  58.0005951  69.1781235  83.6367645
  57.4108086  68.4400940  82.4542084  16.8103523  12.6563997  50.1618271
  16.8619728  13.3038397  49.4586983  17.2919083  11.9000387  49.8267822
  77.8019791  55.2889061  14.7836857  76.9378662  55.5406303  15.1095257
  77.7223053  54.3548126  14.5904112  57.1346626  21.8111515  47.6498375
  57.7252617  21.7190781  48.3974686  56.2667923  21.6193695  48.0051575
  18.8523121  22.4739075  75.4809723  18.9402180  22.9166470  76.3250656
  19.6798306  22.0061455  75.3685379  58.1104622  48.3378830   4.2895617
  57.5624161  47.6901855   4.7326970  58.9872169  48.1935043   4.6454964
  64.7388763   3.0986404  11.3334990  64.3483047   2.2248082  11.3232565
  65.1271133   3.1976669  10.4641895  76.9070892  -0.0410780  11.9015846
  77.4701385  -0.5085550  12.5185709  76.8388138   0.8429862  12.2621412
  50.1244812  32.1629219   4.8707743  51.0696793  32.1264305   5.0174098
  49.8800011  31.2620277   4.6589961  56.6685944  64.2168884  73.0821915
  55.8559151  64.6734009  72.8645172  56.6577492  63.4333076  72.5325317
   4.7393661  52.6713486   5.2893467   5.0661526  53.4011345   5.8155141
   4.0397229  52.2887459   5.8188233  20.1582184  15.9183197  40.9363213
  20.0938854  15.0121336  41.2378464  20.5373096  15.8527575  40.0598373
  72.0274506  65.7986221  88.9459000  71.4098816  66.4181824  89.3344650
  72.7856903  66.3327866  88.7092972  43.5778275  44.6998291  69.4319763
  42.7695084  44.3307877  69.7878723  43.7697639  45.4470673  69.9985657
  26.7712917  50.1142960  46.5951462  26.6434593  49.2761002  47.0393524
  26.1823235  50.7177162  47.0481720  22.9104958   9.4939861   8.1778765
  22.1345005  10.0381889   8.3116932  23.4968281   9.7321939   8.8960018
  21.6125145  41.5917854  47.5039825  22.3217621  41.5918694  48.1467896
  21.0998135  42.3726273  47.7129173  49.9847069  38.5620575  84.1687851
  50.6213722  38.9257431  83.5534668  50.4845581  37.9293556  84.6846008
  80.1245575  49.6660461  11.2364721  80.0357742  49.0936546  11.9985218
  80.8967896  49.3356438  10.7774258   5.6482735  22.8504524  74.2847672
   5.9061289  21.9473953  74.4697800   6.3853645  23.3778610  74.5926056
  28.6633282  25.2851391   8.3343306  28.6417751  25.0828533   9.2696629
  29.0701790  26.1502037   8.2856836  77.6595688  50.9688416  10.5426636
  77.7606354  51.8968048  10.7545691  78.5239716  50.5907555  10.7041883
  13.5083942   6.0280285  68.2689819  13.6819077   6.6146021  69.0052261
  12.5720901   5.8384728  68.3292694  71.4856262  21.9173374  24.0667076
  70.8780670  21.1997795  23.8872337  71.4644547  22.0167065  25.0185013
  69.1812592  62.3664131  28.6101398  68.5211639  62.4085159  27.9182339
  69.0623779  63.1775475  29.1042652  80.4433365   6.9847665  18.9783783
  79.8417130   7.7242522  19.0646553  79.8983002   6.2132616  19.1331367
  67.1481628  33.3563766  38.5121994  66.7558975  34.1119919  38.0747032
  67.5811310  33.7238731  39.2827301  13.3763275   2.4792733   6.4826269
  12.5953455   2.6401329   7.0121765  13.9705753   3.1947980   6.7087383
  72.1123047  62.0056152  28.5408516  71.1953049  62.2800522  28.5459995
  72.5824509  62.7335358  28.9474545   4.1383047  67.8360367  76.9408112
   4.2452102  68.7350388  76.6300049   4.8069658  67.3386993  76.4698868
   0.8653434  26.0264034  50.5120621   1.4647801  25.3066063  50.7090416
   0.6481752  26.3980236  51.3670311  66.9037552  69.8712769  63.2374153
  67.6213455  69.2378082  63.2356529  67.0869675  70.4386444  63.9862556
  76.0041656  18.9908829  44.7344093  76.5628433  18.5091667  45.3443794
  75.2506332  18.4171581  44.5956306  62.2916603  13.7891455  48.4030075
  62.8784866  14.2738228  48.9834824  62.5660248  14.0402565  47.5210190
  75.8883667  22.1584167  40.3738289  76.4950104  22.8407879  40.0864525
  76.0700760  22.0542431  41.3078308  77.7920151  57.1219139  64.4949188
  77.1527786  57.2686920  65.1921005  77.4368591  56.3868027  63.9952049
  65.0730820  63.2713280  71.7492905  65.9230118  63.6968994  71.6363907
  64.7496338  63.1420746  70.8577118  54.9690170  30.4075222  15.4234362
  55.6275406  31.0955410  15.3274517  55.3529129  29.6461830  14.9884443
   3.5145512  62.7838593  53.5654793   4.4347029  63.0177002  53.6874275
   3.4330590  61.9168739  53.9628792  57.1193886  36.9550438  10.9870338
  56.9738426  37.5709877  10.2689362  57.5342178  36.1982269  10.5730629
   0.9734361  30.3906269  43.2915344   0.5014668  30.5906048  42.4831505
   1.6864841  29.8144054  43.0162849  18.7191887   9.9749851  43.0991669
  18.9187737   9.1126394  43.4635277  18.5924034   9.8162718  42.1637688
  59.7228813  19.0600433  51.1058083  59.7392654  18.2166424  50.6534386
  59.3607941  18.8616447  51.9693832  52.1510773  14.2268124  73.9242172
  52.7457199  14.1704159  74.6721802  52.6967545  14.0120049  73.1676941
  62.6052246  31.3434315  43.6220474  63.1013603  31.4983463  42.8182564
  63.1204910  30.6936550  44.1000862  74.4193192  37.3261948  39.7732620
  74.8355179  37.6209068  38.9632301  74.6694412  36.4054260  39.8498039
   5.6930847  58.8979187  16.5577526   5.5858603  58.4713936  15.7075691
   5.6543055  59.8342056  16.3625832  83.8500519  42.4411049  17.0650425
  84.7602921  42.1484909  17.1105461  83.3626480  41.6653061  16.7879009
  80.7349930  38.0637054  87.7698593  80.6537781  37.3580513  87.1282272
  79.8955688  38.5219269  87.7294693  66.5045547  47.1669579  89.1529617
  66.6978683  46.4348984  89.7385788  66.5756378  46.7954865  88.2736511
  84.8208466  22.0633316  83.3386002  84.3539276  21.5097542  82.7126846
  84.3590393  21.9308949  84.1665115  54.5027847  27.8061485  17.5436630
  54.5954361  28.4039097  18.2855053  54.5558815  26.9327621  17.9317474
  22.3313255  42.4592628   5.1123028  22.9492550  42.9802246   4.5994735
  21.5424614  42.4224358   4.5714073  53.7439957  60.6396179  76.5926666
  54.6666412  60.7830048  76.8033676  53.5488815  59.7728348  76.9488220
  80.0956573  60.5223274  60.6341629  80.9861221  60.5790138  60.9807053
  79.5605545  60.2744598  61.3881264  86.4813385  60.5825882  48.4595947
  86.4544754  60.5161629  49.4141083  85.5676270  60.7056503  48.2022629
  26.8968449  54.6564560  20.4208221  26.3566875  55.3527298  20.0471077
  26.4802074  54.4534988  21.2583504  65.9453049  34.6922684  53.6676140
  66.7033997  35.2583961  53.5225945  66.0897369  34.3163414  54.5359726
  15.2669954   7.5496440  84.7993317  14.7819691   6.8723230  85.2707291
  15.2804317   8.2957382  85.3988266  74.3141785  29.5644073   9.8801146
  74.8708801  30.3415184   9.9292450  74.6102829  29.1070290   9.0931177
  13.3465652  48.2934074  83.7638779  13.7815170  49.1002045  84.0397873
  13.9522924  47.5964584  84.0160522  28.1511021  55.8989754  66.6735001
  27.8982735  55.0060730  66.9080963  28.1936722  56.3633118  67.5094528
  68.1108322  37.9939880  48.6711769  68.1462784  38.1648331  49.6123390
  68.8001022  37.3474846  48.5189781  62.2129898  59.5812302  72.2772293
  62.3780556  60.4476776  72.6490555  61.2890663  59.4131279  72.4625244
  28.9121876  56.4830055  10.4995184  28.7577286  56.5825310   9.5601196
  28.9377270  55.5363808  10.6390800  76.0068817  28.7548809  50.7672882
  76.5688324  28.9718037  51.5111885  75.6338120  29.5937061  50.4963188
  61.5131569   8.0083179  26.7642727  61.7622375   7.7808800  25.8684711
  61.7637482   8.9275188  26.8565006  68.2311554  17.3514194  37.8251190
  67.8416443  18.0727348  38.3193016  69.1608810  17.5726070  37.7711563
  74.5697556  44.8470001  66.8313980  73.7618866  44.4079552  67.0975037
  74.8069763  45.3888206  67.5839844  24.6108742   2.4012470  23.2223110
  24.3382378   1.8162546  23.9291954  25.4050064   2.8216720  23.5522003
  47.9324112  47.8655281  48.0979500  48.3662148  48.3273964  47.3805084
  47.3030243  48.4981499  48.4442101  14.6255627  54.3970261  17.2696400
  15.1666470  54.6027145  18.0319729  14.1902924  53.5760498  17.4993591
  54.9730034  46.6589088  81.7714005  55.5993919  47.1478348  82.3050842
  54.1386986  46.7583313  82.2299652  51.5206833  17.4070644  56.9884453
  50.8264847  17.8132286  56.4694519  52.1603394  17.1093349  56.3415871
  33.0500145  46.1321297  17.5534859  33.4127502  45.2752342  17.3290234
  33.3273544  46.2802582  18.4575710  38.8280945  24.4996510  61.3505821
  38.1001167  25.0521145  61.0658646  38.6673431  23.6555214  60.9288750
  26.8448143  27.8644352  15.1208754  27.1478195  28.2486172  15.9435682
  27.2426548  26.9940300  15.1021404  43.9116287  48.2718811  43.7777252
  44.2561798  49.1106148  44.0843849  44.1750984  47.6442528  44.4507027
  26.6414566  23.7152729  81.3595123  26.1912937  22.8746796  81.2759018
  27.5508842  23.5237770  81.1303787  84.0296707  63.5275803  49.3822365
  84.8238297  63.9158287  49.0150833  83.6284485  64.2350540  49.8869438
  64.3649826   1.8994884  23.5306396  63.7808723   2.1008410  22.7995434
  64.6247101   0.9896050  23.3861217  39.0600052  27.5140495   9.4430923
  38.5194435  27.5141106   8.6531410  38.7501869  28.2676754   9.9453802
  31.8467445  63.0919228  28.8127155  31.9737034  63.9358177  28.3791733
  31.8937511  62.4494553  28.1047211   8.5818844  32.2741013  63.4454422
   7.6559873  32.0338860  63.4806976   8.6108112  33.1673164  63.7883110
  80.4222107  15.2759428  19.5286827  81.1698990  15.1967812  18.9362907
  80.7524185  15.7931042  20.2633533  74.4137268  32.9786263  20.4782314
  74.8266983  33.5915833  21.0864792  74.8452377  33.1454163  19.6402512
  62.8674049  29.6584854  85.2371140  63.5175018  30.2965183  84.9429779
  62.2965660  29.5314484  84.4793320  44.0880890  54.2012100  78.1382675
  44.0792427  54.7918434  77.3850708  44.6559105  54.6343269  78.7756195
  77.5391769  17.2658844  25.3943653  77.5377197  16.8109570  24.5521832
  77.0206451  16.7044945  25.9707355   6.4956222  18.4355373   2.7697306
   7.0984898  19.1783504   2.7379284   6.3582587  18.2783775   3.7038953
  71.1022797   2.3478763  23.4869499  70.3143692   2.8417730  23.2600269
  71.0549850   2.2449477  24.4374237  53.5025940  41.7279625  76.5100327
  52.8556175  42.3025322  76.1007309  54.1348534  42.3254089  76.9094467
  54.5842819   5.2193189  62.8650017  55.2343445   5.2297363  62.1624718
  54.3676987   4.2937198  62.9771996  80.7770309   5.0271673  65.0780258
  81.3086319   4.2452374  64.9289551  80.7919922   5.1495700  66.0272522
  33.1492424  60.7999840  33.3451347  33.2191505  61.0779419  34.2584152
  33.8796577  60.1935577  33.2227592   8.2333860  47.1502037  26.1690693
   8.0471029  48.0050812  25.7808456   8.5289202  47.3498192  27.0573521
  76.7050934  66.3177261  69.6605530  75.9410248  66.5171509  69.1195602
  76.8269958  67.0989075  70.2001190  15.9084482  65.4377136  21.5225697
  16.0848465  66.3747101  21.4380627  16.5375519  65.0214615  20.9333363
  21.5123081  11.2325363  77.5979767  21.3172245  11.8874836  76.9277420
  22.0874214  11.6851444  78.2149200  15.6493092  61.9889374  33.0363121
  16.4597816  61.5045929  33.1937218  15.7133732  62.7548828  33.6068001
  48.6442223  62.8416443  47.3926125  47.6941261  62.7995987  47.5011635
  48.9643860  62.0198288  47.7645607  67.7206345  57.2878876  28.8337154
  67.3888474  58.1187553  28.4934063  67.5601273  57.3339043  29.7762394
  57.6936111  38.5209808  44.1218796  57.5310249  38.9752541  44.9485779
  57.5026970  37.6024323  44.3117523  49.1474266  25.5930614  27.9022980
  49.5787315  25.3468533  27.0840149  49.6181488  26.3731022  28.1958790
  65.9429245  23.5122395   6.4899883  66.0858231  22.5660305   6.5123205
  65.5800552  23.7200527   7.3510194  68.9848251  42.7115936  38.5111237
  68.6500473  43.1625900  37.7360344  68.9786377  41.7851486  38.2705078
  79.2720261  13.2944345   5.9515858  79.3295517  14.2142906   6.2100186
  78.3432007  13.1551809   5.7668657  62.5251122  53.8710823   0.2230511
  62.0547256  53.0405083   0.2945814  62.9511681  53.9790459   1.0733757
  41.6388474  52.1373825  25.0899734  40.8058777  52.5569077  24.8745708
  41.6155624  51.3035851  24.6204300  78.5736923  46.3776093  41.2608452
  77.9767227  46.5789490  40.5402107  78.4572983  45.4398384  41.4133949
  27.2989120  57.5221367  73.2027893  26.4113503  57.8803291  73.2155151
  27.7809525  58.0540314  73.8359985  57.7999268  50.1849365  76.6398163
  57.5737572  49.2934532  76.3746033  58.7104759  50.2928314  76.3650665
  18.1636562  33.6352158  45.6700134  18.0678177  34.0807266  46.5117798
  19.1046886  33.6524429  45.4956818  60.1421585   6.4959664  14.9478807
  59.9720764   6.5882692  15.8853159  60.4218063   7.3676448  14.6682281
   3.8439705  58.9305000  48.0620308   3.7965889  58.1187973  48.5671310
   2.9939482  58.9913254  47.6261482   8.0912104  35.0445938  62.3032417
   9.0378590  35.0720749  62.1641998   7.7624388  34.4815483  61.6024437
  57.4285660  60.8793564  19.2117615  58.1423302  60.5788345  18.6492138
  57.6591797  61.7824974  19.4294415  62.6706505  56.7159081  36.1578827
  62.0304222  56.1745529  35.6960678  62.9464226  57.3652039  35.5108871
   5.3163333  18.3339767  11.4963455   5.5826459  19.1023903  10.9915199
   5.2151523  18.6585388  12.3911371  49.1904526  69.4131241  44.1999359
  48.5694809  70.1123276  43.9956360  49.3058281  69.4649353  45.1487427
  67.9227982  40.3803482  68.1138153  68.0708237  40.7879944  67.2605057
  68.0507812  39.4446754  67.9576950  64.3630142  70.1464310  16.6686687
  63.7304878  70.4094543  17.3372211  65.2069855  70.1568298  17.1201477
  61.8238945   4.1410065  66.2457504  61.6443863   3.7331815  65.3985825
  60.9620743   4.2442579  66.6492767  13.0095463  41.5902939   4.4129992
  12.1495352  41.3074875   4.1021404  12.9615574  42.5462914   4.4135408
  50.3223419  20.0816727  48.2316704  50.2674866  20.9325848  47.7967300
  49.5109901  20.0174541  48.7354736  46.0579414  56.4970741  69.6361008
  45.8349228  55.7939186  70.2460709  46.8869019  56.8451500  69.9645767
   5.1168008   0.1377896   2.0341613   5.8424888   0.5149576   2.5315070
   4.3947740   0.7535270   2.1597664  24.1595211  44.4685059  11.6654139
  23.5274353  44.9597626  12.1901684  24.0328484  43.5571175  11.9291477
   2.8646071   1.4637269  21.8820915   3.7642021   1.4072160  21.5599632
   2.7680128   2.3732054  22.1644936  58.2979279  56.5213699  40.9401169
  59.0755081  55.9632950  40.9524002  58.6366768  57.4004402  40.7706566
  81.7157440  25.3363247  43.3702927  80.8823242  25.4431705  42.9117928
  81.4921417  24.8489037  44.1631699  61.0955734  32.1076317  87.0225601
  61.7033539  32.0825119  87.7616119  61.5191231  31.5792255  86.3460770
  66.0503082  12.7819061  84.2584076  65.9361191  12.5313292  85.1751404
  65.4817276  13.5436420  84.1457062  39.1161423  32.7125549  85.7165146
  39.9983253  33.0713234  85.6202164  38.8349266  32.5246773  84.8210526
  67.6977997   8.5333090  63.6260910  68.4861374   9.0036516  63.8972664
  67.6443710   8.6799145  62.6816940  10.3868237  58.5481796  22.7791462
  10.8891201  58.3398285  21.9914150   9.9663830  59.3849068  22.5807838
  14.1556301  54.0638199   8.5740728  14.5619001  53.1971130   8.5742321
  13.4454651  53.9953308   7.9359446  35.1015549   6.6392388  79.5247498
  35.1151428   6.8130045  78.5835495  35.3893051   7.4602046  79.9240570
  37.1846237  25.8994770  46.0185814  37.3380356  26.4885864  45.2798996
  37.6934319  26.2772961  46.7359352   3.3693609  36.4062881  83.1324844
   4.3014131  36.1917152  83.0941544   3.0999541  36.1470947  84.0136642
  52.3423958  20.7268314  23.0689430  51.7241592  20.4057980  22.4124718
  51.8710175  20.6520462  23.8986683  46.2404633  69.0151367  12.6303492
  45.2868767  68.9320908  12.6332283  46.3992462  69.9554443  12.7129879
  80.8355484  12.7400417  78.5430298  81.4579620  12.2785635  77.9810104
  80.1125946  12.9717693  77.9600372  82.9772873   9.0805750  27.7555618
  82.1894531   8.5495453  27.6391373  83.6895599   8.5249929  27.4389629
  31.5540581  22.0850430  71.1133118  30.7430439  21.7993984  70.6927261
  32.2463188  21.8013096  70.5162354  54.5699577  33.9399529   1.7674110
  54.6416740  33.7376671   2.7002399  54.0173988  33.2432861   1.4130508
  74.1245651  60.4100075  84.4439926  74.8921280  60.2257385  84.9854050
  74.1790237  61.3483047  84.2626953  36.2622261   5.1872268  40.0482826
  37.0977249   5.1870728  39.5811920  35.6953621   4.6202955  39.5253220
   1.4322085  65.6709061   2.1871302   1.5521996  66.3569260   2.8437986
   0.4901462  65.5013504   2.1872814  77.1475525  17.7102757  13.1519604
  76.7437973  18.4046803  12.6313667  76.4094009  17.1958122  13.4785967
  39.6708984  66.2431030  39.6760864  39.2369308  66.2704163  38.8233528
  39.6913910  65.3138428  39.9047508  63.3126488  55.4437828  22.3046360
  62.9678612  54.6768761  21.8472462  62.7004051  56.1470337  22.0882473
  70.4152527   9.3408556  68.7502136  70.3530045   9.1807976  67.8085480
  70.4539795   8.4672928  69.1396027  84.1702499  13.0237446  75.6768036
  84.1845474  12.5266857  74.8589020  83.2439194  13.2134943  75.8255920
  40.5513573  63.0694313  56.4952049  41.1705017  62.3587418  56.6619682
  39.6971931  62.7007065  56.7203331  32.1153526  16.1339512   7.1699476
  32.9382362  16.4492264   7.5437126  32.0314941  16.6070862   6.3420935
   7.4444504  65.6679688   4.7276444   6.8352838  64.9358139   4.8230629
   8.3000011  65.2543106   4.6129513  51.1121330  41.8618469  62.8752251
  51.0886497  42.5071259  63.5818329  50.3469048  41.3082809  63.0308647
  31.5208530  53.4876175  50.9287224  32.1011772  53.6272240  51.6770325
  31.4854870  52.5364723  50.8272285  83.2074814  16.3986607  64.5496750
  83.6883011  17.0906353  64.0955658  83.7265778  16.2214451  65.3341293
  47.3816643   1.2328746  58.9505234  47.5109558   1.2601622  59.8985558
  46.4311829   1.2140913  58.8388634  62.5348473  41.3435555   3.5683501
  61.7775612  40.8293839   3.8483059  62.2288399  41.8199043   2.7965443
  65.9349136  55.6921730  20.8130875  65.1413574  55.5572662  21.3310699
  65.6919479  55.4213524  19.9277306  52.9082947  62.2787132  67.2777863
  53.4234657  61.7000046  67.8398590  53.3263435  62.2131233  66.4192047
  65.3534241  38.2305374  30.0594788  65.7803268  37.6544533  29.4253521
  65.1593552  37.6633034  30.8056774   5.4483080  68.1976318  20.7142963
   4.5586901  67.8873215  20.5454140   5.3664041  68.7469864  21.4938717
  64.2929382   8.0495119  23.0791378  64.9813156   8.3508539  23.6720581
  64.4433594   8.5377626  22.2696838  41.5257187   7.9895539  87.1380234
  41.4190102   7.0825810  87.4248123  42.4677887   8.1493692  87.1945572
  75.1723022  46.9126549  18.5316143  74.6616974  46.4369850  17.8764400
  75.5772400  47.6304779  18.0447979   6.0159287  68.2896042  71.7465744
   6.8441825  68.2150269  71.2725906   5.8622026  69.2320175  71.8133545
   2.2307227  42.5497894  87.5869980   2.6860495  43.3698883  87.7776413
   2.2207537  42.4979477  86.6312561  86.7888794   3.3424325  32.9998131
  85.8792801   3.2162490  33.2698860  86.9042587   4.2925119  32.9834251
  12.1911573  35.0126038  37.4834404  11.4520235  34.4215622  37.6269112
  12.7302275  34.5676193  36.8295135  74.3107758  62.3735199  52.9791870
  74.1269379  62.3141708  52.0416870  75.1153488  61.8687477  53.0979156
  15.5389071   5.2511344  47.3239136  16.4365540   5.3581929  47.6385536
  15.1372566   4.6457429  47.9471397  75.3982239  49.9376106  66.9227295
  74.5272217  49.7889328  67.2908020  75.3198929  49.6709175  66.0067749
  64.6266479  22.3381691  23.9010067  63.9930840  21.6456871  23.7131367
  64.3910294  23.0471554  23.3026333  21.0560513  25.0485268  66.1499405
  20.2120552  24.7996769  65.7731400  21.6937675  24.5017185  65.6910858
  76.8965683  66.3218918   2.0398998  76.8052521  65.8453979   2.8650367
  76.0030441  66.3925095   1.7039449  55.8395882  40.5920868  53.1631050
  54.9391747  40.3350754  53.3616791  55.9907761  41.3696404  53.7004929
  85.5363159   6.5437126  65.0245972  86.4292450   6.2012529  64.9843216
  85.3363647   6.7977810  64.1236572  28.1000500  64.1084213  53.3291245
  28.0589409  63.5051842  54.0711823  28.0682621  63.5421333  52.5580597
  45.2356033  69.2678146  87.6464157  46.1820793  69.1322632  87.6013031
  45.0571327  69.4032745  88.5770187  68.9855347  29.0609684   7.4824972
  69.2055130  28.6641083   8.3253164  68.0478363  29.2439690   7.5413928
  32.2731819  65.7346191  70.2798080  32.9193497  65.0300446  70.3274231
  32.7948494  66.5368195  70.2559128  85.6930618   5.2954483  85.1980667
  86.3786011   5.3174634  84.5303879  85.7783661   4.4311662  85.6005173
  67.7684708  42.9073982  40.8895187  66.9283752  42.5081100  40.6635971
  68.2730484  42.8799248  40.0765724  27.7808533  67.6180573  69.4906158
  27.2366447  66.8543091  69.6823425  28.3623581  67.6937943  70.2471542
  54.7275162  29.9281597   0.2136087  54.5570564  29.8750687  -0.7267933
  54.0263290  30.4843159   0.5531021  64.1569366  32.7883759  18.0916157
  63.2340355  32.9056015  18.3168812  64.6275482  33.3443031  18.7126617
  43.3107643   1.7227958  30.7566929  43.7347450   2.4893699  31.1424847
  44.0212860   1.0937287  30.6315403  68.6014938  44.3950119  70.7373581
  67.8130035  44.5987206  71.2403641  69.0832901  45.2213669  70.7021561
  42.0747108  14.3125944  61.2189102  42.0310860  13.8089685  60.4060822
  41.5074043  15.0677452  61.0635185  45.4706726   1.7268848   2.2497458
  44.5195961   1.6258667   2.2881951  45.6479912   2.5196455   2.7560270
   2.3190448  68.0238571   3.6281385   2.4102871  68.0369492   4.5808902
   3.2154996  68.0970230   3.3006520  38.5800018   6.2171283   0.0975840
  38.8786469   7.0506949   0.4611906  38.8255043   5.5670023   0.7558360
   9.9575891  41.6867714  76.7731552   9.3491039  41.0541077  76.3914261
   9.9947405  42.3987694  76.1344757  55.3181839  32.1187820  79.0662613
  55.8885994  32.7680740  78.6548309  54.4951477  32.1816330  78.5816116
   9.6516104  28.0072994   7.6925182   9.2721405  27.1300125   7.7435284
  10.0822029  28.0326900   6.8380141  64.4641113   1.8330400  40.6612167
  64.6525497   2.4564745  41.3626823  64.7666168   2.2697613  39.8649788
   3.0123482  60.1020775  53.8873444   3.4819543  59.2732468  53.7938271
   2.2766502  59.8967476  54.4642525  60.5592690   0.4089113  13.4654932
  60.6484146  -0.5439352  13.4846811  60.8956413   0.6980692  14.3137102
  85.9608459  13.3938723  77.7583160  85.0648956  13.2992048  77.4349899
  86.4502869  13.7369671  77.0106735   2.0175674  33.8047295  51.3044662
   2.6161330  33.3193703  51.8722496   2.5741355  34.1427536  50.6028938
  56.2275620  17.3495502  45.0270920  57.0225677  16.8235931  45.1140747
  56.0265770  17.3269176  44.0915031  24.4753323  29.8018112  73.3526611
  24.9829082  30.3438053  72.7486420  23.5679817  30.0727386  73.2128525
  64.2272263  71.5534363  54.4955902  64.9289932  71.4521561  53.8525467
  64.6744461  71.5428391  55.3418312   6.1899457  59.7742844  62.8155937
   6.6302023  59.9709053  61.9887047   5.2568774  59.8244629  62.6079941
  50.2608948  58.2925186  35.9673347  49.9702682  57.7066231  36.6662560
  50.8293686  57.7499199  35.4208412  74.0034103  63.7978973   6.9333673
  74.0495377  63.5307083   6.0153732  74.8240509  64.2656784   7.0881877
  17.3255291   4.5283408  66.2448120  18.2384605   4.2418098  66.2185822
  17.0645294   4.5810404  65.3253937  20.9647808  35.8236618  77.3809586
  21.8155212  35.7574654  77.8146591  20.3275642  35.6754684  78.0796967
  67.6400604  56.0000610  60.0301933  67.7938232  56.8775520  60.3803291
  68.4184494  55.5024567  60.2806435  60.1110001  46.0810356  69.5617905
  59.7283020  45.2058029  69.6229782  59.4487000  46.6590500  69.9405899
  64.4017563  25.6490822  11.3773003  65.0931625  25.5444469  10.7236643
  64.6224976  25.0182381  12.0625296  86.6406631  28.3871632  53.1678123
  87.1989899  29.0864296  53.5077209  86.1506882  28.7970352  52.4549599
  41.6128082  45.2128677  51.8801956  41.2427521  44.4716110  51.4007950
  40.8605042  45.7717171  52.0750351  34.4626808  37.3147049  45.3544579
  34.5484085  38.2649994  45.4307365  35.1439743  36.9658546  45.9292412
  81.0370560  52.9319725  59.8161621  80.5738525  52.3315849  60.4002876
  81.7481766  52.4073257  59.4483337  42.1930923   0.3788482  79.8873444
  41.9326363   1.0206946  80.5479660  42.0487785   0.8230571  79.0518265
  62.2314644  23.4056396  42.8854675  62.7724304  22.6499977  42.6561356
  62.6243782  23.7464561  43.6890182  78.2796707  19.9763546  20.2173538
  79.1273041  19.9566784  20.6616039  77.7737656  20.6332512  20.6956615
  32.0635109  41.4078407  68.5129929  32.6539421  41.6607361  67.8032990
  32.6435242  41.0937576  69.2066574  58.6952477  19.5546932   4.5096765
  58.3883667  20.0914078   3.7789288  58.0459099  18.8551826   4.5823302
  75.5819092  56.5705109  18.0666428  75.5299225  56.6816444  17.1173382
  75.0356674  55.8058128  18.2485390   0.7279001  13.9766083  54.3799438
   1.2288728  13.4908009  55.0351143  -0.1344928  14.0957947  54.7778168
  53.3575096   3.7355850  68.2373047  52.8017197   4.1946554  67.6075516
  52.8847885   2.9253850  68.4279404  50.4978752  41.5823975  48.2898064
  50.8846130  41.0272713  47.6126823  50.2649002  42.3905373  47.8327827
  43.0027351  61.5321236  26.5146008  42.6231689  60.6576996  26.6014633
  43.9449539  61.3784103  26.4450836  82.1864624  50.6307373  17.4929066
  81.7365417  49.8946648  17.0781708  82.0557098  51.3621483  16.8894405
  68.2195892  37.0954437  43.5631752  68.4930801  37.7941513  42.9688339
  68.9744873  36.5085030  43.6062889  46.5194817  55.7390976  13.0117273
  47.3104439  55.2001114  13.0221920  46.8432045  56.6385727  12.9629641
  55.6676445  60.2673912   0.2669427  55.9864540  59.5380249   0.7985589
  54.8156090  60.4848785   0.6450474  15.1779404  16.0652962  87.3123322
  14.2339678  15.9216461  87.3795166  15.5673761  15.2997265  87.7348022
  60.1287842  65.7423553  48.2899170  60.2541580  65.9584351  47.3658943
  60.7857933  66.2652359  48.7494469  11.7499676   6.6477308  65.2002716
  11.0822220   6.8557792  65.8537750  12.3566284   7.3873701  65.2338715
  79.4899826   5.5221210  22.8855915  80.4470673   5.5166545  22.8994312
  79.2573471   6.4436288  22.7718506  61.0083809  45.9254875  35.5322723
  61.6108932  45.1928139  35.6603432  60.1375122  45.5352325  35.6066017
  11.0891676  65.6287842  49.1021767  10.7977276  66.5013580  49.3665695
  12.0103874  65.7443008  48.8692780  83.8351898  26.9313889   5.3103070
  84.2121506  26.1165924   5.6423268  83.1069260  27.1173439   5.9029956
  34.4490776  28.3471985   2.0810752  33.5718994  28.5196018   2.4232280
  34.9999504  29.0173664   2.4856088  32.9820480  63.0158577  74.1552658
  33.3409805  62.2005882  74.5056000  32.2291222  63.2060547  74.7148743
  67.3495331  45.1836624  73.2886047  67.4631271  45.3942566  74.2154160
  66.7548981  45.8583488  72.9608154   1.4138913   3.0330169  29.6996880
   2.2601271   2.6418936  29.9168034   1.6152306   3.9493029  29.5096493
  55.2147141  34.3473930  65.1215973  54.3855553  33.9178505  64.9113159
  55.8725281  33.8484116  64.6373138  47.2157097  41.2755508  24.0670395
  47.1945953  40.4220467  24.4998398  47.2620659  41.9070282  24.7848949
  61.4320946  62.9583092  50.2964020  61.4840508  62.9185982  49.3414383
  60.5644341  63.3213387  50.4741707  20.8107891  41.1645203   6.8981600
  20.4848022  42.0249939   7.1618853  21.2486496  41.3204308   6.0613794
  36.1710472  71.4152222  39.2420235  35.6654816  71.0971756  39.9900093
  35.5132637  71.7556763  38.6356850  38.1332474  26.7110729  56.2403564
  38.5318451  27.1299839  57.0031548  38.1798859  25.7740173  56.4300385
  85.6763458  35.7561836  65.9368973  86.4212418  36.3447075  65.8144073
  86.0678177  34.9304047  66.2216339   3.5414670  40.8055267  50.8200035
   4.0816493  40.0787163  50.5098763   3.7503991  40.8788910  51.7512360
  74.3842621   9.4479294  23.8091412  73.9386215   9.9413509  24.4977436
  74.1682968   9.9147978  23.0019073  38.7560654  36.3356476  29.3318882
  38.4037209  37.0258102  28.7699623  38.1263123  36.2661476  30.0493908
   7.3616657  37.9999123  13.5896263   7.5802932  38.5229759  12.8183680
   7.7092342  37.1295128  13.3951092  31.2986145  69.1635742  76.2602768
  30.8487854  69.3543625  77.0833740  31.9391060  68.4896698  76.4879837
   9.5936136  45.5210037  41.2264977   9.4488382  45.6505966  42.1637688
   9.5393248  46.4002037  40.8519440  74.6871643  54.5152550  29.4528370
  74.0197449  54.8217697  30.0667057  75.4396591  54.3012428  30.0043640
  70.4617691  19.9533367  52.9926605  70.6445694  20.5981865  52.3092957
  70.6844406  20.4001656  53.8093567  25.0004196  17.4565468   4.8212304
  24.5577831  16.6089001   4.8636346  25.7097073  17.3251534   4.1920424
  49.6767082  13.1809673  76.7122269  50.4217148  13.7086134  76.9999542
  50.0054436  12.6945772  75.9561920  30.0683556  49.5762367  53.6711235
  29.4381065  49.3924026  54.3677025  30.8085804  49.9850655  54.1196327
   8.1488733  55.7292862  76.4251099   8.0142469  56.3106461  77.1735306
   8.8844566  56.1163635  75.9504318  28.0661926  64.0504532  72.7719269
  27.1901703  64.4310684  72.7090530  28.6226044  64.6457901  72.2697220
  30.7513943   8.3871698  86.1989517  30.6891880   7.8290663  86.9741135
  30.9050121   9.2652359  86.5477066  16.4332047  63.0721130  24.0928249
  15.5639992  62.7113762  24.2677059  16.6087589  63.6461067  24.8384399
  31.1527023  41.0291443  73.1620636  31.7435665  40.6298637  72.5235596
  30.6626358  41.6805191  72.6602859  17.5316849   4.2153730  12.3640938
  16.5885124   4.2556481  12.5223141  17.7537422   5.0800281  12.0187035
  60.8882446  11.1870518  54.5876503  60.9458580  11.8167477  53.8690414
  61.3833618  10.4274912  54.2807961  64.6531601  64.6244583  55.3964005
  64.1984634  63.8580742  55.7458763  63.9764366  65.2990036  55.3391533
   9.1073170  16.3193016  63.0369606   8.4049520  16.9632721  62.9463158
   8.7692614  15.5339985  62.6065559  19.4767437  38.9048157  54.3758087
  18.9586143  38.1703262  54.0467148  20.1652374  38.4962006  54.9004440
  16.2179775  57.0011559  34.9897156  16.1098747  56.0699501  34.7963333
  17.1190701  57.0775986  35.3034363  20.9537697  62.5299911  66.8821716
  21.7588253  62.5324440  66.3643799  20.7018528  63.4517822  66.9376297
  52.2843018  35.0554619  29.6710739  51.7058334  34.7919655  28.9554081
  51.7504883  35.6421089  30.2069092  76.0952454  41.7142448  16.1144657
  76.8124924  41.7640915  15.4825554  76.4847488  41.9974174  16.9417095
  84.3220825  12.4806538  57.4389114  84.1794968  12.7576189  58.3440018
  83.8851242  11.6312866  57.3766861  78.3249893  16.2991428  58.0754547
  78.1698532  15.3562460  58.0196762  78.7150955  16.5280094  57.2318535
  54.5019608  26.5076752  25.2316284  54.9745750  27.1398296  25.7731533
  53.8196487  26.1620903  25.8071747  80.9141083  29.4747753  78.9764481
  81.5301895  29.6227665  79.6939240  80.6281509  30.3519707  78.7215195
   9.1712503  40.1167564  34.7982903   8.3867235  40.4026451  35.2662849
   9.1323547  39.1607857  34.8271980  77.6020660   5.2005830  73.7124252
  77.7202454   5.5185266  74.6075058  77.5686111   4.2479033  73.7991104
  76.4814453  66.2341461  64.2375183  76.4546890  65.9499741  63.3238640
  77.2537994  66.7970657  64.2907410  28.1954403  32.9818878  56.6535339
  28.3738689  32.0615845  56.8470154  28.8545227  33.4638176  57.1531219
  51.9896355  63.0702019  80.7870102  52.8699303  63.1419373  81.1560135
  52.1324387  62.8268585  79.8723450  67.9594803  43.8052330  82.9299469
  68.2004089  43.5832901  82.0305481  67.1839066  43.2733536  83.1083450
  57.9513817  41.3952942  21.2222443  57.6168518  41.8091965  22.0178623
  57.2439842  41.4944458  20.5850735  13.9489431  60.9374733  82.7513123
  13.9641523  60.3698578  81.9807205  13.0448561  61.2476997  82.8024673
  15.2513285  66.2718048  64.4285278  14.9189749  66.8968277  65.0728226
  16.0469742  66.6800003  64.0871277  64.2515869  38.4386826  68.4451218
  63.5425873  37.9202156  68.0646744  64.8584290  37.7897148  68.8012314
  78.6734467  47.3551636  86.6737595  79.2097931  46.6151810  86.9583359
  79.2719345  47.9038048  86.1667709  12.6316681  44.8905144  68.9147491
  12.6583300  44.9417000  67.9592896  13.3704672  45.4259949  69.2039948
  85.2923355  25.1987953  72.4083710  86.1651001  24.9291420  72.6943893
  84.9136658  24.4105396  72.0191498  61.0900269  45.5445862   4.1488848
  60.6649017  45.0355797   4.8391104  60.8779259  45.0768242   3.3411438
  77.8266296  31.8274841  29.2541046  78.2111206  31.8613739  28.3781757
  77.0786591  31.2369194  29.1646652  25.9939499  43.2733612  70.6836624
  25.2955360  42.9803505  70.0983429  25.8337936  44.2101784  70.7974777
  57.7562561  28.0259914  57.9344826  58.3303261  27.7667866  57.2137260
  57.1281929  27.3076801  58.0106506  57.9434853  57.5681648  37.9742241
  57.0329437  57.7537003  38.2038422  57.8987465  56.7764778  37.4380684
  30.5485325  46.1033745  33.1930122  30.8736839  45.6130409  33.9480515
  29.8064976  46.6030922  33.5334473  20.4968033   5.4070759  67.6661835
  21.2048244   5.0892625  67.1058807  20.1920300   6.2064424  67.2368088
   4.8969398  17.2414398  73.9593506   5.5722470  17.4020195  74.6184464
   5.3666205  16.8406239  73.2279282  41.6876755  18.7969570  78.6716995
  41.2325859  18.3387661  79.3782349  42.5520668  18.3871555  78.6382217
  72.8812027  62.0041122  39.3816872  72.8911514  62.9522133  39.5129700
  73.7755127  61.7896690  39.1162605  79.9476624  59.1087189  14.9668064
  80.2066269  59.0276985  14.0488720  80.0902557  58.2362442  15.3338022
  51.8316002  21.1309185  67.7791061  51.0085335  21.5923996  67.6184006
  52.5105934  21.7732010  67.5725327  81.9388504  45.2443161  45.0211678
  82.1513443  45.5076675  45.9165573  81.5541382  46.0268059  44.6262741
  20.7732277  11.3733988  81.6997681  20.1858768  11.2191133  82.4396667
  21.0554371  12.2821579  81.8034363  53.0608521   7.3827157  68.2116165
  52.9522476   7.4797091  67.2655563  53.5068359   8.1843548  68.4849396
  85.0114517  58.0754318  74.8497314  85.7742538  57.5893707  74.5365143
  84.4019165  57.3995285  75.1461334  41.3417473  52.6206474  73.9956818
  40.8774681  53.1527939  74.6418228  40.9923782  52.9089088  73.1524277
  70.7452469  54.8232613  50.7559013  71.1487122  55.5063057  50.2202759
  69.8128815  55.0398827  50.7578468  71.4412994   1.2875103  27.1046791
  71.5819626   1.2321709  28.0498676  72.0093765   2.0031772  26.8194809
  72.3054199  52.9142456   0.7425643  72.6933441  53.7787552   0.6070390
  72.6856918  52.3702888   0.0528290  15.1327734  61.9459686  44.3845558
  14.7815113  62.0026817  43.4959450  14.6075687  61.2661743  44.8067780
  50.5124626  43.2058449  70.6453781  50.3319130  42.5680046  69.9548721
  50.1496162  42.8101082  71.4378204  15.6783953   0.4119897  21.8466244
  15.4739599   1.1405793  22.4327946  15.2828178   0.6588694  21.0106812
  15.5748005  44.5583878  49.7101135  16.1727200  44.3381996  50.4244270
  15.1757421  45.3860626  49.9783287   5.3014078  36.8935394  32.6154327
   5.7248316  36.0561409  32.8044128   5.5167775  37.4458237  33.3669815
  54.9042969  68.8967438  53.4512177  55.7348862  68.7105789  53.8890457
  54.4399643  68.0597076  53.4525452  68.2395096  55.3777885  11.5257578
  69.0371094  55.1757202  11.0366392  67.5547485  54.8738289  11.0860376
  21.1285133  58.1073723  45.9556847  20.9994240  57.7877007  45.0627251
  21.2083569  57.3138237  46.4849663  41.6728249  49.8335342  57.7099495
  41.7457542  49.2781258  58.4861145  42.4811058  49.6722603  57.2232246
  64.2859726  31.1143284  35.3061638  63.5618935  30.9489326  34.7023582
  64.8206177  30.3215942  35.2618675  44.2745361  30.1118565  76.2356949
  45.2269402  30.0720024  76.1486664  44.1196404  30.1002617  77.1802139
  63.4428787  50.6582603  11.6129332  63.1970634  49.7764091  11.8924780
  64.1071167  50.9333992  12.2448502  56.7522583  41.5497055   1.1046193
  56.6013184  40.8740349   1.7656190  56.8067627  41.0688896   0.2787400
  18.5780602  64.5654373   7.0328550  19.4813766  64.5940628   6.7175283
  18.4699764  63.6759567   7.3695602  11.1514559  15.0120592  22.7959328
  11.4746494  14.8054638  23.6729126  10.3947458  15.5784998  22.9468212
  80.6492767  33.0811195  85.0575027  81.0336380  32.3012161  85.4578171
  80.9913864  33.0848236  84.1635361  58.1373024  17.7754517  60.0391312
  58.2395782  16.9234447  60.4632263  57.5929680  17.5974255  59.2721672
  30.1155109  67.0447083   9.3158665  29.7388706  66.1926804   9.0957966
  29.4298534  67.6744003   9.0931807  48.6670151  66.6418839  40.7373238
  49.4678345  66.2693558  40.3683548  48.7831116  66.5686188  41.6846313
  79.7355652  70.4690018  51.9040718  79.4886780  69.6108322  52.2487869
  79.9934616  70.2980957  50.9982491  84.7063980  26.8852310  67.9037247
  84.4151840  26.0655079  68.3030777  84.9480133  27.4402981  68.6451797
  30.3208103  21.0469799  82.7914734  29.6489544  20.3658562  82.7612762
  30.3246937  21.3393326  83.7029266  81.4536209   2.9949543  30.5995483
  81.9642944   2.1857538  30.5742321  81.9016876   3.5801451  29.9887924
  13.1726894  45.2233543  86.5971832  12.2309961  45.0798569  86.6912842
  13.5663033  44.6915588  87.2889175  45.1773415   6.1975279  78.8126526
  45.4071426   6.5840049  79.6576767  44.4231834   6.7057467  78.5139999
  21.8616600  18.4539165  83.0569839  21.9328709  17.9195061  83.8479156
  21.1236782  19.0388126  83.2287674  74.5036469  45.1155624  30.5528297
  75.3287048  45.5970993  30.6130981  73.8289413  45.7754936  30.7124977
  33.9863052  53.3129578  84.2880783  33.1191406  52.9632568  84.4929352
  34.3223114  53.6270905  85.1275177   9.3271122   6.8103771  15.0255747
   9.4577894   7.0602236  15.9403057  10.0507030   6.2135777  14.8345804
  70.9683075  42.7690811   4.9655852  71.6391449  42.9261322   5.6300678
  70.9618378  41.8186989   4.8517170  37.9009705  20.2815590  11.9628296
  37.4782104  20.8808632  12.5779238  37.5024719  20.4861221  11.1169062
  73.4839020  53.4937210   7.2711530  73.6480713  54.4340553   7.3422108
  74.0975571  53.1934395   6.6007123  62.5844307  34.0343475  42.3754578
  63.4979324  34.1750298  42.1265450  62.4389153  34.6381836  43.1037674
  84.1920853  27.5692062  71.2913589  83.4094086  27.7889423  71.7966995
  84.4340210  26.6936283  71.5931168  55.2778931  24.3225250  84.5777664
  55.6526985  23.7220860  83.9333878  54.5928078  23.8126812  85.0101471
  85.9775696  36.5589333  80.4349899  86.9347000  36.5529556  80.4246445
  85.7415466  37.4649620  80.2359009   7.0794206  60.3652802  86.8722610
   6.5147386  61.0695839  87.1905746   6.6000061  59.9889793  86.1341629
  58.3569717  17.6219463  14.9112196  58.1136169  18.4529800  15.3191357
  59.1857185  17.8058414  14.4689646  82.8008804  50.5107765  81.4070282
  83.3372116  50.5676155  82.1978226  82.9437180  49.6210518  81.0841980
  65.6015854  35.2976074  49.3813438  66.0376434  35.5036240  48.5545158
  66.2694778  35.4521751  50.0493736  46.8887062  33.6705971  65.6074142
  46.4056206  34.4458885  65.8934021  47.6069412  33.5908737  66.2351151
  64.3194733  44.8455811  14.6746311  65.1639557  44.6025887  14.2951126
  64.5225754  45.5692787  15.2672901  37.3200417  55.4085503  83.2749329
  37.7212677  54.7843933  82.6702194  38.0060234  55.5960999  83.9156189
  30.9359970  70.2651749  31.4746742  30.3666306  69.7792435  30.8780842
  31.3014851  69.5969467  32.0544357  41.8937683  10.7014971  59.5481415
  41.9866486  10.2490425  60.3865280  40.9537163  10.6828003  59.3687363
   8.5228472  43.9456940  31.3780899   8.2343378  43.6288261  30.5221748
   8.2748699  43.2500648  31.9870586  68.7894211  53.5476379  55.5915947
  68.7227249  53.4187241  54.6454620  68.7790756  54.4980240  55.7051430
  77.8531723   5.2423573  50.3083534  78.3434296   5.1976905  51.1292572
  77.0653381   4.7237272  50.4713593  79.8043060  16.1267490  68.9847946
  80.5383377  16.7135353  69.1667557  80.2060165  15.2632179  68.8890305
   0.7961245  10.4354115  56.8684654   0.2050615  10.3560343  57.6171837
   1.1315970   9.5491962  56.7331390  15.5207977   0.8046939   9.6998148
  15.7724524   0.1475358  10.3486948  15.0970030   0.3033928   9.0031605
   2.6997416  70.0671005  27.1465206   2.6094489  70.4855881  26.2903957
   1.8925276  70.2918091  27.6092796  45.4506721  63.3427849  63.2635994
  45.8044205  63.5427284  64.1302719  46.2038994  63.4080887  62.6765594
  78.6990585  52.0323029  32.7892342  78.7592545  51.8634758  31.8489628
  77.9338226  51.5326233  33.0737839  76.3130951  43.2368660  65.6134262
  75.4375687  43.6204529  65.6639404  76.9057159  43.9879837  65.6426697
  66.9526901  32.2232819  35.3750801  67.4097519  31.5736198  35.9091835
  66.0283661  32.1063652  35.5946198  67.1366425  66.9631500  48.9946556
  66.5119705  66.4352875  48.4972878  66.9765549  67.8609390  48.7038383
  67.1707611  36.9373894  12.8469381  67.7058334  36.5886612  13.5599022
  67.6362839  37.7231255  12.5603342   5.3133836  46.5946465  27.2901936
   5.2914329  47.3410873  26.6913815   6.2047734  46.5935287  27.6389828
  30.6259727  64.3708267  12.9910784  30.6457138  63.8920097  13.8196783
  31.5324535  64.6444702  12.8509264  51.6309624  41.2140198  41.7052155
  52.1162033  41.2443657  40.8806839  51.3796997  42.1230431  41.8688507
  84.9942245  53.9691772  33.3995934  84.6819305  53.0766602  33.5483131
  84.3451920  54.3551216  32.8113403  48.2784576  18.3956032  27.3238411
  48.3044281  17.7585068  26.6099319  47.8885460  17.9186344  28.0564404
  17.9942875  49.8303757  70.5358505  18.5634918  49.8352356  69.7662964
  17.2968674  50.4500771  70.3218231   8.0625162  45.4637108  12.1677837
   7.1986184  45.8500671  12.3114538   8.1607037  44.8267059  12.8754673
  58.5477600   8.7512150  34.2997551  57.8678551   8.0776129  34.2848549
  59.1835327   8.4356356  34.9419670  55.7991486   9.3877897  26.4244423
  56.2729149   8.8421364  25.7967148  55.3661804  10.0507460  25.8866138
  43.4790726  40.6649704  82.7601166  44.3981285  40.4324112  82.6278839
  43.5060921  41.4334641  83.3301315  32.2739525  20.2382050  67.3416519
  32.7184830  21.0698414  67.1773148  32.9683571  19.6499939  67.6383820
  80.3045197  45.1044693  86.9620895  80.3993683  44.9684677  86.0193558
  81.1911316  45.0049095  87.3088455  85.6323395  39.3269119  80.9665909
  85.3003464  39.0021400  81.8035736  84.9754868  39.9605408  80.6779938
  82.2712708   4.8728867  58.3343430  81.9238663   4.3223586  57.6325874
  81.5237503   5.0235353  58.9129181  54.4199791  30.6620979  19.0230122
  54.2346840  31.5997276  18.9705772  55.1908722  30.5389576  18.4691219
  57.9946785  18.8974266  40.9267998  57.5540619  19.4207401  40.2572975
  58.6270027  19.4975128  41.3221436  65.3973846  21.0330334   1.9048971
  64.8800201  21.5064430   1.2533971  65.6828918  21.7080612   2.5205719
  37.7942238  68.9250107  36.9115944  38.6608734  69.2920303  36.7371101
  37.2390213  69.6879272  37.0726433  16.8041782  35.4787941  44.3470001
  17.1465302  34.9143562  45.0401344  16.0683880  34.9884605  43.9803696
  63.6914024  28.3744659  24.2729912  64.4564590  28.1873379  23.7290230
  63.0217094  28.6634960  23.6531448   0.3597493  49.2566452   5.5413003
   0.2564552  49.6151123   4.6597881   0.1267663  48.3324547   5.4528556
  57.7188492  37.1515617  83.4639969  58.5494766  36.8077393  83.1352539
  57.8309860  37.1807899  84.4141541  31.0246563  41.2348480  22.6892509
  31.1486435  40.3168297  22.9302864  30.9580383  41.2248840  21.7344227
  38.8520470   8.5099688   1.6797811  37.8996773   8.4308119   1.6254022
  39.0238037   8.7072334   2.6005518  29.3999710  50.5559464  62.5217590
  29.4850578  50.8560219  63.4267159  28.8463612  51.2144661  62.1021118
  82.2654495  40.2041855  16.9470539  81.8911209  39.3423233  17.1295586
  81.5232620  40.7290535  16.6472244  42.3343086  20.3589096  53.0896606
  42.5196800  20.4012413  54.0277863  43.1771011  20.1471653  52.6883011
  24.5684624  48.4853516  62.5286942  25.0546322  49.1823997  62.0882492
  23.9823208  48.9450836  63.1297951  37.0399780  29.1682701  63.1571312
  36.7543907  29.4858341  64.0137634  36.7997780  28.2417068  63.1529121
   3.2634902  63.9594765  61.7225685   2.6740761  64.3536911  61.0795937
   2.6967850  63.4045029  62.2583694  63.4926262  28.8926811  61.7695541
  62.9898338  28.1235199  62.0375519  63.0475464  29.6282883  62.1902885
  77.0469513  69.4750824  58.9395714  76.7685547  70.0812683  59.6260643
  76.2471848  69.0120316  58.6901665  75.0037231  26.6036854  54.5234871
  74.7361526  27.5224113  54.4993477  75.8844604  26.6204910  54.8979912
  78.1589966  27.3612804  75.1723022  78.6721725  27.3765831  75.9801712
  78.3416290  28.2039089  74.7565460  58.3268051   1.6883104  67.1454773
  57.5415993   1.8392483  67.6716919  58.0167999   1.1877131  66.3908081
  64.1990814  61.9346886   5.3196034  64.3138275  61.5208397   6.1750522
  63.2780342  61.7880440   5.1042075  83.0807724  16.6868687  51.4646606
  83.9056015  16.2149506  51.3498230  83.3093338  17.6059513  51.3258171
  42.3062515   0.3679938  87.4923019  41.6002541   0.9666871  87.7359543
  43.0087242   0.9395726  87.1823654  45.4920921  15.9698410  12.5397263
  46.4037437  15.7674713  12.7498856  45.5004539  16.8981400  12.3064413
   4.3827720  13.3670521  71.1175690   4.3219552  12.5060349  70.7038269
   3.8567498  13.9390383  70.5586700  46.2862167  51.3938141   8.0283003
  47.1790771  51.7186775   8.1444731  45.9970322  51.1668587   8.9120951
   6.5769696  39.0072556  53.4985390   6.2283378  38.2599411  53.9845581
   6.5658059  38.7245407  52.5841103  78.4512939  69.8251877  33.3496246
  78.9954681  70.6104507  33.4085083  78.9268570  69.2485199  32.7516899
  14.8913450  44.0572014  27.6381187  14.6684332  44.0442238  26.7073269
  15.2957010  43.2047424  27.7994766  51.8675117  71.6028366  24.5020466
  52.6276054  71.4518356  23.9401875  51.5257034  70.7272415  24.6830006
   5.9928908  55.3441734  34.4438324   6.8724351  55.0661850  34.1881866
   5.4352508  55.0762253  33.7134399  60.7231293  53.1333733  38.9332161
  60.3495712  52.8044968  38.1155777  61.6531181  52.9138374  38.8770256
  70.7626724  66.5010529  78.7965927  71.4182587  66.6946487  79.4666367
  70.3236465  65.7111969  79.1121979  77.3052444  60.7816696  62.4400368
  77.7972031  61.6027565  62.4453697  76.3952560  61.0468140  62.5736313
  71.5575867  29.3409481  27.1747341  71.5725937  29.7008171  26.2878857
  72.4410553  28.9979019  27.3089981  28.0113525  50.7287025   0.3392611
  27.6699257  49.8352432   0.3765483  27.7849674  51.1072655   1.1887734
  51.1170349  58.1767006  85.2457504  50.9583321  59.0538254  84.8968964
  51.4188156  57.6700516  84.4917831  25.6252193  49.1653404  21.8455429
  25.2702351  49.9453354  21.4191303  26.3175354  49.4985809  22.4164047
  69.2848053  35.6436272  79.6191940  69.9981918  35.0882034  79.3048477
  68.5226517  35.0649490  79.6413345  47.9717407  69.1723785  39.9629135
  48.2248192  68.3192673  40.3156013  47.3164864  68.9705887  39.2949638
  61.6042099  65.1646194  11.5720882  62.2095680  64.4232941  11.5866432
  61.3437843  65.2791672  12.4860306  50.2019577  58.2975502  63.4701843
  50.0371895  58.8612404  64.2260513  49.8115883  57.4567719  63.7087975
  50.1302185  24.4438095  19.9728050  49.2095184  24.2307320  19.8206902
  50.1464920  25.3981743  20.0446205  24.2937889  16.3609028   9.7334871
  23.7940788  15.6028967   9.4302597  24.7591076  16.6678734   8.9553614
  50.8599663  25.2718067   4.6037679  50.8723068  24.5708103   5.2554455
  50.7342339  24.8206062   3.7689986  81.1090622  58.4832611  48.0534172
  82.0211716  58.2540207  48.2315674  80.7281647  57.6844101  47.6887436
  47.4227486   0.7034042  33.2861900  48.1242523   1.1277235  33.7802277
  47.5425377   1.0111229  32.3877487   8.3048344  48.0643501  58.8900795
   8.8263350  47.9412689  58.0969086   8.8062630  47.6250534  59.5769730
  23.2319965  55.8831062   0.3638000  22.6661568  56.6114082   0.1076131
  22.7366352  55.4214401   1.0403461  28.2697792  24.4012108  77.2744980
  28.0233402  24.3170490  78.1955948  28.4447079  25.3350182  77.1577225
   9.3509378  49.0607071  62.5290909   8.7360725  49.6985855  62.1667557
   8.9133205  48.7234802  63.3107567  68.0772476  22.3174000  12.4030752
  67.7098236  21.9855556  13.2222891  68.9456940  21.9182529  12.3510427
  83.1035233  32.9221344  32.6810760  83.6171799  33.0990906  31.8929920
  82.2013931  33.1178818  32.4279480  49.9980125  53.1167908  56.5317078
  49.5169373  53.3460159  55.7365646  49.9291382  53.8942451  57.0858345
  21.5648651  38.6248970  86.3520355  22.0638599  38.4484406  87.1495895
  21.2028942  39.5009995  86.4848785  17.9234085  68.8277054  76.9383240
  18.6598434  69.2475739  77.3828506  17.6733837  69.4465866  76.2522430
  31.8075256  54.3109818  14.9547930  32.1918678  53.7315102  14.2969761
  32.4600410  55.0005417  15.0771217  16.0755787   4.4106712  30.2056293
  15.6587400   3.5490913  30.1930790  15.5992107   4.8974376  30.8782082
   4.5791869  69.6785812  23.1853294   4.1928997  68.8730621  23.5290585
   4.0298691  70.3778152  23.5396614   4.8882489  60.4072418  70.9046860
   4.3277750  60.8798561  70.2892761   5.7619905  60.7705917  70.7605209
  48.9292870  36.8013725  32.3409081  48.0200882  36.8339500  32.0433731
  48.9357033  37.3157234  33.1481476  76.4943848   2.0895686  17.7053375
  77.3005753   2.5666041  17.9021397  75.9283524   2.2544696  18.4594231
  26.4732819  42.1362305  48.9682846  27.1419163  41.9598007  49.6301231
  26.5644436  43.0700302  48.7787132  51.8317795  68.4958725  58.0140076
  51.4882545  69.3880844  58.0606461  52.4837799  68.4533844  58.7135239
   9.3321514  64.9030457  27.0385685   9.5269489  65.2391586  26.1637459
   8.7008238  64.1991501  26.8896160  19.4308472  57.1593628  13.0888443
  19.3776951  56.5846558  12.3252230  20.2675819  56.9378471  13.4975462
  78.4992905  55.2873993  74.2293015  77.7077789  55.6124420  73.8002396
  78.1887894  54.5930481  74.8104172  55.3838959  55.0772514  71.3944550
  55.8437157  54.6934967  70.6477737  54.5274086  54.6498642  71.3937073
  71.3490906  21.4911423  26.8393898  70.8050461  22.1838837  27.2140274
  71.0014496  20.6830845  27.2167778  22.1703072  38.4564743   6.3116193
  21.8102016  37.6054611   6.0619521  21.4070797  39.0309219   6.3726587
  10.5482111  25.3691578  83.9425659  11.3129740  24.9114513  84.2916718
  10.7443237  25.4890022  83.0133667  67.0631638  12.4455538  80.6047668
  67.1345291  11.6803799  81.1754227  67.2161102  13.1917524  81.1844406
  72.6355209  31.1392460  29.5145245  72.4986496  31.9119530  30.0626297
  72.3653870  31.4158230  28.6388741  70.7817230  63.2900505  81.7013702
  71.7378616  63.3350906  81.6992722  70.4993362  64.1991501  81.8015137
  65.0294800  50.5979691  59.8436775  64.7132950  50.2345085  60.6708183
  64.7211609  49.9827766  59.1783180  75.7556152  19.5851917  63.7758865
  75.1501083  20.0732002  63.2178192  75.2314301  19.3351040  64.5367508
  74.7982864  35.3804512   2.6185195  75.1848755  36.2152863   2.8827829
  75.0967102  34.7577972   3.2814493  38.8917351  32.2867851  29.6061153
  38.3004532  32.6448746  28.9440041  39.6861534  32.0623856  29.1215782
  35.3797989  58.3918839  59.5061455  34.9762497  58.0925751  60.3208847
  36.3156586  58.4320946  59.7030678  15.0041981  44.8855820  84.8202133
  15.7079372  45.5180473  84.9650269  14.3442030  45.1070404  85.4771729
  36.2225838   0.6660165  80.7332230  36.0919685   0.6979041  79.7855148
  35.3378029   0.6878103  81.0978088   7.6738262  50.1632156  10.4442234
   8.1205072  50.6144104  11.1605549   7.7868338  50.7412071   9.6896467
   1.5934467  20.4352646  30.3500957   1.1649665  19.6013470  30.5430164
   1.6454468  20.4624424  29.3946953  23.6649952  20.2407494  68.9201126
  24.0344028  19.9168186  68.0986252  24.3549557  20.7894535  69.2930908
  69.9061050  13.9308500  13.1896486  70.1806259  13.4939728  12.3834162
  69.4914169  13.2404299  13.7069302   9.4396858  22.8911171   6.7825303
  10.2833738  22.8826847   6.3304787   8.8967676  23.4860592   6.2653127
  84.0369720   2.6311185  79.5565567  84.6763229   1.9196162  79.5214920
  83.8942108   2.7789803  80.4914322  23.3577423  67.8032608  39.4024315
  22.6745033  68.3566818  39.7807693  23.1012268  67.6986923  38.4861908
  23.7047176  22.1355438  80.4108276  23.7692394  21.6858711  81.2533646
  23.8585339  23.0571289  80.6188049  76.4324036  41.2694359  45.4812889
  75.7092361  41.5752144  44.9337807  76.5452728  40.3506317  45.2377968
  24.3694572   8.8529835  18.9283218  23.8728046   8.0564442  18.7409897
  24.0987682   9.1017284  19.8121128  73.2444687  35.2724190  80.0555725
  73.1137161  35.8597183  80.8000336  72.3597946  35.0750923  79.7479095
  71.8123093  68.9986877  32.2863426  72.0715790  68.6658783  31.4271297
  72.6010361  69.4198608  32.6280365  58.8621216  52.3034172  30.5001907
  58.4613113  51.4437752  30.6290359  59.2341766  52.2645798  29.6191120
  57.6445351   0.4399961  46.2555504  56.9101181   0.3817371  45.6444283
  57.9965553  -0.4493589  46.2924385   2.7680786  53.5806236  52.7270927
   2.2204087  54.1311417  53.2867508   3.2275898  53.0023575  53.3359337
  22.3960075  60.6947899  29.0018692  22.5790768  59.9011421  29.5047016
  22.9534779  61.3638954  29.3990574  42.6479416  22.9454250  73.5605850
  42.9344254  22.9987926  72.6488190  42.7834511  22.0288620  73.8009567
  66.2235947  28.9474049   6.4227877  65.9052200  28.1072197   6.7528787
  66.1891098  29.5310879   7.1806502  49.4812889  23.7787724  14.7581854
  49.5300674  22.9091434  15.1551714  49.0948296  24.3309898  15.4378452
  70.5441589  49.7266273  28.8250427  70.4070435  48.9324493  29.3414841
  71.2498932  50.1880646  29.2780838  27.9169579  52.7489853   4.9527321
  28.7525215  52.8108444   5.4155917  27.2602272  52.9683952   5.6136374
  18.3658161   1.2927413  85.8991928  18.3576546   1.6950243  86.7677155
  19.0950947   1.7159097  85.4460754  42.6819382  33.6389122  12.6705942
  42.7535133  34.5861320  12.5527477  42.1319809  33.5350418  13.4471178
  28.2840195   9.6216164  88.3194351  28.8743382  10.3748713  88.3003998
  27.9830875   9.5302401  87.4153748  84.2813034  55.9285545  10.3497591
  84.5314560  56.1094055   9.4436970  83.7878494  56.7025909  10.6210489
   7.2181211  69.3533325  81.0864334   6.5171142  69.8460083  81.5131454
   6.7625408  68.7085800  80.5451584  71.7401581  58.9289436   8.6775560
  71.5080338  59.7082634   8.1725750  72.6357346  59.0929565   8.9729948
  57.2186279   2.6381245   0.0794187  56.8522186   3.2539747   0.7140081
  56.8495789   1.7905244   0.3276258  23.9032936  68.3281174   1.7321109
  24.0067921  68.7648010   0.8866358  23.5891571  67.4511642   1.5118766
  80.7082672  57.8863335  68.6393890  80.8579559  58.7342110  69.0576401
  80.1604462  58.0869942  67.8805389  70.3549576   8.2739096  56.9604721
  70.7933578   7.9040961  57.7268143  69.6573639   8.8195076  57.3236732
   9.6883192  40.2808609  50.8631668   9.2974710  39.6737137  50.2348022
  10.1835699  39.7209167  51.4610100  64.2442627  11.8115253   1.9241893
  64.5971375  10.9353523   1.7691689  64.5723877  12.0520411   2.7906284
  42.4174919  48.7448387  60.7282524  42.4812164  47.9605598  60.1832047
  42.0253677  48.4373322  61.5455132  11.1531477  48.1514473  52.5634270
  11.8308201  48.7040176  52.1739922  11.6019640  47.6813850  53.2661629
  63.4272766  60.4065628  53.2536812  62.9170532  59.8011246  53.7915916
  62.7737961  60.9794540  52.8524475  41.2177505  18.3406143  88.8278656
  40.4688492  18.5519905  89.3852692  41.5137100  17.4850159  89.1386490
   3.8624387  40.5328522  23.0649719   3.7143276  41.3754959  22.6357307
   4.8143010  40.4322357  23.0731125  23.1966400  40.4378281  54.9970589
  23.7633057  39.6718292  55.0885468  23.6644516  41.1376266  55.4527626
  69.6042404   1.3910108  85.9911957  69.0383835   1.9548388  85.4638138
  70.4257050   1.3507675  85.5014877  58.7128487  12.2425699  15.5726614
  57.9205627  12.0063953  16.0550938  59.2252579  12.7612343  16.1928673
  81.9663315  10.9106436  77.0408554  82.8548508  10.5728655  77.1533890
  81.7269287  10.6621685  76.1480026  49.3000755  62.0492706  24.0296268
  48.9669762  61.4850769  23.3318005  48.5814705  62.6548615  24.2115574
   7.2609277  12.3973408  83.2558136   7.4226980  11.9959879  84.1096191
   7.2865825  13.3390970  83.4251328  67.2698288  70.1885605  40.3609734
  67.2771225  69.2389908  40.2405624  68.1450729  70.4704437  40.0950508
  55.0073891  54.9436111  26.1929512  55.2443581  55.8611298  26.3279800
  55.7963829  54.4553528  26.4281616  15.4522495  66.9803238  68.1563721
  15.9084358  66.7401810  68.9628830  15.7546787  66.3415298  67.5108414
  43.3485527   1.1210787  67.1992416  43.5416145   0.5790002  66.4343185
  42.5270996   0.7685031  67.5414886  18.4715195  30.8410549   2.9892635
  18.0466938  30.9631023   2.1402297  17.7567005  30.8899384   3.6239872
  25.6298294  53.1565323  74.4618683  24.7063904  52.9514961  74.3154068
  25.6302910  54.0713234  74.7436295  18.7440453  39.8174210  19.7046185
  18.3302460  38.9621925  19.8211632  19.4662247  39.6534233  19.0981560
   2.6735084  66.6891251  36.3773880   3.4695630  66.3076477  36.0072517
   2.9825430  67.2293777  37.1046181  37.0087891  10.1706114  78.5990906
  36.1127586   9.9081116  78.3882599  36.9273262  10.6689577  79.4122620
  14.2789230  71.4533615  51.4344635  14.5681877  71.7827454  50.5835457
  13.5098019  70.9193344  51.2357140  63.0745850   3.0563083  28.8371449
  62.2561760   3.5332787  28.9747601  63.5328331   3.5567226  28.1619949
  68.8095245  56.9380150  44.6569214  69.2053604  57.8091316  44.6305504
  67.8667145  57.1028366  44.6432838  43.5826225  14.3789749  57.7981377
  44.2067223  14.5770855  57.0999374  43.7210197  13.4508228  57.9868469
  82.1828384  10.8126602  64.6371460  81.2569046  11.0551777  64.6455994
  82.2117386   9.9949751  64.1403656   9.0181570  55.9237785  73.0091248
   9.3357353  55.1008148  72.6374969   8.4225197  56.2720871  72.3457031
  31.6868458  55.4140167  55.5428238  31.1634369  55.1825066  56.3100777
  31.5971375  56.3641815  55.4695206  41.5457230  67.2273331  73.2896118
  41.0468330  67.5286942  74.0489044  41.9664764  68.0174179  72.9505463
  46.0630493  64.2084579  50.1967087  45.6368217  63.9873810  49.3686485
  45.6411133  63.6413651  50.8421593  75.1882706  26.1566582   8.4804735
  75.3194733  27.0820942   8.6868315  74.6642075  26.1618309   7.6794977
  60.1464081  20.9131260  36.9518852  60.4929314  21.8035049  36.8937645
  60.9231911  20.3575344  37.0163536  17.2203579  29.9400139  19.0442657
  16.7451839  29.7433643  18.2369423  18.0116749  30.3925400  18.7522602
  77.4309616  46.9216232   5.1416526  78.0329514  47.5721245   5.5031633
  77.4291763  47.0940895   4.2001190  84.2468643  69.8555527  80.3657761
  84.0875015  68.9131622  80.4180527  83.3985062  70.2290421  80.1269760
  41.5324020  55.6350403  43.3861237  41.5246811  56.4084930  42.8222580
  41.1885986  54.9327240  42.8340530  40.6128197  30.4939327  15.0205698
  40.8962669  29.5839024  15.1085262  40.7154465  30.6877689  14.0888367
  82.2459183  41.7789154  61.0829582  81.8494949  41.2644119  60.3798447
  83.1759720  41.5552368  61.0483284  58.3491974  11.8933458  21.9426632
  58.8535080  11.1957693  22.3613377  58.2664185  12.5671597  22.6174622
  60.4909744  21.5186958  69.0153046  60.7555771  21.3849621  69.9254303
  61.2845955  21.3490505  68.5077438  83.6902618  57.7681046  57.1069908
  82.9920654  57.1134682  57.1210823  83.7017212  58.0866699  56.2044296
  65.6331940  68.9633484  11.1088896  66.0995636  68.1613159  11.3444166
  64.7213745  68.6897125  11.0091858  71.3473206  31.1300259  51.0546761
  71.2853241  32.0828857  50.9879761  71.7195587  30.8549900  50.2168045
  81.9403763  25.5567932  73.2640610  82.0136642  25.4877090  72.3121796
  81.0195389  25.7674332  73.4187241  33.2899590   1.9273865  73.9238510
  32.4686546   1.4359379  73.9367905  33.0237846   2.8348145  73.7756729
  22.7900085  65.9491425  64.5521393  23.5975475  65.6677628  64.1220932
  22.7309647  66.8853683  64.3618088  13.8651838  46.4941368  18.4958363
  12.9313250  46.7029762  18.4729042  13.8960457  45.5535736  18.6708107
  60.1842384  24.4440289  51.6730576  59.3566895  24.0469398  51.4015541
  60.1175232  25.3553486  51.3879662  25.7712383  41.6779594  39.7363358
  25.9654617  41.0572319  39.0340500  26.2054920  41.3116112  40.5066872
  17.6721153  39.5583878  12.3533354  16.9916859  38.9207001  12.1374683
  17.5304337  40.2774963  11.7376709  47.4372177  64.7775421  69.1964722
  48.2419968  64.9610138  68.7118073  47.1371803  63.9360771  68.8527527
  23.2263126  62.0201836  25.0909481  23.8927650  61.8825417  24.4178028
  22.5251064  62.4913940  24.6409435  18.6292343  64.0657959  34.1657486
  18.5890083  63.1557121  33.8718681  18.1843586  64.0636826  35.0132828
  52.0646133  31.4237862  57.5234604  52.2850151  30.4974041  57.4261360
  51.9497833  31.5449238  58.4659958  34.5721626  16.5573807  73.6654663
  34.2964401  17.4739952  73.6707382  34.5215988  16.2867832  74.5822296
  75.6171570  37.8882942  27.1128769  76.0692673  38.6994896  26.8809471
  74.9380722  38.1606140  27.7300644  78.9231110  16.6168766  44.3667526
  78.6704941  17.2525024  45.0363731  78.9476700  15.7790241  44.8289566
  54.9260178  44.3419304  73.3785706  55.1868439  45.2604752  73.4455109
  54.1184654  44.3590736  72.8649597  27.9943104  67.5485840  22.7427025
  27.3553295  67.7240372  22.0519409  27.4935856  67.6183319  23.5555019
  29.2176723  45.5413437  72.0957642  28.7445850  46.1315918  71.5092239
  28.9548149  45.8153839  72.9744186  73.4162750  11.1485052  47.1434288
  72.9285049  11.4580812  47.9066315  73.0537338  10.2811518  46.9631577
  35.3427811   6.5305200  15.1752691  34.7108192   6.5979505  15.8910275
  35.7287369   7.4042740  15.1134167   4.6670694  11.0513763  14.9620543
   3.8637421  10.5673685  14.7706575   4.3924017  11.7427340  15.5643950
  52.3872986  12.8493614  13.0825996  53.0240936  13.5639973  13.0780792
  51.5424080  13.2821894  13.2052984  18.2674980  45.8537941  79.6656113
  18.9026890  46.5697670  79.6534882  18.1121635  45.6557541  78.7420959
  66.5800018  15.7499809  27.0784721  67.1655960  16.4806767  26.8799744
  66.5524521  15.7180815  28.0347424  57.4676132  59.1846733  14.8331537
  57.6709633  59.0467834  13.9080229  56.6450958  59.6742325  14.8272057
  66.7585373  18.4482460  73.1309280  66.6368561  17.6758194  73.6829987
  65.9710999  18.9727802  73.2760010   6.9787683  50.1529045  45.6079445
   7.5116301  49.7685471  44.9118423   6.7962184  49.4235039  46.2002983
  22.7421131  51.1179810  58.7177925  22.1921349  51.6421852  58.1355858
  23.4787350  51.6906929  58.9313850  64.5955811   5.9609299  11.4353085
  64.7878036   5.0238585  11.4009848  64.0138702   6.0586452  12.1891632
  50.5122566  69.9188538  75.6161880  49.6421165  69.6497192  75.9105682
  50.5720139  69.5945969  74.7175674  53.5166931  36.9061890  56.9646149
  53.8854866  37.7729454  56.7944603  54.2757378  36.3235397  56.9891701
  23.1113663   7.0838003   3.7839642  24.0656128   7.0086617   3.7841487
  22.8285999   6.5420833   3.0472026  48.6716919  64.6728592  52.0461044
  48.2201767  64.5687866  51.2085266  48.0436935  65.1355515  52.6008682
  46.8276100  68.6873856  57.4267921  47.2192574  69.4651947  57.8241119
  45.9702988  68.9815292  57.1190147  69.3527679  23.2782383  84.2685928
  69.6679382  22.7637405  83.5254974  68.5474091  22.8380184  84.5403290
  48.9794846   6.0207219  87.3469620  49.8020973   5.6299610  87.6416626
  48.3757858   5.8877029  88.0777740  60.2665062  52.4956169   8.0997305
  60.5887299  52.2395935   8.9639378  60.3185616  51.6949043   7.5778251
  78.3221588  12.9993296  50.0015678  77.9507523  12.7728024  50.8541985
  77.9724655  12.3378277  49.4046059   3.2393103  48.3256798  44.7340012
   2.8310809  48.6066971  45.5529099   3.9483025  47.7435303  45.0072479
  62.1371765  51.4296646  34.1394348  62.4243355  52.1337967  33.5580826
  61.1832657  51.4276543  34.0601692  57.5610886  31.5716267   4.3766437
  56.8931313  31.7984619   5.0236435  57.1273956  30.9494038   3.7927072
  17.3757210  64.1117325  82.3060837  16.7970982  63.7416763  82.9727859
  16.9057579  63.9820366  81.4823456   2.7204022  65.2600327  55.0078049
   3.6152215  65.4790421  55.2677307   2.6758978  64.3067627  55.0822182
  61.0747299  24.5771503   1.2649910  61.2150993  24.3968334   2.1945143
  60.1511269  24.3730602   1.1182325  69.7871552  51.8674965  88.6698761
  69.4938583  51.0060539  88.9667358  70.6644821  51.9626999  89.0406494
   1.6235158  21.6047173  15.3642845   1.5805545  20.6484966  15.3696585
   2.2352114  21.8209457  16.0680637  46.7348175   4.2759418  17.1106720
  47.3684845   4.9550910  16.8794746  45.9664078   4.7588844  17.4148846
  36.0565491  58.9753799  14.8298473  36.8932152  59.4366798  14.7713509
  35.8058662  58.8176346  13.9196243  56.1884727   5.5287838  60.8090591
  55.6884804   5.4854732  59.9939766  56.9000511   6.1408606  60.6213112
  57.2765045  45.4469604  10.0575857  57.8556404  45.9015007   9.4458494
  57.7627907  44.6618767  10.3093872  24.9893036  58.8296547  10.7556515
  24.5671864  58.4900513   9.9665260  25.5681953  59.5227394  10.4382448
  14.6635456  66.5584412   8.1845570  13.7079372  66.5287857   8.2310772
  14.8500843  66.9173889   7.3170333  70.6812515   5.6805801   9.6336145
  70.8808670   6.5585971   9.9583797  71.1332169   5.0927987  10.2389812
   7.6928949  65.8792953  84.4632339   8.4323015  65.6316605  85.0183792
   7.1488037  65.0927429  84.4240875  14.8888597  48.0766258  22.5937691
  15.1505594  47.4405212  23.2594395  15.1961613  47.7003708  21.7690086
  49.7146797  70.7718124  80.4433136  49.3999939  69.9075928  80.7085190
  49.0886612  71.0613785  79.7796249  55.8416557  19.0029297  47.0786247
  55.7019386  18.3866272  46.3596802  56.7304039  19.3315468  46.9430962
  65.1995392  62.6834717  24.9492397  66.0136566  62.4296417  25.3839989
  64.5143509  62.2298622  25.4401436  58.1907043  49.2783661  42.4202423
  57.3782883  49.0496712  41.9686737  58.5165329  48.4462242  42.7631760
  26.3445721  45.5810204  66.0504456  25.4294147  45.7199020  66.2942352
  26.3736191  45.7685165  65.1122437  59.0895233  19.7021332  58.3821030
  58.6288109  19.3143597  59.1261482  58.3943520  19.9488258  57.7720947
  61.1258812  44.5633011  76.4088974  60.9535904  45.3918800  76.8561096
  60.8977661  43.8920517  77.0520325  57.3932495  16.1460190  34.7409286
  57.7093048  15.3326149  34.3475914  58.1889381  16.6241570  34.9743729
  52.7534904  21.9730282  57.8909760  53.4196854  21.2862625  57.8632660
  51.9672470  21.5312233  58.2116966  67.8660583  64.3014984  70.9424438
  68.6308289  63.9029846  70.5270538  68.1415100  64.4652328  71.8444061
  35.8087158  45.0486755  49.9172440  35.0979309  44.4470901  50.1388512
  35.8258934  45.0569344  48.9602318  78.8986130  61.0324135  65.0409012
  78.3673477  60.6821480  64.3258514  78.7202301  61.9728165  65.0334091
  73.5244751  57.1996040  46.1823349  72.8374405  57.7531433  45.8110962
  74.1294250  57.0491257  45.4559593  82.0128403  62.9102669  42.5932045
  82.6239090  62.5279732  41.9633865  81.1497726  62.6257744  42.2925224
  59.0869522   1.5791253  30.4291935  59.6769180   1.8350767  31.1381779
  58.2690735   2.0380650  30.6207256  37.3277817  24.8701839  82.0929565
  36.7558289  24.1428776  82.3381653  36.8846436  25.2841930  81.3523712
  67.9458084  33.8522911  33.0918503  67.6180420  33.5688057  33.9453354
  68.2438278  33.0463943  32.6700020  16.9084797  41.2949066  10.1266251
  17.2637463  40.8365784   9.3650799  17.1902885  42.2025833  10.0128613
   7.1058917  49.4278297  21.1090240   6.1529164  49.5174484  21.1028481
   7.2643700  48.5840263  21.5322342  52.3322601  54.2547073  64.3620987
  52.7536011  53.7745056  65.0749130  52.9651566  54.2225647  63.6447144
   7.0543780  29.2913532  65.2189865   7.9540167  29.3309517  65.5435104
   6.6400366  28.6070900  65.7446671  14.7238483  40.6714668   0.6226520
  14.1324291  39.9317474   0.4838359  15.5999603  40.3009338   0.5160527
  50.4402847   9.8239079  68.1658707  50.6425247   9.3773670  68.9880219
  51.1273575  10.4843760  68.0767365  64.1244431  48.6674271  29.0143433
  65.0729141  48.7463493  28.9122791  63.9925880  48.5662422  29.9570026
   3.2807639   2.4922745  11.7016830   3.5211077   3.0070643  12.4720459
   2.7006273   1.8105301  12.0406494  61.1351547  67.0253143  43.6097603
  61.6427879  67.8308258  43.5112686  60.2224503  67.3111420  43.5709305
  64.1431427  56.2655945  64.0269318  63.8628845  56.5445137  64.8986511
  64.9920425  55.8473358  64.1706848  15.9606333  46.9498558  20.3518238
  15.2412720  46.8673553  19.7257690  16.2669735  46.0527191  20.4842472
  86.9696121  24.0275040  35.6431885  87.1419601  23.1553230  35.2884712
  86.0218964  24.0491428  35.7758293  44.8542976  11.7853212  55.6638756
  44.5999451  11.8093443  56.5863495  44.0340424  11.9079399  55.1859856
   6.2559247  54.4011078  15.8957186   6.1928735  54.3425331  14.9423952
   6.1319799  53.5019417  16.1996498  34.9277916  43.9299011   5.2302794
  34.3773232  43.1762886   5.4430890  35.5240021  43.6077271   4.5542846
  64.2382126  47.2070007  37.3852501  64.6216583  46.3770370  37.6687241
  64.8277054  47.8750763  37.7351036  44.1309853  66.6326065  61.9895096
  43.1910286  66.6060562  62.1684151  44.5391617  66.6499863  62.8551445
  34.7323608  66.6408310  34.3695755  33.9371567  66.1843262  34.0948296
  35.4459419  66.1302872  33.9869804  85.7794037  63.9652863  21.2398815
  86.1933517  64.4656143  20.5366402  86.4452515  63.9206963  21.9260979
  43.1720543  58.8236008  85.7501602  44.0104103  58.9871063  85.3181229
  43.3972244  58.3013878  86.5201111  56.8095284  20.1498642  52.5838165
  55.9987297  20.5467606  52.9021111  56.5606918  19.2577324  52.3421211
  14.2929754  48.3084106  41.3594551  15.1092777  47.9677849  41.7253189
  14.5585880  49.0790825  40.8577118  81.1971817  59.2248955  12.5187941
  80.5915375  58.7499390  11.9497242  81.8508530  58.5725098  12.7704678
  57.7693405   3.2440135  47.0617905  56.8504562   3.5067697  47.1150932
  57.7493401   2.2890182  47.1235580  34.1990509  35.3038254  18.9024677
  33.6997337  35.6379509  19.6476345  34.6540184  36.0712204  18.5555706
   7.2234969  43.6071320  51.9689751   6.3784261  43.3830299  52.3586769
   7.4547572  44.4472008  52.3652573  20.2166805  59.9353027  63.7177429
  19.6675243  60.1423721  64.4739075  20.2621613  60.7537422  63.2234573
  43.6232719  47.5423813  84.9554443  42.9563599  48.0733223  84.5200577
  44.0552902  47.0697823  84.2439346   8.2264004  19.9107094  18.3349838
   7.9030871  19.3091450  19.0056705   7.9405756  20.7750702  18.6306458
  58.0722351  10.1778421  27.6408939  58.5265465  10.8619833  27.1491814
  57.3506813   9.9121523  27.0708046  40.4401436  64.2497330  50.5841713
  39.6832619  63.7849579  50.2273178  40.6968842  63.7366371  51.3503571
  17.9474888  57.9062080  70.0354080  17.8445683  58.6798897  69.4812775
  17.4512978  57.2220345  69.5860443  62.9678421  60.0319519  31.3004723
  62.0863495  60.3650665  31.1324463  63.1119690  59.3794250  30.6151485
  74.5473099  53.1441917  24.7807903  74.5946045  53.6625099  25.5841198
  75.0124817  52.3343430  24.9905453   6.4570003  17.4449673  76.3378220
   6.7771797  16.5830345  76.6038895   5.9085960  17.7325516  77.0677414
  80.0803986   2.2379839  58.0221519  79.9041138   1.3465576  58.3230095
  80.5561218   2.6453853  58.7459946  84.3747177  40.5217361  71.3370590
  84.2753677  39.6662407  70.9193344  83.6009750  40.6076279  71.8939972
  38.8769188  66.0917358  36.2076607  39.4080467  66.5942688  35.5899277
  38.4198952  66.7547073  36.7251816  41.6740417  64.4327087  65.3071594
  41.6731911  65.0907364  66.0022964  40.9238815  64.6625748  64.7588425
  11.2616262  27.7684002   5.3768821  11.8389511  27.0792122   5.0483279
  11.8341951  28.3333035   5.8958049  84.7224121  70.7583542  40.1823273
  85.6781006  70.7072372  40.1659927  84.4366302  70.1041718  39.5446739
  52.2109795  39.5129738  15.9702549  52.3648529  38.9419556  16.7229118
  51.2616844  39.6343155  15.9517841  37.3436623  25.7303257  19.5869770
  37.0340538  26.4046955  20.1916275  38.2784233  25.9099693  19.4860954
  65.6721420  17.6901817  20.9361153  65.4938507  16.9978619  20.2996101
  64.8384399  17.8206024  21.3879681  47.5855446  64.3749619  45.3240433
  48.1481819  63.7938995  45.8359375  46.8325119  64.5401688  45.8913918
  41.2433281  38.7956657  61.8778992  41.1901016  39.5573387  61.3006134
  42.0630112  38.9154396  62.3574867  76.3182297   6.6146388  76.0545120
  76.0347900   6.6904130  75.1433868  76.4266434   7.5193753  76.3476486
  72.7471390   5.2679420  35.4421082  73.2462234   4.9750638  36.2045860
  73.3786163   5.2544088  34.7228889  83.1082687  40.9306183   1.2176650
  83.3743362  40.2091179   0.6476805  82.6005402  40.5119896   1.9127866
  44.5144844  55.1306725  43.0394936  44.7259254  55.0225677  43.9667702
  43.5616646  55.2199898  43.0199318  68.5921860  13.0992136  68.4449997
  68.1620789  12.3575583  68.0193481  69.3297119  12.7106333  68.9154129
  27.6713657  53.7897606   8.8353939  26.8397255  53.6687202   8.3771849
  27.4235668  54.1259613   9.6966715  24.9505310   5.3203235  16.4630909
  24.4665699   5.3635774  15.6383839  25.6725750   5.9384222  16.3497849
  61.3896179  23.2881660  21.1852646  61.0858841  22.7757168  20.4360180
  60.8622398  24.0865479  21.1589909  61.3131332  16.4340553  44.2511101
  61.3588142  16.0474243  43.3766594  61.4509277  17.3701935  44.1065788
  79.7668457  51.9085083  79.6472778  78.9469681  52.3803101  79.7936478
  80.4443207  52.4959793  79.9821625  37.1651077  61.7211914   1.9102318
  36.6577988  62.4553604   1.5640090  36.5149879  61.1573296   2.3293216
   5.6800809  55.5397453  75.2764893   6.5403876  55.8409576  75.5686798
   5.8545446  55.0732727  74.4590530  78.1996155  26.3187084  11.7919493
  77.5733719  26.9663906  12.1152992  77.9355316  26.1620064  10.8853436
  79.9722672  42.6558609  52.7966423  79.0918198  42.7210617  52.4267960
  80.2044525  43.5565720  53.0225754   8.5842009  47.3488998  64.5046616
   8.8626213  46.5754585  64.0142517   9.0855865  47.3094101  65.3190842
  70.0074310   9.1526737  53.1263962  70.6581955   9.0179653  52.4374886
  69.4696274   8.3611031  53.1059456  67.0476227  67.6161728   5.7353892
  67.5291443  67.3791199   6.5279598  66.4200439  68.2781906   6.0254178
  69.5399323  13.6344233  32.3852158  69.6684341  14.5225077  32.7184181
  69.7897339  13.0666142  33.1142006   1.8403187  23.4212666  51.0585022
   2.6710684  23.0794106  50.7280159   1.4514629  22.6871910  51.5340614
  31.9534931  51.8357353  85.4359055  32.1055107  51.0538292  84.9051056
  31.6593990  51.4975891  86.2817154  36.9109497  62.5804062   8.8283529
  36.1232414  62.2204399   8.4207134  37.4248695  62.9215660   8.0964184
  70.6703262  11.8924160  69.7626114  70.8237610  11.8317451  70.7054825
  70.7773514  10.9960365  69.4443588  84.1224899  25.4812279  28.6729946
  84.0162277  25.7084084  27.7492371  84.9249573  25.9299965  28.9392300
  54.4190216  38.5574150  83.6999817  55.2494011  38.5922012  83.2251205
  54.5488853  39.1349754  84.4521713   2.5632579  51.9843559  42.5295181
   3.1404052  52.0065422  43.2928276   1.7890228  51.5074501  42.8284416
   3.8514442  62.1933746  22.8227997   4.3605504  62.7663383  22.2494259
   4.2109923  62.3479309  23.6963387  56.0500298  10.0358248  51.1390305
  55.2240944  10.4089489  50.8310699  55.8048897   9.1919184  51.5184517
  13.0174103  62.5641060   6.8057098  13.8987989  62.8730125   7.0153799
  13.0174818  61.6435890   7.0681710   8.9904003  10.8253040  13.4625845
   8.8652649  10.6157904  14.3881531   8.5577374  11.6714039  13.3479166
  13.6814518  51.6846085  54.6440468  13.1928272  50.9286919  54.9697266
  13.1431808  52.4390221  54.8835449  56.4918861  41.0135689  56.5378799
  56.5021782  40.9370308  57.4919586  55.7134972  40.5268173  56.2669296
  33.2660789  69.6848373  37.7923698  32.9597054  70.4324265  38.3056717
  33.2174721  69.9820862  36.8837929  45.4935112  23.2810669   6.7889652
  44.5559387  23.1106453   6.6986794  45.5468369  24.2064972   7.0276389
  60.2689514  54.1255417  60.8033905  60.3441811  53.3861351  61.4065895
  60.4285469  54.8962517  61.3481560  81.5157623  28.4474335  53.4027176
  80.8029861  28.9740086  53.7645226  81.8603745  27.9630413  54.1529465
   4.1002760  42.9437141  12.7931156   4.1505570  43.8823853  12.6125660
   4.9817038  42.6174049  12.6119003  81.5867310  31.9394264  36.8522301
  80.8024826  32.1840820  36.3609848  81.4954529  30.9974232  36.9955139
   1.9873796  60.7741508  83.9223938   1.4879770  60.8188019  83.1070175
   2.6739347  61.4330978  83.8191452   4.5140409  38.9709473  83.2905579
   3.9568331  38.2126770  83.1151276   5.3711181  38.7238159  82.9433136
  23.1690903  47.4356689   5.2906551  23.4768906  47.0947304   6.1304479
  23.9469414  47.4363098   4.7328210  21.1010075  35.2634430  11.9192209
  21.6529465  35.6190186  12.6157560  20.8765736  34.3821373  12.2178221
  17.7406006  36.9186783  70.4722214  17.8504677  37.6275215  71.1060257
  16.9601555  36.4507294  70.7691422  74.7351074  17.1788788  48.3235664
  74.4199142  17.5970802  49.1248131  75.0226212  16.3100243  48.6040306
  77.5883179  29.2896061  78.4544296  77.7910614  28.3550377  78.4131012
  77.8755493  29.5586433  79.3269806  37.3269234  29.8426075  17.5206547
  37.6438675  30.4422035  16.8451824  38.0579033  29.2431812  17.6709576
  80.5475769   1.3591130  12.4963951  79.8776474   1.0177889  13.0887861
  80.6003342   2.2915266  12.7062845  63.7353058  33.8955917  56.1347618
  64.6465988  34.1253967  56.3163185  63.5404167  33.1866112  56.7476234
  26.8873062  37.3606339  13.4091244  26.3205833  38.1215477  13.2823648
  26.7205143  36.8079224  12.6456318   5.5593634  42.4215698  71.1204910
   5.3209085  41.5646782  70.7667847   6.2088089  42.2292099  71.7968369
  41.9403419  62.5967865  84.4356766  42.0088120  61.6470566  84.5334244
  42.6578903  62.8292542  83.8463364  46.5853882  43.6534081  53.7095184
  45.9899635  44.1106377  53.1156807  46.0995407  42.8756485  53.9838905
  45.9005241  48.2966080  15.6598158  46.7363014  47.8797302  15.4502420
  46.0971260  48.8672104  16.4027786  68.7333221  56.5882759  15.6952972
  69.1859131  55.8831177  15.2325306  68.0044022  56.8225555  15.1208286
  51.7913895  12.0112371  61.0624771  51.0885963  12.4774637  60.6097717
  51.8379326  12.4260597  61.9238625  86.3448639  51.8750038  11.0598488
  85.6472855  52.4003944  10.6679478  86.3027649  51.0379028  10.5975456
  31.7846394  58.1827621  15.8420448  31.7447071  58.4902649  14.9364624
  32.4756317  57.5203743  15.8398190  14.7498751   7.0440178  59.1471939
  14.5096216   6.9003563  60.0625458  13.9381971   7.3308635  58.7287064
  21.8143482  58.5722885  79.7519760  22.7678089  58.6518707  79.7234421
  21.5715122  58.9099884  80.6140823  46.2049713   1.5617270  67.8014679
  45.4214287   1.0606242  68.0277252  45.9003410   2.2078972  67.1643600
  30.5811977   4.1403503  73.0178909  29.9044399   4.8134656  73.0896301
  31.1605492   4.4561400  72.3244476  58.8900871  61.7412109  44.6296349
  58.2459717  61.1071014  44.3145943  59.6181755  61.6698570  44.0123596
  27.4165268   5.2254720  12.0349979  26.5834255   5.6963434  12.0563345
  28.0713272   5.9044738  11.8724451  47.0345001  61.4793663  36.5031281
  46.3474617  60.9462013  36.1031952  47.2268562  62.1517334  35.8495598
  11.9437819  63.6300354  24.1056271  12.3446083  64.0881348  23.3669014
  11.0914927  64.0517731  24.2150536  47.2641563  42.3674469  69.6587677
  46.5582848  41.8245544  69.3077087  48.0666428  41.9377441  69.3627853
  83.0204849   7.0531306  64.7972107  82.5973892   6.2347889  65.0571060
  83.9382401   6.9368744  65.0430603  34.1671715   0.7339596   4.0465350
  33.8536491  -0.1702833   4.0632715  33.4450722   1.2446429   4.4126067
  59.0835419  38.4897919  30.7528019  59.9186096  38.3210793  31.1891842
  59.0812531  37.8958321  30.0021763  76.4975128   1.8561985  59.5327034
  76.3507690   2.3718657  58.7397423  75.6186523   1.6667168  59.8612404
  36.9498863  30.7413254   0.5361288  36.9691048  30.2201195  -0.2664956
  37.5926552  30.3229237   1.1088587  49.1162415  36.2143021  56.2969513
  50.0345345  36.1012001  56.0516319  49.0046425  35.6599960  57.0693016
  54.2028046  58.2576065  13.2337341  54.0752907  58.9377251  13.8951063
  54.9313316  58.5756454  12.7005033  41.7383308  67.5995560  38.6889191
  42.4389229  67.0149307  38.9780960  40.9999084  67.3896103  39.2606583
  23.0978031   7.9258003  78.6793289  23.9334965   7.4920459  78.8516846
  23.0631332   8.6402826  79.3153687  32.2963181  65.8009567   7.6271086
  32.5397797  66.5019379   7.0224795  31.6444149  66.1983185   8.2044773
  56.6553154  20.0341797  85.3849640  56.2514458  20.0315228  86.2527847
  56.7097969  20.9602318  85.1489716   5.6796026  19.7037601   6.9027548
   5.5511165  20.3594055   6.2172966   5.4910922  18.8689499   6.4740515
  71.1161194  57.5123100  32.1494713  70.4564514  57.4936447  32.8428154
  70.7113571  58.0217628  31.4474297  64.3809967  29.4812775  73.6613922
  63.8498344  30.2112675  73.9795380  65.1868286  29.8908005  73.3465042
  23.7025757  57.3626213  25.3234215  23.4695148  57.9681664  26.0271473
  23.0141373  57.4798279  24.6687870  75.1125641  37.6815605  16.6308765
  74.5393143  38.0605850  15.9645767  74.7800140  36.7926674  16.7554207
  51.3555832  67.2847672  51.3448601  51.2082214  67.2909470  52.2906265
  51.6525421  68.1720505  51.1429253   2.7396467   3.4915164  83.0106888
   3.2973013   4.2665753  82.9433289   3.2341573   2.8881154  83.5653000
  68.7980194  12.6522961  10.5788202  68.5842056  13.5596142  10.7962742
  69.2519760  12.7081213   9.7379646  33.8071899  57.6109962  65.3269882
  33.4652290  58.4933739  65.4708862  33.2237816  57.2323227  64.6693573
  54.7828026  60.0844574  67.1474075  54.5108490  59.2545891  66.7554932
  55.5935974  59.8758698  67.6114502  76.9079361  42.3512650  18.5839939
  77.3360748  43.0141068  19.1258125  76.0642090  42.2016678  19.0105820
  18.8934059  19.2573872  16.5856686  19.4731922  19.7470398  17.1690388
  19.1123028  18.3393879  16.7456474   5.6097627  40.0515938  32.6479187
   6.3487220  39.5291862  32.3360558   5.8562937  40.3088074  33.5363426
  48.3215256  26.5304394  70.1669922  48.8098106  27.2714386  69.8082047
  48.9273758  25.7919464  70.1053009  16.4472446  70.9395447   6.2492890
  16.4413681  71.5567169   5.5176492  15.6424303  71.1311569   6.7307363
   4.8841867  64.5522995  19.5966835   5.4157686  64.6508484  20.3865814
   4.0015817  64.8033676  19.8690891  72.0294266  10.6982365  51.9163284
  72.6950531  11.0713129  51.3384132  72.3676376   9.8320494  52.1434021
  27.2700844  43.1679840  31.5608349  28.0186176  43.7604446  31.4906902
  26.5172176  43.7022743  31.3079357  47.9888649  64.6638794  83.7141800
  48.2567444  63.9979477  84.3474274  48.8070412  64.9532700  83.3103638
  25.4398098  18.9725819  66.8878860  25.8740196  18.3552532  67.4766159
  25.8727016  18.8436127  66.0439606  45.9112206  52.7513504  53.3157616
  45.1129951  53.1428566  52.9610939  45.7365646  52.6580391  54.2522545
  34.4225769  18.7899017  80.4117203  33.8046684  19.0314331  81.1017075
  34.5163841  19.5839558  79.8854980  68.1299057  12.3794909  59.4168816
  68.7710571  12.9781857  59.7999229  67.7591248  11.9139795  60.1665840
  80.5571518  13.4448185   8.3130779  80.2577438  13.2199354   7.4321623
  79.9889297  12.9403868   8.8952341  48.3985138  51.5991325  53.9869881
  47.6797104  52.0709877  53.5663872  49.1751251  51.8508759  53.4872551
  48.6759338  26.8211994  72.8678207  48.6369514  26.3832417  72.0175858
  49.3575897  27.4851551  72.7642136  10.8795376  29.7305431  54.0458908
  11.4907990  30.3942947  54.3653069  10.4225569  29.4282780  54.8307686
  57.9972649  38.4969215  47.7783737  58.0241852  38.5716209  48.7322731
  57.6441307  39.3358917  47.4823036  23.9011440  65.0362625  29.5814667
  23.0589161  65.0938034  29.1302776  24.5487423  65.2401733  28.9067307
  44.0931282  58.4313850  43.6433601  43.1643944  58.2003632  43.6611862
  44.5413132  57.6462898  43.9579735  68.5219116  49.5339661  10.4855413
  68.4814224  49.5372391   9.5292034  69.3968277  49.2021027  10.6870852
  41.1981697  28.2631664  78.3269958  41.4861336  28.0472374  77.4400406
  40.9030228  27.4292583  78.6926651  26.8261337  43.9900093  11.4008369
  25.8921223  44.1792984  11.3112679  27.2598381  44.6838264  10.9040976
   0.8647700  43.2106972   1.3958122   0.9894783  42.5441628   0.7202311
   0.8599152  44.0393524   0.9167093  18.5282631  66.4971771  57.4939499
  17.9369621  66.1630859  58.1684723  19.3496819  66.0285950  57.6420441
   3.2197886   8.7479296  69.9667053   3.7243409   9.5373907  69.7707214
   3.8722780   8.1148863  70.2662811  25.9982758   1.3548479  74.3567200
  26.8149681   1.6904014  74.7263794  25.3173847   1.9097503  74.7371216
  81.8241501  17.9234619  69.4902496  82.5268936  17.6857491  68.8853683
  82.2690277  18.0869961  70.3218536   1.7855781  55.8359451  21.6717777
   1.1034187  56.0542870  22.3067703   1.3206151  55.3874626  20.9654446
  77.0622864  64.1952820  71.3322906  76.9306641  65.0813980  70.9950943
  77.1107941  63.6460228  70.5498581  52.0472412  27.8531590   3.0186059
  52.4494209  27.5468006   2.2058177  51.9108276  27.0575657   3.5330524
  30.9252701  41.3679085  26.9822483  30.2496567  42.0230865  26.8075638
  30.6943550  41.0082207  27.8387146   6.2610297  42.1815338  10.1178913
   6.0405917  43.1041679  10.2458887   6.2916093  41.8176079  11.0026817
  42.6550140  64.4884567  55.2737122  41.9172363  63.9280853  55.5143318
  43.3978577  63.8889999  55.2025261  55.8085442  41.7812309  80.8779602
  55.9311409  42.7272530  80.9569626  56.6693687  41.4485474  80.6239243
  83.8586426  28.0312252  21.6537952  83.4816208  28.0476685  22.5334625
  83.7171249  27.1348591  21.3492756  36.0619392  55.0475273  46.4841843
  36.8739166  54.6853065  46.1296120  35.9695168  54.6333847  47.3421936
  56.5090446  58.3359070  52.9678421  55.8299751  58.3416710  53.6424255
  57.1910858  57.7636986  53.3194504   1.1975710  36.3867722  69.7919159
   2.1449678  36.4497490  69.6706543   0.8347269  37.0277824  69.1806183
  61.6572037   2.4692006  86.2306747  61.3735352   2.5319357  87.1427231
  61.1297226   1.7595624  85.8640594  63.3501358  33.8270149  23.5971050
  63.7638702  33.8596535  24.4596539  62.7578278  34.5788765  23.5869675
  77.5890198  23.8254833  52.6507874  77.9767075  24.5511112  52.1615105
  77.8774948  23.0409393  52.1844139  50.7808037  62.5174446  73.8466339
  50.2143021  63.1236572  73.3693237  50.2350883  61.7448616  73.9934082
  66.7228165   1.9206889   5.4433055  67.6140823   1.6203618   5.2653089
  66.3302155   1.2146511   5.9567289  73.3613434  55.1812592  89.0711365
  74.0919876  55.4049530  88.4946442  73.1342697  56.0058250  89.5009842
  15.4180870  33.0715523  71.2511139  15.0307083  32.9573784  72.1189499
  15.9781504  33.8428764  71.3384171  38.2464142  64.3667145  11.4059095
  37.8782120  65.2307358  11.5906219  37.5639915  63.9171028  10.9075289
  13.5748644  46.0035706  78.5499191  12.9180908  46.2287025  77.8909760
  13.1941166  45.2649384  79.0249786  41.3864937  60.5901527  19.1932354
  41.1933861  60.1325493  18.3749790  40.5332985  60.8895111  19.5073566
  27.7168198  24.0588799   4.0479002  26.8835182  23.9463463   4.5052581
  28.1385574  24.7923756   4.4955082  13.7641945  67.9459763  31.7280178
  14.0416899  67.4496460  30.9580269  14.5816717  68.2083969  32.1512184
  13.4850559  38.0811806  21.5101128  13.7113113  37.2287025  21.8820286
  12.9179401  38.4859428  22.1664524  63.3197327  45.5009689  87.5133209
  62.7553177  45.5929604  86.7457275  63.8818970  44.7536507  87.3090668
  16.9315720  17.5816402  12.8919411  16.0620003  17.1978970  12.7787266
  17.5177402  16.9899921  12.4201479  14.4771471  19.6251030  20.3060207
  15.1754484  20.0150318  19.7801285  14.7072935  18.6975403  20.3598118
  22.5417957  64.4698639  35.2775459  22.2403469  64.3806305  34.3734436
  23.3881149  64.0229492  35.2930489   0.7773997  44.2983856  68.2483292
   0.6718746  45.2449989  68.3432999   0.5259918  43.9426575  69.1006699
  19.2724037  56.8853607  74.9601135  19.7065887  57.2572899  75.7278290
  19.6489582  56.0096855  74.8727570  11.2252493  57.5761070  83.4288559
  11.1088238  57.4517746  84.3707809  10.6782436  58.3326988  83.2177200
  47.6711769  49.7777634  42.6688538  48.1346550  50.6151237  42.6846924
  47.1604958  49.7713242  43.4784164   4.3233204  14.8640156  48.8973122
   4.7724404  15.5314112  48.3785591   4.5827456  15.0477114  49.8001900
  35.0157776  28.4507790  17.6623592  35.1753578  27.5299969  17.4551640
  35.8677216  28.8725777  17.5505199  33.8344498   0.8817651  18.3392773
  33.6892281   0.2949147  19.0814037  32.9561729   1.0754049  18.0116138
  53.5705070  24.3103027  74.1768188  54.0434685  25.0520935  74.5540237
  52.9184799  24.7097607  73.6010284  74.1708145  42.4294891  72.4770889
  74.6751404  43.0305252  71.9287796  74.5306396  42.5480347  73.3561249
  57.2246208  17.1152363  74.1304626  56.8870888  17.0339928  73.2384415
  56.7200050  17.8330307  74.5130463  35.3282623  66.2695389  51.8011475
  35.9458809  66.1918182  51.0740089  34.5411415  66.6461182  51.4076195
  82.3217621  67.8431931  36.7996559  82.9064865  67.2865753  36.2853546
  81.7029800  68.1959152  36.1601753  56.0428734  49.6822205  62.5073547
  56.2555275  49.9123955  61.6029053  55.1261749  49.4085617  62.4756584
  33.1777954  70.0038147  49.3087616  33.4533310  69.8117981  48.4124107
  32.5821991  70.7481003  49.2220078  31.0791264  58.0871468   9.7094193
  30.1990280  58.4123764   9.5199938  30.9455338  57.4024696  10.3648605
  26.9863033  28.5069370  77.7274704  26.5836163  28.5471306  76.8600235
  26.4796581  29.1239262  78.2555466  50.5464516  42.4467392   1.2308843
  51.1469536  41.9292412   1.7673775  50.9544373  43.3111839   1.1807287
   9.9918823  32.0070953  66.0291672  10.1269760  32.6531258  65.3358917
   9.9357653  32.5254211  66.8319321  46.5301666  44.9373627  69.3765182
  46.8784790  44.0900345  69.6539078  45.5931473  44.7833290  69.2560959
  61.8987885  38.4182968  77.2812958  61.8803062  39.1335716  76.6454697
  61.1551247  38.5916443  77.8584900  62.3933220  19.1822166  76.3884354
  61.5905151  18.7067127  76.6020508  62.1687851  19.6944942  75.6116562
  76.9923401  62.6840439  54.6393127  77.8045578  62.9373817  55.0778923
  76.3819504  63.3944969  54.8365822   9.5050459  70.2577972  46.3164864
   8.6427526  69.8431854  46.3443375   9.3320351  71.1824570  46.4934387
   7.4457736  51.6470985  34.2118721   8.2133350  51.2507973  33.7995300
   7.5526786  52.5867157  34.0638046  23.1684589  14.1491642  80.2388229
  23.6485519  14.4211531  79.4566650  22.2839756  13.9624357  79.9240952
   1.3220065  20.6007671  64.3285599   1.7540352  19.7542706  64.4426880
   1.8656613  21.0630569  63.6906242  63.4187393  26.7236366  20.5009804
  63.6705780  27.2788010  21.2389526  63.5082779  27.2894402  19.7341175
  81.8853149  31.3136921  58.3266220  82.5138016  31.7607975  58.8934860
  82.4206924  30.9264259  57.6340637  69.4709702  27.0655251  12.9782515
  70.2514496  26.7870579  13.4573526  69.3349533  26.3808231  12.3233347
   2.9090450  39.1038971  36.0364532   2.1182339  39.2610245  36.5523643
   2.6973159  39.4394073  35.1653404  78.8789597  68.5768738  46.9622993
  79.2771225  68.5239105  46.0934563  78.7649460  69.5146255  47.1167564
   0.7633401  71.0864105  64.6800003   0.7400531  70.5247192  63.9052773
   1.6931134  71.2691650  64.8154755  13.4069395  64.2477417  30.8009930
  13.7864513  63.4023895  31.0409622  12.4995413  64.1968613  31.1014462
  20.1053371  37.4933510  82.0268402  20.8785172  38.0570526  82.0010605
  20.2449532  36.9299583  82.7879791  36.8113518  63.2552528  16.8885078
  36.9590607  64.1412201  16.5576496  37.0611305  62.6837006  16.1624413
  80.9829330  19.7132950  78.4755402  81.6983871  19.1023674  78.6519394
  80.5763855  19.3813248  77.6750717   5.3383312  69.8855896  12.2881870
   5.3585935  69.8718948  13.2450743   5.3868699  70.8141403  12.0608578
  26.0363636  70.4635773  27.4594383  25.8988647  71.3211365  27.8618240
  25.6652088  70.5487900  26.5812492  73.9673538  13.0663681  80.5061417
  73.1086426  13.2420435  80.1214447  74.2569656  13.9143019  80.8428345
  71.1095657   7.6637111  61.5930023  71.1171265   8.6124973  61.4665947
  70.5815506   7.3296714  60.8678513  40.6922340  69.3342667  60.9283371
  40.5499268  69.8851471  61.6980820  40.0966606  68.5947952  61.0496025
  54.8711624  42.9512329  58.6813965  54.6295509  43.6684837  58.0953865
  54.0360107  42.5614052  58.9398193   6.1888618  65.8137054  24.4328747
   6.2292843  65.6854782  25.3805866   6.5379343  66.6942902  24.2952175
  26.4196720  65.7967453  35.3325882  27.2608738  66.2447662  35.2437782
  25.7924538  66.3772278  34.9014626  23.2007236   8.9022245  14.9733429
  23.9953156   8.9600172  14.4427605  22.5584564   8.4862623  14.3982773
  67.4449768  36.0838814  34.7635384  67.6476517  35.3049545  34.2454414
  67.3716583  35.7616158  35.6618729  28.4151878  54.0485268  60.5717964
  28.9037437  53.6461220  59.8537292  28.4926414  54.9898262  60.4162636
  11.7511730  69.8145523   7.4883113  11.6069441  70.0998001   6.5860567
  11.5731840  68.8741608   7.4735556  36.2661285  53.5840263  42.3989792
  36.1879654  52.8156281  41.8335724  36.6950226  54.2416573  41.8514328
  55.8909416  33.1698074  59.0202332  55.5970917  33.7776909  59.6987343
  55.4080849  33.4335289  58.2369499  85.5673370  20.5541821  31.5403557
  85.9106903  19.7253323  31.2066669  86.1535568  21.2190666  31.1790943
   1.3439655  40.2098846  41.4653893   2.1116996  40.4914780  41.9629059
   0.8262435  41.0070114  41.3523216  57.8416481  43.4718475  13.9368095
  57.7988510  44.3958626  13.6906509  56.9322891  43.1742897  13.9093094
  64.6161118  62.3988075  17.7021255  65.2401810  61.9970016  17.0977116
  63.7579842  62.2003288  17.3273468  68.4361877  24.2005005  68.9969940
  68.2548523  24.8048916  69.7167587  68.6292038  24.7679024  68.2506485
  70.1109314  26.6498814  64.2465210  69.9123383  26.3180733  63.3709068
  70.0219879  27.5997467  64.1685715  31.0901985  12.4028769   3.8478167
  31.2814293  12.6154852   4.7613049  31.1241817  13.2448483   3.3937664
  59.2102509  69.5970612  86.1501312  59.9194832  69.1467209  85.6914215
  58.5450363  68.9219666  86.2841797  73.3751297   9.5327902  64.3805618
  72.4998398   9.3392801  64.0449295  73.2425842  10.2578535  64.9912491
  45.1324043   0.4051700   8.4759026  45.4112816   0.4117557   7.5602527
  45.8518829   0.8238646   8.9484253  85.0756073  15.1695538  74.0555878
  84.9499283  14.5274858  74.7542877  86.0211945  15.3164272  74.0325241
  60.9166374  58.2443466  44.0338058  61.5412865  58.7979393  44.5024033
  60.3409042  58.8617592  43.5826263  62.7018394  11.6485071  74.2183151
  62.2069969  10.9177256  74.5888824  63.5895424  11.5329857  74.5572433
   4.6946378  56.9080925  86.3129120   5.2735772  56.9587326  87.0735016
   5.2874718  56.8857460  85.5617294  63.0309906  36.6311340  15.4920635
  63.6649246  36.0765991  15.9468708  63.2274132  36.5074806  14.5634298
   4.3239226  25.8855286  17.1148434   4.8268504  25.3618279  17.7385674
   3.8923135  26.5493660  17.6526775  64.4985962  61.2107620  47.7096367
  64.8696747  60.4882965  47.2031097  64.7629776  61.9978294  47.2333374
  79.8069611  22.4148521  68.1430893  80.4430389  21.7469940  68.3992310
  79.1822510  22.4411125  68.8678589  80.2153168  29.5029526  37.8262672
  80.4759750  29.7065372  38.7245102  79.5319519  28.8392448  37.9197655
   4.8760214  47.8151436  81.5519409   4.4822412  46.9448929  81.6138840
   4.8218107  48.1663780  82.4407120  61.5913849  11.8737116  45.7106400
  61.4429665  12.8051224  45.8739738  61.4694061  11.7736921  44.7665291
   3.6900313  29.7688198  86.8975220   3.8321009  30.6357250  87.2776871
   4.5173883  29.3079014  87.0363312  75.0257263  18.4286499  31.3592510
  75.1439362  17.6691704  31.9297314  74.1013489  18.4011154  31.1122570
  75.2237625  41.5829010  25.1808243  74.4243774  41.9642410  25.5438690
  74.9468842  41.1888466  24.3536053  50.3788261  32.6381798  12.9031982
  50.0757332  32.4797249  12.0091858  49.6384888  32.3864441  13.4552498
  32.0896530  47.8887901  28.3367481  31.2757435  47.5697784  27.9468594
  32.2615814  47.2853470  29.0596085  83.3560486  42.7890282  74.0061874
  83.4207230  42.2507133  74.7950211  84.2119827  42.7026939  73.5864716
  84.5098801   4.1940122   3.3140664  84.2277145   4.0616107   2.4090340
  85.4641647   4.2475152   3.2620342  42.1525497  44.8814659  39.4970436
  41.7682648  44.9401474  40.3717499  42.6249084  44.0489349  39.4983177
  32.8175812   6.9464626  16.5025654  32.1004944   6.7983918  17.1190796
  33.5198860   7.3175488  17.0366955   3.0660088  14.9982328  59.9324379
   3.8000889  15.3921251  60.4038277   3.3133578  15.0594120  59.0097733
  57.7960281   4.5325799  12.9487219  57.8893394   4.9869080  12.1113977
  58.6318398   4.6750498  13.3929672  49.5441132  59.1309052  88.8195572
  49.2607193  59.6986465  88.1029053  50.4792328  58.9979095  88.6643143
  15.4469137  55.7528877   4.6060905  14.8121090  55.9991951   3.9333444
  15.8316555  54.9372635   4.2852130  41.1365929  64.0256042  11.6222458
  40.5876617  64.8096313  11.6078949  40.5155182  63.2978210  11.5935564
  17.8045177  25.5599289   9.6744280  17.2358532  26.1689262   9.2032843
  17.3534374  25.4042053  10.5041924  78.6849442  34.2745285  59.9838142
  79.0164108  33.8660889  59.1841011  79.1633072  35.1012497  60.0465279
  62.0307312   7.0423160  24.2810230  62.8282776   7.2310467  23.7865276
  61.3515396   7.5576954  23.8459167  76.3193893  53.2709045  31.2203064
  77.1372986  53.0474930  30.7760620  76.1768799  52.5517044  31.8356705
   3.7724483   0.5078770  71.7444305   3.1349893  -0.2059353  71.7631302
   3.2423353   1.3002068  71.6582642  49.7968330  57.4287033  69.0048218
  50.3776321  57.2391853  68.2679520  49.8756180  58.3737335  69.1349945
  67.7043457  31.6314735  65.2805634  67.6596375  32.2206764  64.5275192
  67.3925018  30.7907276  64.9457016  55.0145721  59.5588226  20.0146770
  54.8880272  59.4234695  20.9537716  55.8788223  59.9644241  19.9454689
   6.6954541  64.5545197  35.2155113   6.4735079  63.7316170  34.7798424
   7.4877858  64.8550644  34.7704124  17.4352779   7.6690383  39.8406487
  16.8679199   7.1057558  39.3142929  17.6129570   7.1587653  40.6307640
  74.6979218  10.1789742  80.3198853  74.4676208  11.0936928  80.4826279
  74.5051956   9.7330761  81.1446609  70.4044037  45.7602119  32.2546959
  70.4691772  44.8243103  32.0646248  69.6473923  45.8347778  32.8357391
   5.6341224  48.8611794  86.7550354   6.5579176  48.6971245  86.5655060
   5.5674267  48.7835770  87.7067566  63.3474579  52.9713135   7.1444283
  63.6767883  52.8021545   8.0271273  62.4455376  53.2631454   7.2771316
  13.6040363  55.9021301  73.8243179  13.5130386  55.0104408  73.4883881
  14.4808969  56.1724319  73.5517654  63.7981110  12.8426256  15.4166718
  63.7639084  12.0228901  15.9097195  64.6648788  13.2010336  15.6077013
  12.1381111  43.3037415  28.5628605  11.5046902  43.9549026  28.2611980
  12.9883671  43.6583443  28.3029537  17.9689522  49.2344589  11.5090923
  17.4940796  49.0224380  10.7054930  17.5389271  50.0227966  11.8405037
  86.7528839  60.5921135  37.8136711  86.1064301  61.2970924  37.7771111
  87.1239700  60.5614548  36.9318619  62.2093849   1.0165768   5.5549402
  62.5300369   0.3207481   6.1287322  61.2562447   0.9666238   5.6274509
   5.3009396  42.2642708  61.5784531   5.0477076  41.3438339  61.5084381
   4.7091584  42.6259804  62.2381477  80.9035492  17.5168037  65.9498596
  81.4885712  17.3893967  65.2030411  81.4878387  17.5631733  66.7066269
  38.6442833  43.3491592  76.1079636  38.5289459  42.4603920  75.7717743
  38.4790306  43.9140854  75.3531189   1.4300460  27.4455738  46.6358376
   2.2221889  26.9347458  46.8025551   1.0453037  27.5804081  47.5018768
   8.7834053  68.5868912  53.5062294   9.4983206  68.0691528  53.8764648
   8.4534731  68.0558167  52.7814293  54.5573082   0.8587055  47.3987579
  55.0631981   0.6805794  46.6059303  54.1804352   1.7263532  47.2525139
  39.4320030  20.5274887  76.3437500  40.3134689  20.7954044  76.0840073
  39.3642082  20.7859383  77.2629013   8.0856905  55.0088577  44.0288200
   7.4445510  55.0153046  43.3180962   8.0248919  54.1279144  44.3982506
   6.0768914  27.8559151  59.9954491   5.2672811  28.1988544  60.3738098
   6.7012095  28.5775051  60.0713921  61.4630585  43.3074570  28.0678101
  60.9909859  43.4115486  27.2416496  61.7266846  44.1961060  28.3066387
  28.5440826  69.2813034  26.2308044  27.8841133  69.8652954  26.6044693
  28.9280415  69.7828293  25.5115852  65.1321259  25.6439228  51.5748711
  65.9732361  26.0317516  51.3333054  65.3578644  24.9468670  52.1908188
  50.4267578  66.6804199  35.8587265  50.6376534  67.3915710  36.4637299
  50.7217255  66.9969559  35.0048943  16.6755199  70.5234451  75.1454544
  15.7436314  70.4997101  75.3628235  16.8683453  71.4524384  75.0188446
  24.7289295  65.1516571  87.5466156  25.5709801  65.4825745  87.2340851
  24.1266785  65.3034668  86.8182755  71.8426971  22.9585152  39.1296387
  72.3523178  23.0047207  39.9385796  71.5604172  23.8595619  38.9725990
  15.5982218  55.1797562  19.9357204  15.8701305  54.5697975  20.6214657
  15.3818521  55.9859123  20.4042568  16.4160881  29.6424904  16.4373188
  16.4416618  30.4958401  16.0044537  16.6209545  29.0157299  15.7434664
  54.5016518  16.9596958  48.6691170  55.3964500  17.2382832  48.4742966
  53.9921532  17.7700176  48.6645393   9.1058760  13.3113403   9.5141735
   9.6275730  12.5415411   9.2872992   8.2423468  12.9599819   9.7311907
  48.1212997  55.5666008  24.5786133  48.7388420  54.8778419  24.3326855
  48.6736908  56.2831841  24.8910294  69.1352081  68.2047424  65.6715012
  69.2765656  69.1493073  65.6078644  68.1898880  68.1114426  65.7894287
  76.2783279  10.6664362  26.0340042  77.0544128  11.1363010  25.7288055
  75.6045227  10.8701315  25.3853703  83.3744888   0.6925920  30.3709583
  83.2668457   0.5562403  29.4296532  84.3098450   0.5616391  30.5265179
  49.7217064  30.9025631  35.7151985  48.9584007  30.5768242  35.2382431
  49.3567238  31.4805183  36.3852654  83.4161377  24.5918598  48.6741676
  84.1753006  24.9459801  48.2110214  83.3931046  25.0745106  49.5004539
  83.4269257  11.4542894  29.0830631  82.8177719  10.7622242  28.8257580
  83.3902130  12.0851698  28.3641224  32.2997665  64.7412262  35.2103462
  32.1784286  64.4342957  34.3118477  31.4150410  64.7722321  35.5743942
  36.9513474  27.4655991  22.0355797  36.4589882  28.2818661  22.1223068
  36.7813148  26.9954453  22.8518353  73.6223984  43.7932167   0.9144258
  74.3129959  43.4155922   1.4591341  73.8177948  43.4824867   0.0304005
  67.0315170  57.6931267  86.3149414  67.1184845  57.7845345  87.2637939
  66.0915298  57.7711830  86.1519547  46.5750465   1.6233864   5.9873281
  46.0477829   0.9700633   5.5275550  46.9754257   2.1421778   5.2896280
  66.9531784  63.0634460   6.6951222  66.1129684  63.2289505   7.1227775
  66.9872208  63.6988373   5.9800320  64.8567734  60.6751671  28.9947186
  64.2177582  60.6918793  28.2822514  65.3081818  61.5168610  28.9313774
  11.3723888  32.5555038  22.4428062  11.0964041  31.7438087  22.8685036
  11.2489529  33.2301216  23.1105499  83.3646088  18.9861603  71.2910614
  83.2838898  18.4311867  72.0667648  83.0610733  19.8468494  71.5797043
  43.4542694   0.4512770  27.2694492  43.5718880   0.6976253  28.1868973
  44.2028923   0.8419322  26.8186874  27.8789024  71.1514969   5.5900722
  28.0101719  71.9108429   6.1578727  27.8646412  71.5143051   4.7044072
   7.3604097  52.0654869  71.1166763   7.7440758  52.3796501  70.2979355
   6.4173770  52.0600319  70.9526901  52.2360954   6.3045278  40.5101089
  51.9516563   7.1981449  40.3183403  53.0553970   6.2047248  40.0253296
  73.3761597  43.2556038  58.9118576  72.5302124  43.5263634  59.2686462
  73.8364563  44.0765800  58.7376366  85.6341782  34.2993469  45.8401337
  84.7190933  34.0198593  45.8129387  86.0699615  33.7567635  45.1829224
  49.8784676  13.7687273  14.3421488  49.8540726  12.9482040  14.8344688
  50.2623024  14.4011631  14.9495401  43.2524529  17.2216434  74.2346039
  43.8222466  17.9477558  74.4882355  42.3948059  17.4547710  74.5900269
  46.8637390  53.7542191  41.6587906  47.6498985  54.2871780  41.7777290
  46.1384125  54.3600540  41.8107758  19.6671810  29.3460979  70.2333832
  18.9426136  28.7543755  70.0306625  20.4442806  28.7874470  70.2174301
  41.1189766   2.9436920  12.7184248  42.0735130   2.8746929  12.7003393
  40.8846474   2.7849882  13.6328297  25.4195976  61.1879387  37.4797935
  24.8568554  61.8972664  37.1693039  24.8141842  60.4780083  37.6935844
  32.3497429  62.5088120  41.3312492  32.6500473  62.7013702  40.4430084
  31.4312725  62.2610626  41.2251244  73.2561569  51.4009361  56.8491249
  72.3989792  51.1031494  57.1537437  73.0662460  52.1745262  56.3183441
  39.1586609  53.9894180  81.6765060  39.4141922  53.0678978  81.7181931
  39.3185692  54.2414055  80.7670212  61.0211449  39.0945358  83.8709717
  60.9714088  38.1551323  83.6941223  61.5517197  39.1610374  84.6648865
  45.8694725  65.8516159   7.0804853  45.6000023  64.9455414   6.9299974
  45.0811348  66.3673019   6.9106998  67.0693207  46.3699379  81.3685379
  67.1999969  45.6796684  82.0186768  67.8874207  46.3892670  80.8719788
  85.8145065  67.1818161  51.9758110  85.5327225  67.7593002  52.6852798
  86.7573547  67.3312454  51.9055138  33.5789833  22.0694542  16.7865257
  33.0588417  22.8529015  16.6079369  34.4584084  22.4017391  16.9666157
  81.0857697  40.4922218  38.1368942  81.0521545  40.5207520  39.0930748
  81.4198837  39.6182556  37.9349480  13.0471125  52.5241585  78.7476654
  13.4247799  53.1618805  79.3534012  13.4501963  51.6917267  78.9942627
  64.0454025  35.3583794  39.0849876  64.5211868  34.9372482  39.8008842
  63.5872116  34.6409760  38.6472397  28.7004890  30.7634792  13.7071629
  28.0554790  31.3197041  13.2703476  28.2717552  29.9107018  13.7791948
  39.9572830   5.6061397  58.9940491  40.8329201   5.8540401  59.2907600
  40.1000938   5.2003083  58.1389847   0.5231735  49.8469200  69.5527725
   0.1727385  50.5451546  68.9996948   1.1479732  50.2880554  70.1283188
  59.2975883   1.8331541  72.0126419  60.0445595   1.5826215  71.4690475
  59.3636589   1.2707576  72.7843781  56.1266212  21.2338886  80.5134125
  56.1760864  21.8358574  79.7708359  55.3876915  21.5529003  81.0315323
  52.2468987  40.7743988   2.7482138  52.9854507  40.2936974   3.1219757
  51.5527077  40.1205559   2.6656334  69.6727142  32.2276115  67.4946518
  69.5195084  33.1558266  67.3180847  68.9998245  31.7731419  66.9877853
  50.9338684   2.4765127  55.5868416  51.7215500   2.3753982  56.1212273
  50.3952560   3.1029525  56.0702667  43.2206764  37.7406235   7.9256768
  43.8153000  37.0548782   8.2296619  43.2773628  37.7008934   6.9709835
  13.4869051  43.2614975  75.8932419  13.5656252  42.3075714  75.9009018
  12.5526714  43.4236832  75.7623444   2.6675811  48.5860214  42.0848312
   3.1612167  49.1631203  41.5021553   3.0382440  48.7476730  42.9524193
  66.6732635  67.8931046   1.0395013  66.4713058  67.9242401   1.9746354
  67.1775436  68.6902466   0.8767047  67.1114807   4.6989951   0.4412262
  67.8160553   4.9956937  -0.1347733  67.2144012   3.7479537   0.4752634
  64.1752930  36.4785461  12.9581566  64.2591553  35.5414124  12.7821417
  65.0502472  36.8317337  12.7970705  66.8777237  44.1334305  13.4132061
  67.4836197  44.6927681  13.8992758  67.4323959  43.6644135  12.7898388
  33.3701248  46.4329872  39.5148773  34.2248344  46.8412590  39.6527634
  33.5189018  45.5027351  39.6843834   2.5515213  63.4829025  25.9059067
   2.5133440  62.8362694  26.6106319   3.4458952  63.4194298  25.5707989
  73.7015610  59.4842110  13.2282667  74.3414764  59.6503639  13.9204578
  74.1576004  59.7171135  12.4195528  84.6595993  48.8279228  37.3720207
  84.1986237  48.0072937  37.1979485  84.3884659  49.0718765  38.2570114
  81.3373566   7.1849513  48.5209961  81.7664948   8.0045948  48.2755318
  81.3032837   7.2094655  49.4772758  42.6871223   3.7619493   3.9427357
  42.9800186   3.5688522   4.8333302  42.0753593   4.4910588   4.0445895
  28.9631729  57.3444939  42.2387924  28.9869251  57.9788971  41.5224113
  28.1148567  56.9107933  42.1466255  59.4206505  48.3622971   1.3263347
  59.1153030  48.6884766   2.1728590  60.3637733  48.2454224   1.4407337
  83.8120117   6.7905278  19.7873802  83.1442184   7.1696362  20.3588371
  84.6260223   6.8700681  20.2846642  54.0977097  22.8030186  22.0957127
  53.8874893  23.3462582  22.8552723  53.4557419  22.0935593  22.1236134
   3.6344798   5.5847497   8.7551546   2.9581349   5.2686753   9.3542261
   3.2527292   6.3650775   8.3531761  77.0410004  62.1334076  21.7001228
  77.4146042  61.8584290  22.5374050  76.9603119  63.0842896  21.7746010
  70.0364227  55.0675240  25.5285568  69.3172302  55.6868935  25.4045544
  70.3446884  54.8779068  24.6424141  54.2154350  21.1125832  53.3142967
  53.9487343  21.7309608  53.9945259  53.9795494  21.5436859  52.4928703
   0.5087963  40.0281601  51.8431473   1.2629532  40.2447433  51.2949028
   0.0667590  39.3206825  51.3737755  78.0474472  53.4096031  44.3661957
  77.9052200  54.0305672  43.6517677  77.7985229  52.5612755  43.9993057
   1.1549077  37.3979950  22.2777233   1.1089011  38.2094536  22.7833462
   1.7568126  37.5965462  21.5604229  25.3856564  57.4993477  56.4037971
  24.5421658  57.1799812  56.0832291  25.3642693  58.4415779  56.2365494
  46.4918518  35.6273193  62.9092712  45.6342087  35.8713341  62.5612259
  46.5515556  36.0898743  63.7451591  78.6535568  -0.1514102  47.8272476
  77.7421265   0.1129348  47.9523315  78.9962158   0.4677505  47.1826897
  35.4076538  52.1923637  76.0409088  35.5130730  51.5192375  75.3685913
  34.8819046  51.7713242  76.7210236  75.6489868  29.3568115  43.7738876
  75.7196503  28.4956112  44.1856804  76.5540390  29.6565933  43.6888008
  64.0374222  32.2229424  70.8348694  64.3035431  32.9904366  71.3411942
  63.5605659  32.5829239  70.0870438  40.8892326  68.7596207  31.9169483
  40.4297638  69.5279999  31.5782700  41.4609604  68.4868317  31.1993504
  73.4005203  69.7028046  60.5469933  73.8218079  70.4163895  61.0261154
  72.7247543  69.3801727  61.1432114  26.1073399   8.3807459  27.7725353
  26.5351620   7.5783348  27.4736423  25.7004719   8.1395512  28.6047096
  27.1828346  48.9509735  77.3488998  27.8534908  49.3377113  76.7859726
  26.6798782  49.6990318  77.6708832   5.1136479   5.7681742  63.0882416
   4.4448910   5.1069212  63.2663994   5.0181694   6.4027872  63.7984390
  55.0559769  35.7752304  29.0879402  54.4023819  35.1297073  28.8189754
  54.9355965  36.5052872  28.4806862  30.0615139  45.2453079  52.1302986
  30.0431290  44.4301529  52.6317101  29.3920689  45.7934723  52.5396767
  66.6114883   5.6240716  51.0805130  66.1772156   5.6420336  50.2276840
  65.8945084   5.5883574  51.7136803  33.8388252  29.4035835  46.3204918
  34.2184029  29.5012798  45.4472160  34.0363655  30.2299442  46.7613297
  54.7158661  64.7668304  14.1422586  54.6969948  65.2569504  14.9642391
  54.5736122  65.4286118  13.4654741  61.0163193  58.4216347  15.5028934
  61.0319214  57.4774780  15.6596069  61.4148293  58.5276604  14.6390762
  31.1688290  59.9695244  59.5104828  31.8287067  60.5789948  59.1798172
  30.9749489  60.2826309  60.3940048  56.1181602  31.2957363  12.6378288
  55.3986778  31.5889206  12.0786991  56.8673553  31.8228626  12.3602057
  23.3944492  10.4620686   2.4758229  22.8579350   9.9748764   3.1011453
  23.1532040  11.3777580   2.6156313  20.7570591  66.6155014  41.0019417
  20.7754364  67.5705490  41.0634918  20.8801975  66.3150482  41.9023857
  23.3230019  51.8598862   9.8732462  23.3621616  51.9618416  10.8241949
  22.9131813  52.6671715   9.5624838  84.9097977  18.0681152  85.7256622
  84.6632233  17.1562042  85.8800812  85.8462524  18.0994473  85.9213791
  26.6074619   3.6242619  20.7308025  26.9576340   3.9629920  21.5547390
  26.6180611   4.3763909  20.1388378  32.6862717  28.6391239  69.9014282
  32.7294769  29.3251076  70.5676041  32.7981339  29.1034527  69.0718994
  50.3496513  36.1168823  24.7155647  50.6678352  35.9840584  23.8226204
  49.4623108  35.7579651  24.7095146  47.6627693  24.4291401  53.6385574
  47.0828667  24.9991875  54.1435242  47.2480354  24.3672924  52.7780914
  59.6714211  30.3370628  61.3363304  59.2176895  31.0056648  60.8231735
  59.9543686  29.6901569  60.6900406  36.2904739  22.7374439   7.4960632
  36.3390923  23.2142677   6.6675072  35.8240509  21.9298153   7.2806110
  52.0994453  50.3318901  82.3466797  51.7238045  50.3542671  83.2268066
  53.0458450  50.3337822  82.4900742  24.7306843  11.1074924  23.4042377
  24.5928116  12.0278196  23.6283398  25.2874241  10.7708292  24.1063271
  24.2500839  42.1925430  25.0126667  23.8342857  43.0022583  24.7165203
  23.5279598  41.5702171  25.0991421  48.8324165  65.3789215  66.7902603
  48.8730583  66.1118393  67.4045944  48.7731209  65.7916183  65.9286346
  69.3132324  67.7774582  21.7052574  69.8727951  67.4024124  21.0252171
  68.9091263  67.0195999  22.1278419  69.7044678  46.5708656   7.8928475
  69.4861298  47.4853859   8.0723267  70.1349106  46.5906868   7.0381193
  42.7214890  21.3549938  78.4496994  43.6336899  21.2437706  78.7175674
  42.3028336  20.5240822  78.6745224  12.2952356  60.5605164  69.4504318
  12.6255322  61.0050926  68.6697311  12.6656103  59.6793747  69.3990173
  66.0646439  17.5347710  17.3210640  65.6883850  17.1330547  18.1041908
  66.2343674  16.7992039  16.7325363  16.5429745  46.9294167  37.2079201
  15.7782545  47.3943710  36.8684349  16.2094975  46.0659866  37.4518814
  76.5530396  58.8490639  74.3466110  76.2635498  59.1412430  75.2109375
  76.5154114  59.6358757  73.8027878  48.3406410  17.0145931  19.3493042
  47.7845802  17.1746330  20.1118126  47.8976021  16.3124485  18.8729210
  41.7503929  33.1535034  77.4398117  41.4085541  32.4894867  78.0385208
  41.5603561  32.8096046  76.5669708   8.4599380  22.5838261   2.2579334
   8.2267008  23.1236897   1.5026979   7.6206212  22.2796421   2.6032593
  80.0861588   6.1314754   0.7602033  80.8211517   5.5604982   0.5365833
  80.3642960   7.0022421   0.4762331  65.5099258  25.4473228  79.2264557
  66.2900848  25.6457233  79.7443542  64.9217987  25.0055447  79.8389664
  47.6519623  38.4226036  25.6939964  48.2731628  38.4422379  26.4219799
  47.7002373  37.5261002  25.3620586  56.9523468   2.8989229  51.5716133
  56.8571396   2.9700718  52.5214043  56.1086044   2.5613947  51.2709389
  59.4649734  28.0179348  59.9633827  58.7441444  28.0223770  59.3336067
  60.1229553  27.4445686  59.5702591  22.8282127  38.2051163  81.6881943
  23.6388950  37.8185844  81.3571014  23.0374870  38.4699020  82.5839233
  38.6607513  49.5203438  12.0590611  39.1494179  50.2567101  12.4267664
  39.1709518  49.2520065  11.2949133  44.3163490  32.8185234  84.5392838
  44.9866180  33.3824387  84.9252548  44.7627792  32.3750229  83.8180084
  54.0927010  10.0215416  36.1484489  53.8864670   9.4342813  35.4212456
  53.6414757  10.8376560  35.9326210  66.9153900  27.2986603  68.2927017
  66.1989441  27.7277374  67.8249207  67.3336792  26.7444611  67.6338196
  12.9735231  47.4183083  54.6819038  12.5585155  46.8361473  55.3183708
  13.8986273  47.4213371  54.9276810  51.5322914  65.1987915  17.3408585
  51.8430367  64.3786774  16.9573402  51.0895500  64.9335938  18.1470108
   9.3591976  50.5181541  22.3497162   9.1447639  51.4419327  22.4796619
   8.6685419  50.1907120  21.7735157  63.8978310  42.9926834  33.6671410
  63.6986542  43.6163063  34.3654671  64.1694565  42.1978378  34.1261330
  65.4735641  34.4654503  20.0546093  66.4054794  34.5205612  19.8431053
  65.4508133  34.3202057  21.0004520  26.9970684  33.5100479  67.5481110
  27.5415554  32.8479042  67.9739456  27.6092052  34.2061348  67.3094025
  24.7540359  43.2018661  28.9780521  24.8871384  43.8931465  29.6266251
  25.2689762  43.4812698  28.2210846  59.4857979  38.5889969  53.1206703
  59.9427605  38.2553139  53.8927231  59.7321777  37.9875679  52.4179535
  75.0779800  65.8678665  10.0019445  74.8204803  65.5811462  10.8781395
  74.9996719  66.8214645  10.0293312  52.7113380  34.9518738  74.6032791
  53.4037971  34.3301163  74.8272247  52.6112480  34.8676033  73.6550598
  67.2610550  29.7501259  24.1136761  68.0568695  30.0425262  23.6693668
  66.7513199  29.3149509  23.4302826  71.0215683  67.2435684  25.2995625
  71.3666763  67.8151627  24.6136951  71.0994797  66.3609390  24.9374580
  68.2974548  25.5916996  66.4852600  68.6745758  26.4691410  66.4211502
  68.9934311  25.0090828  66.1812592  78.3758545   9.4288445  85.6561813
  78.2295380   9.9835567  84.8899460  77.4981079   9.1641321  85.9313583
   0.9909489  60.2941589  21.6003704   1.6827351  60.8652802  21.2664757
   1.0669944  59.4954414  21.0783615  47.1681595  63.7545929  61.2137032
  47.4755478  62.8650589  61.0391350  47.9687271  64.2654953  61.3332939
  86.0887909  63.6725273  35.7137718  86.9234161  63.2346573  35.8808327
  86.0271606  63.7145462  34.7594833  77.9901810  17.2709084  20.1713352
  78.8143158  17.0529976  19.7359676  77.9259491  18.2232590  20.0996704
  22.9158363   2.0948482   8.3274069  22.3880539   2.2553771   7.5451608
  23.7394009   1.7405176   7.9921131  66.7697067  29.9317760  20.0866833
  65.9464951  30.3318844  19.8065624  66.5671387  28.9999218  20.1694279
  52.4423599  55.7035942  26.2233963  52.3898087  56.1605606  27.0628319
  53.3778763  55.5481720  26.0934582  36.9888649  66.1002426  79.2199707
  37.7537346  66.3331833  79.7462311  37.0957794  66.5972748  78.4089432
   8.2323265  38.4672661  17.5429058   8.3534174  39.1349487  16.8677979
   8.6293888  37.6784782  17.1736031  56.1632576  57.5365410  55.6949463
  56.5496674  56.9961624  56.3840866  56.3569336  58.4359932  55.9589615
  69.7801285  70.9991760  17.7330036  68.8405228  71.1570969  17.8247890
  69.9629898  71.1721649  16.8094940  47.8955574  55.8502502  54.7188492
  48.7250061  55.7707710  55.1899452  47.2595062  55.4022408  55.2764854
  54.5176544  48.7072563  46.7264938  54.2432213  47.8200874  46.4944420
  53.8216667  49.2698097  46.3868332  25.3042297  12.1739683  85.9643097
  26.2001266  12.0361500  85.6567307  24.7844887  11.5287676  85.4849167
  72.9075394  45.7947426   2.9951346  73.3823318  46.3489380   2.3757203
  72.6647949  45.0208588   2.4867957  46.1051254  50.8238564  88.7676392
  45.8002739  50.5591927  87.8997421  45.5062027  50.3891602  89.3747330
  62.8961487  21.5975113  33.0405045  63.6596718  21.5961533  33.6177902
  63.1501427  21.0385914  32.3061142  20.9138985  63.7307053  63.9165878
  20.0129890  64.0531082  63.9420395  21.4524269  64.5187149  63.9890785
  75.9918213  66.8484497  55.8879433  75.6191635  65.9668732  55.8747635
  76.9289703  66.7103043  56.0254250  61.3181915  21.3269310  60.3212318
  60.8552094  20.4995365  60.4527473  61.1777954  21.8118477  61.1344833
  21.6629028  32.3831520  66.1273117  22.5809498  32.3510742  65.8582535
  21.4490681  31.4790001  66.3575668  62.1110878  27.1283283  65.9099655
  61.3784485  26.9681664  66.5047989  62.1270142  28.0790768  65.8001556
  51.6657333  62.6620178  54.3700409  51.7921486  63.1618500  53.5635529
  50.7943268  62.9151993  54.6746330  36.0655479  57.8716087  75.7964096
  35.4178314  58.3055458  76.3517456  36.5951309  57.3557129  76.4043732
  81.8537750   2.5944843  42.8967972  82.5084610   1.9583812  43.1848907
  81.9300919   2.6013134  41.9426689  53.6501884  60.2782822  45.1672897
  52.9379578  60.7336922  44.7183266  53.2988319  60.0814247  46.0356369
  54.8567505  24.5757389  11.8872881  54.3405685  24.5383492  12.6925144
  54.7742119  25.4824276  11.5917645  81.0781631  69.4361725  67.1670837
  81.9048767  69.1406860  67.5484772  80.7215118  70.0468292  67.8121643
  84.9204788  29.3720112  74.6589432  85.0978851  30.0799770  75.2782516
  83.9675369  29.3656368  74.5690155  53.3930931  57.8493881  80.5417709
  54.2958794  57.5453949  80.4479828  53.1700859  58.2065086  79.6821442
  78.7866669  19.1056957  39.6857758  78.6010132  19.3853855  40.5821800
  79.0103683  19.9138603  39.2241898  64.4786987  28.9294167  29.8547878
  64.4403992  28.2066650  30.4812031  64.7477036  28.5197449  29.0325718
  85.3699646  52.2047310  61.9546585  85.8005295  52.3626099  62.7948494
  85.4466400  53.0359879  61.4862976  65.3443222  10.4493084  70.9652786
  65.6347961   9.7171946  71.5092163  65.5675049  11.2288857  71.4738846
  32.6733017  34.9115715  74.4017258  31.9470043  34.8880730  73.7786942
  32.3770981  34.3727455  75.1353226  18.0212002  64.2295609  64.1503220
  17.4335442  63.5263901  64.4267960  17.9801674  64.8693619  64.8610992
  24.0703640  21.0749378  85.3130341  23.6163082  21.8977470  85.4948349
  24.9894199  21.3246708  85.2171097  46.4714470  30.8998432   7.2132044
  46.7990189  31.7425575   6.8989425  45.5695839  30.8596859   6.8949890
  74.3567963  25.7058258  40.1881676  73.7685547  26.3875427  40.5129242
  74.3788605  25.8399334  39.2406654  39.9565735  37.8332901  55.5712585
  40.3609200  37.8737068  54.7045937  39.8739891  36.8972588  55.7536125
  58.9887466  10.7792597  32.2974472  58.7663040  10.0782089  32.9100456
  58.3188171  10.7234192  31.6160431  81.1275940  33.4467506  46.7934265
  80.7270584  33.7074089  47.6228027  81.2633896  34.2697639  46.3239212
   3.6931384   3.4992652   6.8868375   3.6016662   4.3039575   7.3970675
   4.1212988   2.8849566   7.4831052  73.9472351  30.1803341  70.6139908
  73.6865616  30.8329163  71.2639236  74.7080460  29.7473202  71.0011597
  70.7396851  50.0318604  51.0821457  70.8997192  49.5331917  51.8833656
  70.3474884  49.3990631  50.4804993  78.2920303  39.9339981  69.2724075
  79.0473633  40.5156593  69.3583069  78.4041595  39.5206642  68.4163589
  78.5772476  68.9492798  12.2134895  78.3068085  68.4698715  11.4303789
  79.5217361  69.0647507  12.1093807  56.4748878  53.7617683  69.3577652
  56.8066101  52.8649521  69.3140564  56.8560905  54.1956100  68.5944214
   7.2570510  39.8513718  61.3621178   7.6922455  39.9591446  62.2078247
   6.8096261  40.6846924  61.2150764  11.5643482  53.5406265  55.2433167
  10.6617804  53.4082184  55.5332680  11.6330595  54.4841347  55.0973740
  26.9760761   0.7906121  22.4287415  26.0775967   1.0692253  22.2517090
  26.9908161  -0.1362763  22.1902199  33.7668610  25.3369923  74.6512451
  34.0368881  25.9621582  75.3239136  32.8149529  25.4278011  74.6081543
  67.8222427   7.7654705   3.2997265  66.9299088   7.5647902   3.0174210
  68.0849228   7.0067554   3.8208613   0.7423776  56.5642815  57.1488762
   0.5478668  57.4875717  57.3098946  -0.1078229  56.1712723  56.9515533
  69.5632401  52.9188499  81.6050720  68.8826065  53.2335777  82.1999741
  70.1268005  52.3728943  82.1533051  81.4587860   3.3084846   2.6560202
  80.6701202   2.9887004   2.2178702  81.4949875   4.2390919   2.4349051
  32.3415833  24.4435730  16.4056740  31.8866100  24.1604004  15.6125498
  31.8156128  25.1716862  16.7364902  52.1983109  65.3571777  49.6881561
  51.9875145  66.0322723  50.3331718  51.4597359  65.3686218  49.0793762
  19.1794434  44.5551300   7.1486263  19.5718403  45.4114227   6.9782777
  19.0654907  44.1670265   6.2810879  45.5807762   9.4458055  78.4104767
  46.0161095   8.9377575  77.7259369  44.7963295   8.9397507  78.6221008
  38.4476929  18.7161369  74.4176407  38.4947166  17.8500767  74.8225632
  38.6950455  19.3212070  75.1168823  50.9246979  46.6854286  47.6812592
  51.5879097  46.6971703  48.3713608  50.1622734  46.2744675  48.0887604
  37.3889427  36.8661003  56.7267227  38.0404930  36.2545319  56.3836441
  37.8602867  37.3716660  57.3888931  20.0607700  60.6471519  31.2078533
  20.2253017  59.7865181  31.5931759  19.1263580  60.7985268  31.3499584
  11.7590332  32.8856583  62.7153969  12.6752663  32.6208725  62.7968712
  11.5976515  33.4301529  63.4859238  73.7934418  50.1369972  76.3179626
  73.4714432  49.2389183  76.3954086  73.3593521  50.4805794  75.5371017
  78.5761642  37.0519485  70.6233597  78.2271194  37.8999748  70.3490219
  79.4969482  37.0763702  70.3629990  42.0602684  33.6844482  24.7185707
  41.4708099  34.2818680  24.2582912  41.8465195  33.8028336  25.6440601
  64.9502945  15.3946772  19.3984737  64.5171967  14.8442898  20.0509567
  64.7305222  14.9895821  18.5595264  62.3396111  39.6757278  42.4818878
  61.4165649  39.4992409  42.3000336  62.7201958  38.8132553  42.6478195
  76.2637482  60.1893921  76.5634766  76.9907150  60.8086281  76.6291046
  75.5873795  60.5526123  77.1351700  85.8551788  50.4742966   1.2694417
  85.8594055  51.3621445   0.9117501  85.3185501  50.5369606   2.0595877
   0.2542773  55.8330269  70.7262115   0.8998041  56.4056320  71.1405182
  -0.5915253  56.1991425  70.9846802  16.1270943  45.7114525  58.8312340
  16.8876095  45.2731743  58.4494476  15.3811293  45.1765823  58.5597878
  74.9059372  51.7831650   5.8663368  74.4275665  51.6527367   6.6851068
  74.3538742  51.3757591   5.1988907  -0.1753519  11.7929630  72.7865829
   0.0540994  11.7962198  73.7158737   0.2310974  10.9976616  72.4423141
  38.7971649  67.5102768  33.6736221  38.3733597  68.3651123  33.7502289
  38.0722504  66.8879929  33.6144981   2.2113602  62.8574524  56.0556221
   1.8706011  63.0168152  56.9358025   3.0752749  62.4712296  56.1995430
  43.5880737  56.5696449  56.5171776  44.5328178  56.4609032  56.4082489
  43.2957726  55.7464523  56.9085159  42.5778542   2.8461006  62.2633858
  42.3766098   2.3642142  63.0655823  43.5160866   3.0266240  62.3214073
  16.8288975  54.5037842  53.8045731  16.6515732  54.4542122  54.7438965
  16.9170666  55.4401474  53.6265640  11.0478392  43.2328377  23.9636631
  10.2911234  43.8168259  24.0143909  11.3657074  43.3301163  23.0660381
  70.3212967  58.2224655  67.5967865  70.8238678  57.6256981  68.1513367
  69.7230988  58.6634445  68.2000504  14.2474480  54.1276970  48.0898361
  13.7365999  54.9208832  48.2514496  14.0141315  53.5416908  48.8098335
  80.6637497  12.2810431  53.2703209  81.3347015  12.9598961  53.1980896
  79.8819275  12.7474995  53.5659714  54.6695404  18.8696575  55.2223396
  54.2279930  18.1516991  54.7686844  54.7670174  19.5500011  54.5561066
  59.1754913  60.1307068  70.2343216  59.2926750  60.6886787  71.0031967
  59.4155617  59.2544098  70.5354919  52.4735451   6.8620996  13.6072607
  53.3760719   6.5435081  13.6203356  52.5139771   7.6756110  13.1044712
  68.2421188  43.3733101   5.6421928  69.0149841  42.9596786   5.2577171
  67.6968613  43.6070251   4.8909903  41.2081261  39.1342621  38.2162056
  40.9527168  38.9580879  37.3106918  41.6656494  38.3409462  38.4946861
  10.9340496   4.2849741  76.7111053  11.4695616   4.6191654  75.9915390
  11.4009676   3.5069342  77.0158539  79.5554199  59.5977097   0.0635473
  80.3389359  59.7568398   0.5898656  79.5997696  58.6672630  -0.1567599
  71.0253143  15.3190069  39.4182472  70.6357803  14.9001780  38.6507339
  70.2894669  15.4584188  40.0143394  61.6188316  33.2773552  39.5901146
  60.9536171  32.8387070  40.1204987  62.0998383  33.8229446  40.2123680
  43.8336868   7.1171565  68.1606522  42.9645882   6.9414959  68.5212708
  43.7929573   8.0284615  67.8706589  71.7909164   2.5279808  52.2312927
  71.1895599   1.9870964  51.7193871  72.4170380   1.9056046  52.6012306
  47.6301918  32.2650452  63.1960793  47.2422409  31.3946571  63.2863579
  47.3495255  32.7349930  63.9813232  68.0997009  70.1742020  55.7032280
  68.0873795  70.7207947  54.9175339  68.8614731  69.6061859  55.5879097
  75.4772034  42.1901932  39.1166420  74.6317825  42.4951057  38.7872086
  75.7017288  42.8103371  39.8103561  61.8371887  23.0883465  49.5204430
  61.9719162  23.4918041  50.3779411  62.5958366  22.5166225  49.4028854
  50.5058594  58.7023964   2.1377723  50.2449760  57.8000450   2.3219821
  50.0742683  58.9121666   1.3095472  26.6348038  59.8841438  43.4567108
  27.4074917  59.5093002  43.8794174  25.9719982  59.9077911  44.1469002
  37.7896996   6.5840173   6.0869660  37.1085777   5.9241610   5.9569850
  38.5049400   6.3058619   5.5148697  54.5285606   4.2857070  27.0157681
  55.2637482   3.7284570  27.2711163  54.8308754   5.1766725  27.1918888
  78.3767014  53.3842697  11.2424049  77.5495453  53.8220940  11.4432850
  78.9271774  53.5494156  12.0078678  44.7881813  12.7749500  37.9144783
  44.7401428  12.3636427  37.0514908  44.8251190  12.0410414  38.5278702
  31.5511436  48.0815506  41.8296280  31.4150372  48.0714073  42.7770462
  31.3012047  47.2033577  41.5423355   0.7776794  45.4105721  24.6456356
   0.9008372  46.0254517  23.9224567   1.3995798  45.6989098  25.3137188
  51.3003235  44.1670647  64.3722458  52.0635376  44.7400131  64.4461670
  50.6304054  44.7124939  63.9599953   8.0537252  64.5992432   1.2404094
   8.7705479  64.0782471   0.8785232   8.3223410  64.7836990   2.1404390
  78.6577835   0.7893206  60.8037643  78.8754578   1.6334885  61.1990204
  77.8856583   0.9681488  60.2670326   1.7054752  51.6439018  12.5819883
   0.9662955  51.9339104  12.0474415   1.3754076  51.6676254  13.4801674
  83.0732574   4.0065851  61.7262764  83.3491058   4.0123124  60.8097038
  83.8632202   3.7708015  62.2126770  34.3843498  36.8863106  28.3112545
  34.7262726  36.9992218  29.1981449  34.0825539  37.7586823  28.0580425
  51.9127998  64.9526672  59.5646591  50.9746513  64.9818802  59.3768959
  52.2748222  65.7032089  59.0936432  40.5259476  58.9399033  82.7093506
  40.4845390  58.0580978  82.3393021  41.4594994  59.0963707  82.8515778
  47.5321198  23.6266289  18.9963303  47.5276337  22.6727867  18.9163399
  47.3638000  23.9422321  18.1084709  30.5040798  45.2302170  18.1608143
  30.8607044  44.8449554  18.9612064  31.1356030  45.9076996  17.9190960
   9.1520901  43.8536034  78.5043259   8.8551626  43.6007385  79.3784637
   9.1764269  43.0325890  78.0128250  35.5757523  54.1587410  49.1348457
  36.5301666  54.1439819  49.0634041  35.3656540  55.0676193  49.3493996
  40.0589828  56.8055801  28.9123440  40.6579933  56.8265686  29.6586514
  39.7799034  55.8917732  28.8548470  48.8284569  42.4542274   3.7974985
  49.1014328  42.4188385   2.8807306  49.6293678  42.6638145   4.2779622
  53.9632416  43.2754822  87.5426178  53.4340935  42.5487671  87.2138138
  54.1076546  43.0680809  88.4658508  82.1074600   8.2650309  54.3839264
  82.0557251   7.3302894  54.5834618  81.1961517   8.5574646  54.3686218
  77.7270966  37.2222939  34.1493034  76.9058990  37.3687210  33.6798058
  77.7967224  37.9660645  34.7477913  52.7339973  44.5754318  71.1362076
  51.9308777  44.1033173  70.9163513  53.3753128  44.2685585  70.4952927
  37.3127289  29.2466373  10.8342056  37.6469688  30.0097980  11.3054838
  36.8094788  28.7624016  11.4887962  75.0549164  35.3526840  53.4795761
  74.4848709  36.1215210  53.4923630  74.9740677  34.9799461  54.3575058
  63.2257500  44.1522064  36.1749687  63.2136879  43.3053741  36.6210251
  64.0373764  44.5660477  36.4686165  53.8897324  47.0491943  65.1773605
  54.0646973  47.9534912  65.4378662  54.7400360  46.6137810  65.2376480
  20.3955441   7.8431196  63.1144257  20.4751740   8.7863569  63.2565308
  19.7712860   7.7613912  62.3934174  54.4115715  70.0300751   4.1831031
  55.1992264  69.6898651   4.6074638  53.7141075  69.8872757   4.8229337
  82.0564728  68.9152374  40.7495804  82.3564148  69.7123413  41.1864891
  82.8576813  68.4208069  40.5768547  53.0072479  46.7669220  13.4469461
  53.3625946  47.1810760  14.2333527  53.6370010  46.9804077  12.7584229
   0.9185402   3.3556135  24.2784576   1.4537052   3.8206265  23.6353455
   1.5467200   2.8422978  24.7865219  85.5766678  16.6066170   8.1989355
  85.1484146  15.7510071   8.1712999  86.3880463  16.4843731   7.7060366
   2.4078767  68.0509415  16.8994064   2.4653590  67.2538376  16.3725719
   2.4868803  67.7466888  17.8035221   4.4500380  45.1055336  67.0711899
   4.3307319  45.5488815  67.9110947   5.0386004  44.3764229  67.2667007
   9.9138918  69.4334564  74.8871613   9.3453608  70.1300583  74.5588989
   9.5167532  69.1716385  75.7177963  42.6432419  39.6347694  71.8412552
  41.8919640  39.5631866  72.4300613  43.3994026  39.6994972  72.4245834
  71.4718628  17.5200214  15.4717035  70.9280472  17.0830669  16.1271191
  71.2967453  17.0445461  14.6596155  57.2537041  71.4106216  10.0536947
  57.9787025  71.8532715   9.6124802  57.4661407  71.4729767  10.9849386
  37.8639221  42.9286690  11.8198452  37.9090271  42.3133545  11.0880079
  36.9309464  43.1207733  11.9140968  68.4351654  18.3721199  52.3042717
  68.8819427  17.5988865  52.6488571  68.9502335  19.1108112  52.6287270
  54.6327438   6.3500209  39.2413864  54.7903976   7.2060857  39.6395416
  55.3383446   5.7965760  39.5761337  52.9477921  18.7733154  68.2411270
  53.5390587  19.0596905  68.9372787  52.4480667  19.5573940  68.0136948
  42.1749229  16.5007629  41.7409477  41.9311218  17.3927822  41.9881210
  41.7457008  16.3602943  40.8969879  20.1448765  58.0622292  72.3076324
  20.0631905  57.1094818  72.3503799  19.4166451  58.3403740  71.7521591
   5.5391269  43.3388557  36.2540932   5.1903777  43.1066437  37.1147232
   6.1847396  44.0223351  36.4337387   2.8693829  26.8361778  88.5872345
   2.8188975  26.7699337  87.6336670   1.9571847  26.8220463  88.8769379
  75.9696274  17.0948429   5.0787740  75.1304321  17.4777870   5.3343911
  76.6043777  17.7990360   5.2108197  31.0894260  58.2568474   4.3100009
  30.6941109  58.9311867   4.8624716  31.5855045  58.7456665   3.6533458
  12.2478361  62.8438339  61.0949402  11.6962500  63.6038551  60.9095917
  12.0402985  62.6123428  62.0002403  28.1055946  39.6577415  11.2499895
  27.1840839  39.9121933  11.2979879  28.1614494  38.8598404  11.7757864
  13.2665920  11.7647171  18.2093124  13.0020790  12.6846418  18.2111034
  12.5238152  11.3011703  18.5961456  36.8759727  16.7908821  64.5762482
  36.6156540  16.7257423  65.4950638  36.2679710  16.2142391  64.1135864
  42.5466385  45.1159897  83.5849915  42.7495384  45.9381409  83.1387558
  42.3300362  44.5072670  82.8787537  27.8904552   0.2329426  77.5958939
  28.2804222   1.1039777  77.6697540  28.2905521  -0.2695654  78.3055725
  29.9550190  50.1267204   6.3566456  30.0493908  50.2168961   5.4083872
  29.1180649  49.6768837   6.4723430  67.1481476  63.3191147  26.7161617
  66.3743362  63.3542404  27.2784939  67.2616577  64.2183838  26.4084892
  28.3399258  49.6461182  55.8075714  28.3138218  50.4382210  55.2707977
  28.1206493  49.9470291  56.6893883  64.7400665   6.2670178  82.8388290
  64.4144058   6.9865618  82.2980576  64.7198639   6.6105366  83.7320328
  18.5770073  53.5455551  63.0265999  18.5262947  54.3137054  62.4577332
  17.8568535  53.6589203  63.6468887   0.2665177  10.0932007  47.8022614
  -0.3702560  10.5876646  48.3182602   0.5861764  10.7192268  47.1525383
  50.6129761  63.6738014   7.3424234  49.9012184  63.1818695   6.9329896
  50.4338074  63.6178627   8.2810411   3.0904467  17.1270065  88.5785675
   4.0054235  17.3247490  88.7784348   2.8268843  16.5032978  89.2551422
  62.3351479  41.9335518  19.2472610  62.2114143  42.3417206  18.3903351
  61.4945717  41.5172195  19.4378643  62.0320549  65.6786652  32.8014832
  61.8701096  65.0258713  33.4825592  62.1151237  66.5052872  33.2769127
  38.7228203  53.2032471  85.1778870  38.8031273  52.7435532  86.0136337
  38.8203392  54.1284523  85.4031067  23.4800987  35.4019966  58.1220894
  23.5690765  34.4592476  58.2618675  23.2940102  35.4890022  57.1871948
  75.0555725  56.5837975  43.7121925  74.9550858  56.6606445  42.7633858
  75.8999634  56.1484032  43.8291283  69.6184006  27.0060043  39.3776169
  69.1542435  26.8245831  38.5603828  69.3122025  27.8743343  39.6392975
  73.7133255  41.1201591  57.2476044  73.4721909  41.9525299  57.6541061
  73.0582962  40.4992638  57.5664330  50.4404030  42.9481812  20.3914490
  50.9069405  42.4722862  19.7043571  50.4028015  42.3342133  21.1248360
  79.5679321   8.5380993  82.8203506  78.8301010   9.1418114  82.9062119
  79.7078934   8.2034187  83.7061462  10.5732269  20.5766296  76.8346252
   9.9425936  20.4011631  76.1362381  10.0474386  20.9430790  77.5456085
  10.1690245   5.0891213  10.9103060  10.9027958   5.7027149  10.9465551
  10.5802612   4.2250743  10.8871059   7.4969802  33.3320656  29.3455429
   8.3922777  33.5958366  29.1331787   6.9913635  33.5482941  28.5620708
  11.1311436  59.1397934  57.2609100  11.5196075  59.6221275  57.9907608
  10.4923115  59.7461281  56.8861008  29.1079464  27.7680016  87.9465103
  30.0464554  27.8824520  87.7970734  29.0295773  27.6422596  88.8921738
  61.8666267  59.3387222  19.4313145  62.5492516  59.8602104  19.8535805
  61.0567894  59.6083794  19.8645306  25.7490673  36.3491859  10.7368755
  26.2506008  36.2592049   9.9265680  24.8386326  36.2211571  10.4705153
  81.9465408  60.1276054  53.2710838  81.6379089  61.0183716  53.4369507
  81.1486816  59.5997543  53.2390442  55.5671654  36.0228500   4.4466362
  55.6046295  36.4901314   3.6120849  55.2359848  35.1538582   4.2199154
  37.2364540  11.7604923   0.2329391  36.3596039  12.1202574   0.3668534
  37.0973320  10.9881697  -0.3151442  50.8744316  50.3304329  25.7650166
  51.8134575  50.3918343  25.9401989  50.7401695  49.4221725  25.4943333
  51.5010834  11.8953133  56.0284233  51.2635803  12.6181746  56.6091919
  51.4925461  11.1220846  56.5925827  62.5131874   6.8482552  18.4260216
  61.8995056   6.3326955  18.9493046  61.9607849   7.4713640  17.9539833
  29.1572857  36.3893471  66.4308090  29.6036186  35.5502510  66.5445633
  29.7887306  37.0400391  66.7375793  20.4821453  26.4006786  68.3723679
  20.8620834  25.8403702  67.6956635  19.7555084  26.8448601  67.9354095
  16.8129559  44.2759895  69.3780212  17.7352657  44.5007591  69.2553253
  16.6138325  43.6792450  68.6565857   1.4350324  17.1843758  46.8353653
   0.6561356  17.5396023  46.4071541   1.4290607  16.2541218  46.6099205
  55.1818466   1.4310641  15.3422031  56.1020317   1.5700539  15.1182117
  54.7962990   2.3070211  15.3253841  73.2771683  59.6462555  51.3062210
  72.7937851  58.9778404  51.7918091  74.1865158  59.3482857  51.3291473
  20.9749985  21.7423229   1.6821381  20.5578938  21.1040897   2.2608569
  21.7781487  21.3114567   1.3896718  80.0899200  35.6840248  86.0263367
  80.0157852  35.0185547  85.3423157  79.2480850  35.6549950  86.4809875
  46.5477142  49.2155342  56.7261696  47.0828781  49.2930069  57.5159988
  47.1673851  49.3266411  56.0051346  11.5579977  13.4332151  13.7361374
  11.4529572  13.7306032  12.8323898  11.4747362  14.2290897  14.2613831
  17.2523327  13.6095562  42.6660652  17.6545525  13.0719967  43.3483276
  17.9539986  13.7558489  42.0316391  84.1362457  40.5119514  65.8222656
  84.8321304  40.8579102  66.3810959  84.3409424  39.5811310  65.7333679
  10.4156208  62.9242668  66.2486801   9.6561871  63.4869652  66.3998795
  10.2860432  62.1829987  66.8402634  86.3196106   2.7028875  86.3876877
  87.2369385   2.6890986  86.1146469  86.3526535   2.8672888  87.3300858
  31.0119476  40.1589279  33.7367973  31.6340618  40.1866531  33.0098610
  30.7758026  39.2346039  33.8148346  56.8774185  15.6779127  58.4432564
  57.3260078  14.9413414  58.8585396  57.1236877  15.6187143  57.5201759
  66.3806458   6.8077388   9.4288759  65.4634476   6.7263799   9.1674223
  66.3677521   6.7109590  10.3810835  57.5591049  59.9964294  40.6999359
  57.0820770  59.2625542  41.0873756  57.0359497  60.7664566  40.9226456
  20.9183083   0.1272654  68.9052048  21.8739052   0.1336133  68.9602127
  20.6767464   1.0502049  68.8273392  41.5834351  68.5295639  53.6964455
  41.4985046  67.8185120  53.0612907  42.5061989  68.7803116  53.6532936
  17.8761864  18.4911518  83.1291733  17.1605206  18.3461723  83.7480774
  17.8342285  19.4263077  82.9292908  54.0563126  36.4878273  52.9800720
  54.8187866  37.0616798  53.0546112  53.7135124  36.6577606  52.1026688
  67.7478790  12.1249638   4.0431733  66.8096313  12.2798138   4.1524720
  68.0669327  11.9523878   4.9289794  66.8788147  22.9289093  36.0967216
  67.7157669  23.2508907  35.7619553  67.0936279  22.5400162  36.9445724
  43.3373070   3.1826618  43.5904541  43.0951157   2.7523806  42.7704353
  43.0777283   2.5627091  44.2720032  73.9425964  39.2504692  60.9977608
  73.2618561  38.9392891  60.4011116  73.9256363  40.2029724  60.9045868
  13.9342861  52.9924240  85.4144058  14.2937164  52.1212311  85.2468796
  14.2896147  53.5372238  84.7121506  63.8507919  42.7022057  52.5100327
  63.1259422  42.4085732  51.9581261  63.6827660  42.2978859  53.3612213
  48.4965324  35.0207214  20.6836510  49.0100899  35.4560661  20.0032368
  47.7181168  34.7002487  20.2280216  67.9661102  14.1730928  74.8140030
  68.3397980  14.7016735  74.1088791  68.3960266  14.4932985  75.6070175
  20.3723888  28.4682465  79.2674408  20.0296707  28.5992203  80.1515350
  20.7427979  27.5857487  79.2824478  55.5678406  21.3722191   6.6178594
  55.0598717  20.7083740   7.0842361  56.4802513  21.1474361   6.8001037
  39.2461853  27.8169079  17.0473099  39.4737167  27.3175430  17.8315907
  40.0859299  27.9907494  16.6220551  54.5725479  64.5123520  44.3575554
  54.8741112  63.6954842  43.9600372  54.8521156  64.4516983  45.2710075
  41.5284691  33.9456253  63.2112732  41.7460938  34.8079529  62.8573532
  42.1035728  33.8459969  63.9699287  35.0148430  38.3361702  79.0298615
  34.4282265  37.5848465  78.9425354  35.8401070  37.9612160  79.3374023
  77.7606277  67.9344711  14.8635006  76.8219833  67.9039459  15.0485477
  77.8150711  67.9859085  13.9092350  77.4936295  68.3120117  26.8128834
  76.9199371  67.7768250  27.3612270  77.8111420  67.7102203  26.1396294
  60.5029106   3.7441604   9.3956985  60.2209129   2.9488592   8.9438076
  60.2280846   3.6141591  10.3033333  78.7712631   7.5568242  65.7543869
  78.0740509   6.9599419  66.0261459  79.3995209   6.9985070  65.2963409
   6.2669973  63.2817726  83.3222046   5.9395466  62.7946777  82.5660629
   6.6524734  64.0740356  82.9480972  69.3992615  40.2202492  29.2696991
  69.1021423  39.3488655  29.0077000  70.2503891  40.0695000  29.6809082
  14.1907597  37.0927124  35.8109131  13.6457224  37.3762474  35.0769005
  13.8633976  36.2201385  36.0292740  60.5063400  67.2911148  80.2346268
  59.8500023  66.6069565  80.1028214  59.9959984  68.0868988  80.3846741
  29.6545582  54.2404404  63.1668510  30.0216599  54.0450363  62.3047104
  28.7742329  54.5685616  62.9835587  60.9179535  43.4301643  82.5539322
  60.2995529  42.7011604  82.6025391  60.9773407  43.7541924  83.4526596
  77.3342438   3.0424776  41.2899208  77.8741455   3.2689478  40.5326576
  77.8961334   2.4828002  41.8258972  68.7865753  31.3838959  42.3762169
  68.4341278  30.6648235  42.9005737  68.7203445  31.0760441  41.4722977
  17.5482826   2.0737860   7.5794573  16.9673710   1.3368412   7.3905511
  18.2060814   1.7138482   8.1744175  73.8413849   2.1865056  40.1405258
  74.2640839   2.4101710  39.3113518  74.5246124   1.7470065  40.6467628
  74.3413925  25.2486000  33.4418945  74.1617050  24.9033222  32.5674057
  74.5704346  24.4778919  33.9612961  85.6994781  64.7403107  76.0177765
  85.8924026  65.4513779  76.6288300  84.9041214  64.3358917  76.3643112
  61.5353317  62.6775398   5.2599506  61.4097595  63.6011620   5.4776220
  60.7760696  62.4528465   4.7221174  82.9205704  31.6742058  73.8402405
  82.2680054  32.1620712  74.3426132  83.7388306  31.8055515  74.3192291
  35.1989174  50.3070641  34.0409546  35.3513031  49.4717140  33.5991440
  34.2638435  50.4737282  33.9222374  79.3234558  52.0707779  38.2479477
  79.8211288  52.3121986  39.0291481  79.9904938  51.8809547  37.5881996
  63.8835106  38.2166977  74.7970505  63.6771278  38.8096313  74.0745087
  63.7544632  38.7450027  75.5847473  60.4764709  55.1150398   9.6230087
  59.8456039  54.9606018  10.3261375  60.2279510  54.4946823   8.9377155
  80.2098923  67.1425781  19.1247997  80.2695770  68.0684052  19.3604240
  79.5722809  67.1176376  18.4113140  45.7900505  23.6162720   9.8542967
  45.8865623  22.9925919   9.1346140  46.6682968  23.6884575  10.2280703
  53.5383720  20.4248486  14.9228296  53.2395477  21.1736336  15.4388313
  53.5969276  20.7588787  14.0277166  10.9012756  71.4892883  41.6527214
  10.2575836  71.4519806  40.9452629  11.6980286  71.8158035  41.2346268
  15.9847317  57.7710495   7.6938863  16.7308331  57.2549286   7.3886266
  15.3545227  57.7296333   6.9746132  44.7567749  59.2777061  18.5910797
  44.4617424  60.1770744  18.7336311  44.1293182  58.9161758  17.9651203
  57.6142883  64.6478271  36.4883003  56.6574936  64.6500168  36.5160942
  57.8639488  65.5296326  36.7645493  81.3274384   4.1442561  25.9346428
  80.3777313   4.0796614  26.0352211  81.6802292   3.7435589  26.7291279
  65.5852814   7.8053060  53.9479866  65.4086456   8.6425114  53.5188942
  64.7239761   7.3988457  54.0437813  43.3824081  41.3613853  39.0420456
  42.6763077  41.6561432  39.6171722  43.0345879  40.5765495  38.6186256
  15.7675982  38.1494522  44.0454102  16.3658199  37.4022255  44.0414810
  15.3869286  38.1468887  44.9236565  77.2995911  51.9083786  66.4313354
  76.7042313  52.5468559  66.0387573  76.7278748  51.2041779  66.7370605
  19.5143375  48.9753761  28.5583725  19.7496262  49.7659912  29.0439606
  19.3415127  49.2832718  27.6686745  31.2582302  21.0045662  88.8821945
  32.1925926  20.8585110  88.7343140  30.9112492  20.1383820  89.0956497
  67.9884338  26.6329098  37.0012283  67.0641479  26.8607121  36.9010544
  68.4551010  27.2966347  36.4933662  48.2461739  12.5509253  39.2992592
  47.5852242  13.2386103  39.3796768  47.7412148  11.7436371  39.2016106
  52.7208595   2.9689367  88.3127975  53.2239380   2.9589498  89.1270752
  53.2882347   2.5353069  87.6753922  34.4574661  17.2574310  66.2664413
  33.6137772  16.8898277  66.0032120  34.4956131  18.1074715  65.8280258
  31.9578915   4.5846186  69.8881760  32.0374908   3.7389231  69.4469299
  32.0158005   5.2291532  69.1828690  79.7566147  69.8476028  61.1728630
  79.9397583  69.4057693  60.3437233  79.3698425  70.6851501  60.9176216
  51.2964058  44.2480316  35.9222641  50.5530968  44.2803993  36.5244904
  51.6079483  43.3444672  35.9746628  54.2881584  26.5849361  75.5906982
  55.0971947  27.0588074  75.7834167  53.7336044  26.7366867  76.3559875
  78.2732697  51.3718796  58.6043167  77.9570007  51.3837242  59.5076790
  77.8131561  52.0960655  58.1799507  71.7731171  42.8420029  84.5279465
  70.8330841  42.7485962  84.6823578  71.8434753  43.5724983  83.9134064
  52.2411652  12.5360498  43.9975967  52.4103470  13.2092876  43.3385391
  51.4150047  12.7997522  44.4027557  24.5972290  11.0199871  78.5178986
  24.8314819  11.9458847  78.5817032  24.0729542  10.8510752  79.3007355
  47.6454620  42.4047127  19.0414124  48.4014435  42.9845352  19.1337605
  48.0095558  41.5896225  18.6960201  47.8515587  32.9664726   5.9936700
  47.3476753  33.7304649   5.7132235  48.5601234  32.8987885   5.3536816
  80.1019440  63.8550491  16.3804913  79.3713760  64.2584534  16.8492947
  80.1685867  62.9754829  16.7521744  36.8248634  44.0379639  78.2579193
  37.3957481  44.2435341  77.5176086  35.9381523  44.1409416  77.9124222
  86.2574310   3.5132692  20.3357372  85.9380798   3.4873013  19.4337540
  87.1541138   3.1826651  20.2819538  84.7268219  51.7288742  40.3030510
  85.2484818  52.0229454  39.5563087  85.1749039  50.9419365  40.6131859
   2.8355367  50.7764015  18.9062271   3.4712715  50.5549126  18.2257748
   2.0417614  51.0106277  18.4253006  34.6854706  54.7504005  58.8277969
  34.2854843  55.6173363  58.8960648  35.5928688  54.9243126  58.5775604
  28.4866352  53.2317314  45.7137184  28.7629395  52.8269653  44.8914948
  28.9422989  52.7324562  46.3914566  16.2615852  69.8126678  67.5309448
  16.3136215  68.9305496  67.8989105  17.1702003  70.1117706  67.4964294
  14.0882883  30.2961178  14.0350790  14.8924046  29.7888699  13.9240379
  13.6178885  29.8484383  14.7383146  50.2169228  23.5943356  54.1351128
  50.8655243  24.2982883  54.1354942  49.3788948  24.0408592  54.0144768
  70.6433487  68.9167709  73.4859238  70.3104477  68.8174133  72.5939941
  71.4490433  68.4001541  73.4997940  51.6082916  28.1202106  55.5454826
  52.2645187  28.5954018  56.0551796  52.0226364  27.9785233  54.6943207
   1.4571054  58.5343361  76.4976501   1.0382636  57.8852768  75.9323883
   0.9447699  58.5142326  77.3059464   1.7785010  34.7339706  54.8165970
   2.5835118  34.8258514  54.3069420   1.9713439  35.1656914  55.6488609
  81.4059296  42.5811462  82.4563828  80.8732910  41.7860909  82.4361267
  81.0721207  43.1115685  81.7328796  40.4786186  52.2579117   4.3301167
  39.9472389  51.5107613   4.6051250  40.7902718  52.0215454   3.4564829
  10.2825823  33.8861732  20.2257595   9.4340200  34.2050285  20.5331783
  10.5722303  33.2803307  20.9078827  50.1757851   9.5798082  34.3656349
  49.5850830  10.1527243  33.8766899  50.6029930  10.1588306  34.9968719
   8.4509850  40.5181732  82.4204712   9.2771902  40.0714455  82.6049957
   7.9123316  39.8561478  81.9871063   3.1994305  62.2960129  69.4851532
   2.6331317  62.5026093  68.7416153   3.0099587  62.9796753  70.1277618
  51.9899330  35.0179367   5.0307388  51.3478088  34.9344711   5.7356796
  51.5419426  35.5309868   4.3581939  36.1165314  21.1392879  65.9292068
  36.6458702  21.8269367  66.3331528  36.0427704  20.4655933  66.6051712
  55.5134010  44.2225075  41.3952217  55.4514847  43.3010597  41.6468811
  55.8530159  44.2041245  40.5004845  78.5160217   8.8163509  19.8355408
  78.5046844   9.6543360  19.3730640  77.5971451   8.6434259  20.0404587
  29.8732090  12.9954758  71.7125931  29.8848114  12.9474955  72.6685181
  30.5138035  12.3418398  71.4321823  59.1396294  13.6964102   8.2479792
  59.8358421  14.3507624   8.3057947  59.0784187  13.4936504   7.3145056
  12.2363234  62.1935844  38.4137917  11.6876431  62.9556770  38.2283287
  12.7960739  62.1079445  37.6420555  57.6446037  27.4438648  37.0462723
  56.8786011  27.6675014  37.5749054  57.6850739  26.4879704  37.0756149
  46.8000450  60.1263123   7.4484429  46.1688385  60.0814056   6.7302551
  46.3132439  59.8223534   8.2145138  78.8169327  56.5866928  60.3779221
  79.1223907  57.3857155  60.8074455  79.0752563  55.8817978  60.9717407
  42.3566513  54.0459595  63.2002335  42.4890518  53.5517349  64.0092087
  42.6174545  54.9402199  63.4204826  70.8117371  71.1879044  37.3157578
  70.8141022  70.9001083  36.4028473  71.5005341  71.8511276  37.3595924
  46.9382706  10.0726242   6.5883861  47.7109108  10.5674610   6.3156385
  47.1553307   9.7531300   7.4641938   6.4763870   7.8639565  23.2787704
   6.1719642   6.9622655  23.1762447   7.1799693   7.9537587  22.6360111
  55.0966797  48.7340965  23.7299862  54.9087906  47.7961960  23.6943264
  54.3710670  49.1418724  23.2572956  77.0871353  40.0974464  38.8579407
  76.4683685  40.8190193  38.9705811  77.7911224  40.2865601  39.4783287
   7.6994982  20.0819855  14.1307402   7.6223369  19.1486702  14.3287306
   6.8045282  20.4153023  14.1952486  59.0755234  14.4177828  40.6488991
  58.2642326  14.2268839  41.1196404  58.8327904  14.3701143  39.7242165
  44.5961304  44.2570114  73.7719116  44.9422722  43.6791153  73.0918732
  44.9832039  45.1112022  73.5801697  78.8662643  28.7441158  51.4955559
  79.6203842  28.3130856  51.0933762  78.7994461  29.5836220  51.0405884
  24.0926266  47.9517288  76.8609467  24.3454247  48.8671150  76.9809113
  24.6136036  47.4729195  77.5055847  65.0084991  70.6538925  33.8834991
  65.6779404  71.2109756  34.2806587  65.0358582  69.8450623  34.3946609
   2.8302722   3.6744380  60.4499550   2.8163643   4.5664744  60.7968102
   3.1843495   3.7668707  59.5654678  44.4450645   6.3907309  87.1057587
  45.1047287   6.4745011  86.4172440  44.3853188   7.2662530  87.4880219
  85.9784546  36.1593475  83.3732834  85.9139938  36.2024498  82.4192352
  85.8573914  37.0637054  83.6626205  14.2261124  11.1211386   4.1468415
  13.8645191  11.0143871   3.2670200  15.1675434  11.2243652   4.0079794
  30.3703957  45.2039528  85.5773087  29.6538830  45.6438789  85.1198120
  30.4631062  44.3647804  85.1262894   7.4265280  33.9847717  57.3248672
   6.9413676  34.7519417  57.6286812   8.2444668  34.3406868  56.9776878
  61.1068840   8.4545612  13.4869576  61.6181602   9.0107403  12.8991709
  60.4373436   9.0369968  13.8457241  23.9548931  40.3772469   5.5991883
  23.4044418  39.5948105   5.6312675  23.3361397  41.1068687   5.6311994
  71.8375473  26.1084194  14.3123789  71.7615051  26.0014172  15.2605352
  72.1969681  25.2760391  14.0054712  83.6557541  33.2366638  68.9666824
  83.5300369  32.7567139  69.7852631  84.4728012  32.8896141  68.6086044
   1.2166505  35.9559708  13.2134838   0.7084957  35.7302284  12.4343491
   0.5587091  36.1254959  13.8877287  39.4152069  47.1937866  51.5501366
  39.9164543  47.5023117  50.7952919  38.5607643  46.9567757  51.1896019
  30.6151600  43.7242317  45.8785133  30.6071186  44.5954475  46.2749367
  30.4736519  43.1259422  46.6121750  48.3793831  57.9531136  61.6128807
  48.2393684  57.0101547  61.5265274  49.1377029  58.0306244  62.1918259
  54.3510857  37.6735954  88.7131882  54.4425735  36.9568939  88.0853348
  54.1877785  37.2392273  89.5503769  20.8545380  21.0616131  82.7114410
  21.7938271  20.8932533  82.6364517  20.6549549  21.6383018  81.9739914
   5.5493474  60.9508247  67.1878510   4.6382794  60.6862068  67.0607147
   5.5047131  61.8932190  67.3494949  25.9612923  55.7793846  25.7215252
  26.8368626  56.1645737  25.6863518  25.3693523  56.5313873  25.7397499
  82.8882675  22.7710800  52.3629456  82.4956436  22.9920483  53.2074852
  83.6337967  22.2129478  52.5841103  34.3063850  44.2662048  77.2019272
  33.8439255  45.0949707  77.3264542  33.6387787  43.6672935  76.8675079
   2.7372992  18.5367146  23.4780216   3.4836574  18.8315315  23.9998112
   2.8219426  17.5835152  23.4561443  22.6809578  43.8037376  42.4966698
  22.7905750  43.6413269  41.5597382  23.0927563  44.6555405  42.6418877
  44.5200233  48.5820389  51.4127884  43.7754860  49.1705589  51.5374451
  45.1208382  48.8017578  52.1248055  79.9870300  46.6611862  17.6648254
  79.2795715  47.2977066  17.7676601  80.6712265  46.9650955  18.2612705
  48.0984268  25.1335239  36.9554482  48.8299179  25.6144276  37.3425980
  47.3354416  25.4077358  37.4642639  54.0204887  65.3833160  73.5743332
  53.1173325  65.2089539  73.8391724  54.4220695  65.7868500  74.3438339
  47.4360161  65.1779709   3.2021768  47.3440857  64.6066742   3.9646730
  48.0729866  64.7318726   2.6440611  47.7438087  46.7206650  71.6328278
  48.5392761  47.1057587  71.2651825  47.3066597  46.3140297  70.8846436
  73.0602112  60.2431450  25.6267433  73.0191193  60.9176178  26.3047047
  72.8052139  59.4368820  26.0752411  10.1730070  45.5705185  70.4493942
  10.5369921  46.2864799  70.9701080  10.9331274  45.1723862  70.0251999
  61.0607605  52.3838005  68.2351532  61.2001915  53.1757240  67.7158737
  60.2009163  52.5089798  68.6366806  17.2957287  20.4424706   6.9846172
  17.5999641  21.2819843   7.3294220  18.0977154  19.9729118   6.7553506
  12.6184750  37.2601509  69.4682541  12.3320637  36.4205170  69.8277206
  12.2540798  37.2786369  68.5833206  76.1283646   9.5333147  76.0076675
  75.6366272   9.5898981  75.1883850  76.6619263  10.3278770  76.0221252
  79.2754059  36.6463699  80.5659027  79.3871460  35.9429665  79.9263992
  79.8753281  36.4211426  81.2769547  55.3933678   0.4828407  32.0957298
  55.9895325   0.2477100  31.3847218  55.1492615   1.3902586  31.9134159
  25.8370323  55.6963501  50.4277306  26.6455231  56.0125313  50.0244865
  25.3127174  56.4855309  50.5638275  14.6053143  24.3168812   3.0936747
  14.7536802  23.6230507   3.7361848  15.4495077  24.7625237   3.0231531
   8.2160959   1.2764143  47.1542168   8.6450052   1.2528735  48.0096207
   8.3914595   2.1570096  46.8225060   9.4996223  17.6868172  20.5039158
   9.7830896  18.5507507  20.8030777   9.0345240  17.3146038  21.2531643
   7.9440536  10.7063789   7.3141079   7.8839822  10.3318520   6.4352717
   8.4334574  10.0565090   7.8184738  26.4836941  59.7754402  14.5309591
  26.9872189  60.5428162  14.2592430  26.4523029  59.2211761  13.7511921
  82.3533554  22.2692375  49.5952873  82.4933777  22.4458847  50.5255699
  83.0334396  22.7750340  49.1504402  54.6516762  69.3169632  39.5581055
  54.1038780  69.0092621  40.2802315  54.8196106  70.2373886  39.7602196
  10.0165291  49.1917572  46.2120743   9.6922045  48.3454971  45.9040260
  10.2104511  49.6796837  45.4117279  19.3115292  30.7914009  21.7029190
  18.6604347  30.3121090  22.2153492  20.1506710  30.5472755  22.0933971
  58.2693863  41.2989082  76.6242142  58.0433502  40.8216782  75.8258438
  58.1058960  42.2171097  76.4088058  50.1106377   4.4379816  37.0862083
  50.9391556   4.9124684  37.1544342  49.4795685   5.0980020  36.7992363
   8.8972445  20.8813438   9.0246696   8.1687593  21.0759907   9.6142912
   8.9831810  21.6658649   8.4830303  26.2224960  35.2710533  15.8572273
  26.9541416  35.5509605  16.4072971  26.4089947  35.6513748  14.9988527
   4.7170048  65.5696335  31.9396477   4.3649931  64.7816544  32.3536568
   3.9476202  66.1102066  31.7605877  65.5694962  13.9343405  22.3770828
  65.0460663  14.6026134  22.8194218  66.2531052  13.7090540  23.0080795
  34.5992813  51.2001495  21.9147663  34.8998299  51.1135292  22.8194199
  33.6965828  50.8821640  21.9307957  75.6461029  70.3409424  75.9648895
  75.5560532  71.1198425  75.4158554  74.7515564  70.0166779  76.0691605
  68.5014648  70.5619736  85.3666306  68.6831512  71.2789307  85.9742432
  69.1994629  70.6183701  84.7140579  14.1044855  69.0822754  26.9779339
  13.5967560  69.4849701  27.6824055  14.9486113  69.5328751  27.0033054
   8.0691080  60.6382446  29.5488453   7.2282343  60.1827927  29.5904427
   8.4272003  60.4023247  28.6930733  19.6006126  65.6230469  62.2255440
  18.9302139  65.1509171  62.7193947  19.5112572  66.5327225  62.5096817
   1.2450082  23.9377327  11.6566076   1.0027544  24.8628025  11.6989279
   2.2011836  23.9382763  11.7008848  56.6992111  25.5858097  39.6973572
  56.3241234  24.7666931  40.0207596  57.5680656  25.6256294  40.0970268
  65.9006882  46.4124413  78.7599258  66.2007446  46.4580612  79.6677399
  65.6361389  45.5002899  78.6406631  21.6378326  32.2540016  62.7486725
  22.1908932  31.5088081  62.5140648  20.7466984  31.9048557  62.7341461
  68.1580582  60.7706528   7.2002850  68.6501465  61.2040749   7.8975868
  67.5979843  61.4579697   6.8395324  86.7666931  51.6150284  53.8177032
  86.7338867  52.2129669  53.0709572  85.8757019  51.2727280  53.8897667
  80.2808075  22.3202477  64.5523453  80.1649551  23.0559921  65.1535873
  80.1968231  21.5434952  65.1053696  54.2513733  20.4404163  87.6525421
  54.3275528  20.3740826  88.6044006  53.5007019  21.0174465  87.5119781
  13.1454744  29.8679771  20.1242218  13.4110088  30.2104359  19.2707310
  13.5578651  30.4559326  20.7570515  83.5146255  30.3157902  24.3131104
  84.2816010  30.6291237  23.8337307  83.7676849  29.4485073  24.6293564
   6.6534448  45.0548325   1.7541561   6.0327487  44.9458466   2.4746351
   7.4993649  45.1813622   2.1838548  36.0470123  44.0520096  25.8295879
  36.3039627  44.9723091  25.7725105  36.7383804  43.6421013  26.3494091
  23.7489052  23.6271439   6.7395463  23.9585152  24.5601311   6.7823396
  23.7626362  23.4212017   5.8048635   0.5692043  47.4316521  22.8658257
  -0.1203112  47.6054688  22.2250557   0.3937300  48.0455551  23.5789661
  83.1247635  23.1709957  74.1522446  84.0362701  23.2945175  74.4170456
  82.8347702  24.0412445  73.8787384   1.2333268  28.5202847  49.2841644
   1.6442753  29.2006931  49.8174553   1.1193702  27.7825546  49.8833313
  58.7157669  10.4470119  65.1903534  57.8347092  10.4317703  64.8165512
  58.9729118   9.5260859  65.2351303  28.6299629  49.3936348  65.4703293
  29.3451538  49.3783035  66.1063309  28.8643188  48.7217369  64.8301239
  76.1042862  12.9666052  16.0089989  76.7104721  12.5057755  15.4289951
  76.5977783  13.0933590  16.8193283  56.4481735  66.2834320  64.7786407
  56.2467842  67.1594696  64.4496536  56.8146057  65.8225555  64.0239487
  49.0040054  68.2842178  81.4166183  49.1491051  67.6552582  80.7098083
  49.1023216  67.7705154  82.2182922  48.0731277  70.7471848   6.7735848
  48.1280022  69.8468246   6.4533257  48.3221092  71.2844849   6.0215573
  78.7213821   6.8963623  55.3283081  77.9840775   7.1157470  55.8979492
  79.1769180   7.7276430  55.1953087  75.6331482   6.0263343   5.1819468
  76.0448151   5.6787577   4.3907733  74.7097855   5.7893972   5.0953655
  84.0283127  19.3524246  88.3823471  84.8215179  18.8281040  88.2721405
  84.0551376  19.9817505  87.6616135  77.3195648  58.2967453  16.4010315
  77.7714920  58.3135834  17.2446594  77.9937820  58.5314865  15.7634125
   1.6574777  71.4861069  84.3384857   2.5688615  71.3254852  84.5830536
   1.1475013  70.9684677  84.9615479  80.4019852  41.6081238  10.2381287
  81.2392273  41.2867775   9.9034758  80.2827148  41.1464539  11.0681086
  61.4856644  30.9368954  37.3803177  60.8949738  30.7125759  36.6612930
  60.9049835  31.2035580  38.0930138  60.4028206  42.8564835  52.6625443
  59.9419174  43.1137657  53.4610443  59.7250519  42.8488541  51.9866714
  28.3736629  62.4356804  62.8410034  28.4189796  63.3288879  62.4998817
  28.3066139  62.5446892  63.7896080  66.7356110   4.0438805  46.8722267
  66.0406723   4.3664832  47.4459991  66.5099487   4.3857832  46.0071182
   7.9285107  71.2221985  74.0046997   8.1432419  71.1866837  73.0725708
   7.8169193  72.1547470  74.1894150   2.7263699  31.8011112  53.0595665
   3.5523171  31.7727451  53.5425148   2.0537510  31.6672401  53.7273216
  27.2833576  59.9637909  65.1365585  26.4234962  59.8325195  64.7370148
  27.2863750  59.3805046  65.8955078  36.7058182  51.8333282  50.2479630
  36.2426414  52.6708450  50.2317276  37.3387794  51.9234467  50.9603310
  49.0406570  65.9517593  79.9955673  49.5796585  65.6040268  80.7060547
  49.1322021  65.3113937  79.2900238  18.5139370  46.7046661  45.3735619
  17.7508469  46.6166725  45.9446831  18.6796455  45.8167496  45.0567436
  57.9460831  29.3899822  49.1658325  57.0363655  29.2036877  49.3980789
  57.9665108  29.3301830  48.2107239  56.5363731  35.8597527  71.5465622
  56.8641281  36.2840500  72.3395233  57.3155022  35.4845963  71.1361389
  53.1891403  29.4548397  44.7511673  53.4336739  29.2290306  45.6486320
  53.3820229  28.6658745  44.2446480  69.1068726  40.3724594  18.4734020
  69.7331543  39.8695450  17.9527454  69.5006714  40.4166603  19.3447227
  51.5018272   3.2802091  12.3782845  52.0228043   2.5593445  12.7320786
  50.8349571   3.4436183  13.0452251  70.7674789  18.0979424  43.8612747
  71.3395081  18.5377083  43.2322960  71.3323135  17.9161663  44.6123734
  67.9738312  54.4103470   5.8391242  67.3013763  54.8029594   5.2824440
  68.6854858  54.1920700   5.2373514   0.1959375  16.2770920  43.9408569
   0.5014032  15.4592600  44.3333817   0.1865273  16.9019108  44.6659393
  83.4380646  15.7984734  77.7111893  82.7947159  15.9907188  77.0289993
  84.2830811  15.9897299  77.3042526  21.4929066  57.6377487  88.7792282
  21.7026806  58.5676270  88.8661270  20.6733341  57.6222763  88.2849731
  50.4674759  37.8639412  68.8267059  49.7227631  37.4214745  68.4194489
  50.9590912  37.1620674  69.2532272  14.2277012  67.8758011  71.6889572
  14.1311483  68.4720001  70.9463577  13.8534298  68.3530273  72.4294968
  26.1329327  49.9047470  44.1217232  26.1400051  48.9560318  43.9947510
  26.4997272  50.0320358  44.9966469  78.3824615  44.7347221  10.5555954
  77.6445084  44.5605812  11.1398363  78.0547028  45.3962860   9.9463844
  -0.1148333  27.7323666  81.5164185   0.7003348  27.9520950  81.0653687
  -0.2533855  26.8052750  81.3226776  47.8131561  18.1496468  50.0922737
  47.3362770  17.6562614  49.4248962  48.7348404  18.0396118  49.8585510
  47.9477501  65.2985229  22.0177059  48.8935966  65.2975998  22.1646843
  47.8505592  65.1206284  21.0822182  66.3349457  43.7072906  66.5391312
  67.2476349  43.4209938  66.5035248  66.3858414  44.6579628  66.6384811
  53.1201172  61.7591095  64.2412720  53.0240555  62.4572067  63.5934525
  53.4543343  61.0137138  63.7423592  68.3098068  68.1051025  37.1347313
  68.0256958  68.3737411  38.0084229  69.2503510  67.9520645  37.2252388
  38.3390121  27.4014053  53.5186691  38.6764870  28.2971134  53.5115814
  38.2755089  27.1767235  54.4469566   1.7628006  69.8630829  51.8227272
   1.9233078  70.6770477  52.3001556   1.0827810  70.0879745  51.1877251
   6.8473034  62.7776451  18.0889683   6.1966496  63.4602356  18.2531376
   6.3851457  61.9584808  18.2667656  21.3960533  32.8064766  86.3220062
  22.1842785  32.6406059  86.8391342  20.7307835  33.0426178  86.9684525
  50.3457031  25.0450459  57.9520454  49.8553162  24.5767689  57.2764206
  50.6652451  24.3573093  58.5361214  86.1737518  36.1189194  28.3740196
  86.8156586  35.9989510  29.0738754  85.5632782  35.3895111  28.4813290
  18.4967651   3.4498949  73.2467575  17.7039280   3.9364839  73.4723053
  18.5037251   3.4336979  72.2897186  28.3896465   5.5794625  73.6839294
  27.7572765   6.1798162  74.0787964  28.0930672   5.4801998  72.7792664
  67.9442749  65.6319046  51.2642975  67.9578629  66.0221558  50.3903694
  68.1154022  64.7021790  51.1141243   4.9254937  13.0558243  23.0400620
   5.4816551  13.7932100  22.7887077   4.2056508  13.0728598  22.4093742
  22.9500046  34.5398254  61.6993103  22.7267570  34.1123810  60.8724594
  22.6282177  33.9408951  62.3730812  46.9764938  20.5103264  64.3838348
  47.5930939  20.4247551  63.6567078  46.2343254  19.9596062  64.1345901
  46.9013672   0.8546279  74.7713470  46.1722221   1.4571055  74.6243668
  47.5393944   1.0811985  74.0947266  63.6579704  29.2415295   4.9205551
  64.3472366  28.5797024   4.9764833  62.9733353  28.8303204   4.3929081
  61.4539871  52.7450333  81.8455582  62.3898506  52.5554886  81.7787323
  61.4141579  53.6306648  82.2065277  74.3083954  43.4485970  84.8293839
  73.4244843  43.1008911  84.7109222  74.8850174  42.7160912  84.6121902
  13.6223927   1.7410464  85.9749985  13.6716280   2.0404103  85.0671463
  14.2764225   1.0445744  86.0333328  62.8494148  56.9945183  75.7281494
  62.0192871  56.8685493  76.1877670  62.5957603  57.2260170  74.8346710
  44.7640648  10.0108185   2.6696975  44.0591545   9.4310617   2.3812327
  44.9507065  10.5586700   1.9072964  26.2565212  25.9027538  83.0753708
  26.2368870  25.1379662  82.5000916  26.5407581  26.6207180  82.5097122
  53.2975616  16.4809494   3.8605962  53.7060699  17.1315250   4.4316516
  53.6940804  16.6326160   3.0026903  21.7537479  56.4962387  43.3003578
  22.7077942  56.5221558  43.2271614  21.5764809  55.7345581  43.8523064
  74.1568222  10.0634956   1.1836331  73.4033432   9.7257481   1.6678151
  73.9670105  10.9940100   1.0638509  22.9019413  32.7084389  75.8914948
  23.1894398  33.3349190  76.5556412  22.7329483  31.9025745  76.3796082
  26.9591045  68.2423325  51.8714676  26.6437836  67.5905838  51.2453384
  27.4900761  68.8413925  51.3466530  57.7703629  44.4237022  43.0070801
  58.3675346  43.8665047  42.5079269  57.0585785  44.6184425  42.3974304
  40.8862305  58.6622276  42.8080750  39.9355927  58.7640572  42.8544273
  41.1753616  59.3713951  42.2338676  64.9610291  58.1321030  34.8165894
  65.8635406  58.2910843  35.0930443  64.7209320  58.9149857  34.3209267
  35.8775520  36.7676620  43.1146507  35.9587746  35.8293877  42.9435539
  35.2808723  36.8242569  43.8609772  31.9932003  54.6433601  74.0528336
  31.9151840  53.6907349  74.0014038  32.7934990  54.7912788  74.5566940
  30.7100964  71.1501465  82.4169083  29.7947483  71.4266739  82.3733063
  31.1903706  71.8382263  81.9563446  27.5304031  58.3302765  20.3865242
  28.0044479  58.5301514  19.5793304  27.9604321  57.5467110  20.7290668
  31.2041817  36.2020798  76.5564575  31.6799774  36.4287109  75.7574081
  30.7635689  37.0128288  76.8109589  81.6350708  38.2098274  71.1394424
  81.7745438  37.2661896  71.2189713  81.8666000  38.4105835  70.2326279
   9.4614658  50.2129402  81.0520477  10.0712347  49.5243530  81.3171158
   8.6136951  49.7724419  80.9930573  66.9790649  45.3112564  26.0460663
  67.8061752  45.7919006  26.0793591  66.6047974  45.4177513  26.9206009
  64.6252670   7.6058941  61.1050339  65.4835510   7.4188643  61.4853096
  64.0467377   7.7121811  61.8601723  60.7204018  37.3280296  55.1296730
  61.2273979  37.1062546  55.9106979  61.3623924  37.3290939  54.4196930
   1.7439547  54.7938614   0.6997887   1.2242502  54.3370399   1.3611922
   2.0747328  55.5711517   1.1499366  69.2510147  57.9936485   9.4029150
  69.1259689  57.3546333   8.7013063  70.1492310  58.3036003   9.2872934
  -0.1376701  47.3358841  31.2041664   0.1677343  46.7415695  30.5187817
   0.6524304  47.5613480  31.6952248  42.9122543  52.6616669  29.3391743
  43.0218315  53.4885674  28.8696461  43.5946159  52.0921860  28.9837761
  66.2608414  68.5212860  46.2922173  65.4536438  68.1479568  45.9382629
  66.0109711  69.3974762  46.5856247  38.8745918  47.3251495   9.8829975
  38.8812485  46.8104782   9.0759678  39.0983772  46.6968727  10.5695982
   6.7310300  46.7526588  19.0894413   6.8031631  47.0814438  19.9855042
   5.8577695  47.0223083  18.8049450  14.0340605  51.9245529  12.7190685
  13.1714783  51.5200272  12.8114967  14.0239420  52.6543655  13.3383446
  76.8194275  68.4416656   4.1934261  77.5084305  67.8803635   4.5490146
  76.0660248  68.2861252   4.7630038  39.4189835  31.5929070   6.8178096
  39.8927536  30.8303547   7.1499066  38.5244522  31.4773464   7.1382632
  81.3525467  71.0525055  15.6151447  81.5899811  71.4652863  16.4454861
  80.4539108  71.3396683  15.4532452  22.2487602  12.6277361  71.8918686
  21.4504204  12.8107071  71.3964844  22.9565735  12.9458447  71.3314743
  39.5242271  29.5238056  20.2335281  39.6895027  29.5788136  21.1747456
  38.6117668  29.2424297  20.1666203  53.5981407  66.2204056  53.5860519
  53.9703102  65.3406525  53.6473656  52.9482231  66.1572800  52.8861542
  64.9434891  64.8016815  76.7712708  65.7814789  65.1450729  77.0812607
  64.4416351  65.5792923  76.5269394  53.3873024   5.9091663  36.8479805
  53.8178177   5.9724441  37.7005539  52.7135696   6.5887837  36.8688431
  26.5497227   7.3177428  74.6595612  25.7582150   6.8181443  74.4591904
  26.2517796   8.2255669  74.7171478   5.4812021   3.0072072  74.7536621
   4.9992476   2.3996203  75.3147278   5.4089131   3.8520300  75.1978226
  52.8219414  31.4890862   0.6390845  52.4864197  31.9735165  -0.1152241
  52.3159294  31.8204994   1.3809392  70.0131226  27.1706448  58.4056396
  69.9615402  26.2148457  58.4013634  70.6798248  27.3774567  57.7506790
  16.3097992  39.3962669  41.9442940  17.2613888  39.2955360  41.9205933
  16.0713177  39.2058868  42.8515472  66.7471542  51.6641808  48.0233421
  66.5850525  50.7221375  48.0734100  67.3083344  51.7701569  47.2551727
  54.5312080  27.1205959  43.7040596  54.9777374  27.1902523  42.8602676
  55.2002144  27.3507690  44.3487968  42.0505905  28.8655186  72.9290771
  41.5952950  28.3903275  72.2340012  42.3653793  29.6645851  72.5064316
  62.7845459  51.7214127  21.3562164  63.0291176  50.8028145  21.2439747
  63.3614120  52.0397301  22.0505733  11.5048723   4.7113705   0.0279960
  10.7343664   5.2055216  -0.2519464  11.4571085   4.7145333   0.9839983
  71.2690735  52.7578773  62.1264839  71.3592834  52.2093964  62.9057503
  71.7088318  52.2644730  61.4340973  27.7291069  54.7172089  81.3580017
  28.3977337  55.0254402  80.7463150  27.3420410  53.9557648  80.9260178
  74.5406113  34.8639030  56.2146606  74.4134979  33.9173927  56.2793770
  74.3657837  35.1899605  57.0974693  52.7634315  62.8873520  57.2996140
  51.9747925  62.8728256  57.8418961  52.7207947  63.7243958  56.8372574
  15.8791914  13.2574329   2.1721897  15.0534554  13.1000500   1.7143450
  16.3643913  13.8471909   1.5951294  64.1405869  14.6245146  76.8364944
  64.4370499  15.1052799  76.0637054  64.9400864  14.2514362  77.2077713
  83.1521454  30.7226734  51.7965622  82.6324081  30.1475525  52.3581161
  82.8734055  30.5047684  50.9071503  45.8540802  10.7996864   0.3673994
  46.4437637  10.0485544   0.4330314  46.3949585  11.4971590  -0.0030275
  43.0627441   5.5913301  19.8779411  42.8569946   4.8252487  19.3422012
  42.6060486   6.3141727  19.4476376  52.9878616  13.7650728  84.7999420
  52.3455048  14.3877859  85.1402893  53.4085808  14.2271776  84.0748978
  81.0997009  49.5636749  61.0809517  80.6512833  50.2934341  61.5082741
  81.9928818  49.5978050  61.4234352  12.6638231  68.6823044  62.8221512
  13.4610338  69.1911545  62.9696579  12.9770021  67.8054581  62.6001434
  60.6443787  29.3775387  69.8262711  60.8824005  30.2862129  69.6421890
  60.8922768  29.2456818  70.7413635  81.0618973  32.7284088  65.0940018
  81.4235001  32.5510254  65.9623413  80.1279068  32.8704987  65.2479477
  64.5280533  37.5100670  33.0494499  65.1806641  38.1391869  33.3569260
  64.8399429  36.6645126  33.3719368  17.9126968  64.8133392  89.2621002
  17.0716801  65.2264938  89.0665970  18.2027683  64.4524765  88.4243240
  71.7666855  48.5140266  46.6348610  72.6286774  48.9301491  46.6415329
  71.8747253  47.7306290  47.1741638  12.1826878  44.2160873  34.4684868
  12.2044888  43.9983978  33.5366249  11.7959108  43.4461021  34.8853340
  49.7633896  71.7446976  47.7930183  49.4796066  70.8326950  47.7301598
  49.1360092  72.2283325  47.2556953  84.4345322   3.3427987  59.2649117
  84.0343170   3.6051269  58.4359055  84.5002594   2.3895502  59.2080841
  74.1126556  43.1434898  55.2658272  73.2209778  42.7969093  55.2338295
  74.6584549  42.3824768  55.4637909  20.3821030  43.6695328  49.2521324
  19.7671680  44.3822021  49.0783691  20.7804050  43.8964043  50.0924377
  19.1330471  48.3473740  16.7503376  19.9343929  48.8218842  16.9715080
  18.4596424  48.7437859  17.3031616  38.5919495  43.9654121  87.6847534
  39.1279106  44.3294678  86.9801636  37.7359009  43.8178482  87.2827148
  55.5931320  19.0895901  38.3334618  56.2424698  19.7880440  38.4156456
  55.5195694  18.9406586  37.3907852  76.7836151   6.0027308  68.0620956
  76.3111801   5.3873711  67.5014114  76.3871078   6.8529444  67.8719711
  19.8863029  70.7097931  77.8509369  19.6469326  71.6358871  77.8867950
  20.5928497  70.6698151  77.2064056  41.4032784  17.5212650  58.3775177
  41.1215591  18.3188744  57.9295349  42.3594627  17.5573902  58.3522873
  63.0459518  35.5054550  85.5433350  62.6825447  35.5382195  84.6584091
  62.4944839  36.1008263  86.0509186  43.8025513  21.4065876  30.8173485
  43.3085594  21.5850964  30.0171356  44.7075844  21.6234951  30.5935326
   0.6896489  32.6288376  47.4142036   0.4682834  33.3739548  46.8556023
   0.6844081  31.8762226  46.8227844  86.2014618  39.7129364  35.7039299
  85.4200134  39.5185547  36.2214050  85.9677658  39.4567451  34.8117485
  36.2395897   3.7694106  70.9377899  35.6777802   3.0089974  70.7881927
  36.3675270   4.1475306  70.0677948  35.6095963  39.9878654  53.5594482
  35.8841248  39.1636009  53.1576309  34.7291908  40.1401749  53.2160568
  16.2717533  58.4708519  26.1101208  15.8843050  58.3853111  26.9812107
  17.2065125  58.5946274  26.2748547  37.7998199  37.6706886  38.5017319
  38.4902344  37.0405388  38.2956429  37.5951424  37.5090523  39.4227180
  61.6494484   7.6533885  50.1586380  61.3677139   7.0108008  50.8097458
  62.5874977   7.4936714  50.0547943  11.6066275  50.8589363  84.2809601
  11.9582424  50.7339706  83.3994904  11.8824396  51.7422180  84.5258484
   7.7067018   1.1517396  78.3320312   7.1393547   0.9852516  79.0847778
   7.4423246   2.0170214  78.0195847  58.3701019   6.0346375  23.7298222
  58.0621338   5.2182050  24.1233025  58.6677055   5.7819743  22.8558502
  29.1853104  58.6311302  12.5320396  28.8948250  58.2046852  13.3382635
  29.2537518  57.9192657  11.8958035   7.9621420  33.8994904  74.4653549
   7.2347050  34.4133682  74.1146469   7.7938585  33.8575821  75.4067154
  18.1149464  66.7860489  71.7068634  17.8565998  67.6357574  72.0639267
  17.4674244  66.1730728  72.0550003  18.9324703   6.6156988   6.3478289
  18.5681267   6.1740746   7.1149364  19.7158375   6.1105213   6.1302004
  11.5384388  13.2031488  71.8437424  12.0522013  13.1827269  71.0363617
  11.9581413  13.8776588  72.3777084  78.2393112  67.1423340   9.8278875
  77.8114700  67.0308685   8.9789133  79.1167145  67.4596634   9.6141005
   2.1266425  61.1756172  44.9138565   1.8115933  61.0117912  44.0249596
   3.0499351  60.9241562  44.8908768  62.3520927  47.4076538  69.9751968
  62.7792282  47.5932236  69.1389236  61.7054405  46.7326241  69.7692642
  79.6425781  44.1842842  46.2271576  80.4237900  44.5316544  45.7967186
  79.9762192  43.5167580  46.8265953  44.9309883  44.1390457  25.2002182
  44.8154259  44.9200516  25.7414284  45.0729218  43.4310646  25.8285885
  12.0960846  31.4286613  55.8758125  12.7820215  31.7780170  56.4447365
  11.2850151  31.5695038  56.3642426  59.4904251   8.6460075  39.0249634
  60.1740532   8.0081062  38.8201065  58.7713547   8.4248514  38.4331398
  19.6621494  54.2273369  68.8034363  20.3765278  54.5924301  68.2813187
  18.9706860  54.0431747  68.1676712   4.5713830  65.2145767  11.8922386
   5.0416479  65.9452209  11.4906826   4.0451727  64.8487320  11.1812592
  79.6233139  18.3866043  76.2599716  79.4076996  18.7445755  75.3988113
  80.3478928  17.7835274  76.0940933   8.6331739  39.3783989  11.5022860
   8.7347393  40.3275490  11.4313736   8.5214109  39.0813484  10.5992355
   9.8906116  24.9413910  13.3041458   9.9068050  23.9887123  13.3956528
   9.3571358  25.0981331  12.5249996  61.7971420  33.7486496  65.2680283
  60.8992119  33.5324898  65.0165634  62.3296318  33.4591408  64.5271683
  76.9098511   9.0566015  33.3645134  76.7883072   8.5323286  32.5729332
  77.6010895   8.6039715  33.8477821  86.3605118  38.0170059  74.5361023
  85.5591888  37.8578415  75.0348816  86.8436203  37.1923943  74.5894775
  22.2466831  71.2292709  23.5636406  21.9190712  70.3300400  23.5807152
  23.1451912  71.1507874  23.2430840  13.6011868  65.8914185   2.1423542
  13.4370918  66.7934494   1.8673177  12.7700634  65.4406052   1.9932570
  39.0076218  41.7955360  61.5195312  38.6521912  41.3844261  60.7315674
  38.7681122  42.7185974  61.4369278  54.2974854  20.7090626  32.7489357
  53.5553322  21.2524529  32.4840469  55.0683517  21.2272129  32.5175934
   5.1408749   5.6715531  68.5337982   6.0649610   5.8399544  68.7180176
   4.9991827   6.0411053  67.6622543  71.3947067  21.6662598  88.8375168
  70.4646683  21.5841084  89.0485077  71.8324661  21.0757389  89.4506073
  60.3793259  32.5820885  34.0615120  60.0645561  33.1633148  33.3691750
  61.2376137  32.2884827  33.7559433  50.3650970  40.0203362  37.9119110
  49.4205666  40.1737175  37.9356956  50.6916122  40.4105911  38.7226639
   7.8672071  59.6762047  33.8453636   7.6838303  59.9015770  34.7574005
   8.3853865  58.8730316  33.8966484  41.4877625   8.9955854  11.5477934
  42.2703896   8.7204533  11.0702715  40.7597694   8.7457161  10.9787340
   3.3675160  28.4711704  58.2305489   3.5176985  27.6380787  58.6773567
   3.9072490  28.4205589  57.4416504  32.0461998  20.9733295  63.6417122
  31.6362724  21.1547222  62.7959633  32.4729462  21.7956619  63.8823166
   3.2596598  57.4993362  63.8409882   3.7904584  56.7918282  63.4750443
   3.2352064  57.3189735  64.7807236   0.1248323  50.9826431   7.8512044
   0.5666853  50.4927864   7.1576366   0.1138754  50.3837128   8.5977936
  16.9371471  58.2675896  56.0406418  17.2692356  59.0915680  55.6842575
  16.0358582  58.2150421  55.7225990  25.6861782  70.7290497  63.0073929
  26.5205345  70.8212814  63.4673691  25.9199524  70.7557983  62.0795631
   3.7225316  26.2502556  77.5168533   3.5458968  26.1313286  76.5836411
   3.2374675  25.5443897  77.9442825  11.4350882  37.1888771   5.6379437
  10.9923582  37.0351830   4.8033180  12.3445578  37.3658905   5.3976030
  48.8034706  41.8481979  72.4536057  48.8451881  41.5021858  71.5621033
  48.1972961  41.2640076  72.9091339  10.2243500  11.4682465  67.7591629
   9.8208761  11.0035067  67.0260468  10.4370298  12.3325090  67.4069519
  18.9632683  43.8745918  19.4531479  19.5437298  44.5632553  19.1290455
  18.1529026  43.9913521  18.9572582  77.5568695  48.3973541   8.3020611
  77.6589661  49.3446426   8.2101259  78.4415512  48.0491943   8.1909046
  39.8442726  12.2904520  88.0252457  38.9067268  12.3542767  88.2073593
  40.1400566  11.5464478  88.5498428  62.2583580  22.1695728  81.6867905
  61.3200874  22.1816101  81.8758240  62.5025864  21.2458897  81.7450409
  11.4326525  56.2595711  66.8472214  11.7692385  55.7832680  67.6062164
  10.4915695  56.0847473  66.8527832  33.6030273  12.1441355  80.1141815
  33.6129417  12.2421818  81.0662918  33.2728577  12.9822655  79.7905197
  52.4668961  25.1324959  55.8555183  51.9076958  25.2634087  56.6212769
  52.0385666  25.6292820  55.1584053  30.0818596  58.4915657  54.7453232
  30.9641933  58.8618736  54.7210655  29.6439266  58.8658447  53.9808884
  21.9598198  58.7491188  55.6364594  21.8762093  58.7280159  56.5897675
  22.5108147  57.9947891  55.4275970  11.7608852  40.0762901  37.7413940
  11.3319702  39.2240982  37.6637306  12.5609732  39.8975945  38.2355194
  56.4363899  49.6950302  25.9236794  57.2029762  50.1263046  25.5460835
  55.9878044  49.3042641  25.1738129  27.4646053  64.7153549  32.3257370
  27.6607723  65.6499100  32.3917198  28.1954861  64.3519211  31.8257751
  66.6774979  10.8689270  86.6745758  66.2920456  10.7962132  87.5477066
  66.1187439  10.3244400  86.1199875  58.4343834  64.1054077  16.4564972
  58.7143250  63.2900848  16.0404339  57.6272736  63.8747406  16.9165001
  19.8747559  66.9247360  25.8796329  19.8369942  66.0178604  25.5757027
  19.6805706  66.8720016  26.8154449  74.2792358  37.8331108  78.2718277
  73.7308807  37.0542946  78.3666229  73.6911621  38.4979286  77.9134827
  30.8545494  55.5088310   2.8590007  31.7624245  55.5566711   2.5594957
  30.6473446  56.4004669   3.1387918  49.8521461  58.4221802  27.4449348
  50.3242989  58.0546837  26.6977749  50.3053017  59.2438431  27.6340027
  82.5395279  58.8039589  28.6720943  82.9443283  58.3215179  29.3929424
  81.6278458  58.5122948  28.6708202  55.9893875  17.2980461  42.1157837
  56.5567780  18.0655079  42.0429611  55.2020912  17.5348606  41.6255646
  22.0488758   5.7966385  62.7777443  21.3738308   6.4470572  62.9713936
  22.1324711   5.8147631  61.8243713  35.0524216  38.0949593  38.4547501
  35.9566956  37.8064728  38.3310814  35.0647888  38.5729523  39.2839661
  83.9726639  11.8163280  13.9002399  83.9016571  10.9620123  13.4744072
  84.0584717  12.4378700  13.1773615  68.0586929  10.9209414  28.2520218
  67.8371506   9.9944487  28.3456306  67.9829712  11.2759838  29.1377106
  28.5936279  50.8616829   8.8561888  29.4901638  51.1128006   8.6339407
  28.1210194  51.6916924   8.9191017  66.1461945  62.3830299  32.9394264
  66.1052628  62.7173004  33.8354263  65.5822678  62.9719810  32.4380722
  16.3681850  27.5049057  69.7341385  16.8829880  27.2251205  68.9772186
  16.2710438  28.4504719  69.6214447  48.9928398   7.5684786  79.9045563
  49.0414085   6.6826062  79.5452423  49.8820229   7.7534075  80.2068634
   9.1952276   3.6650152   2.2254248   8.5472345   3.9515686   2.8690276
   8.9649496   4.1389914   1.4263314  50.6680222  65.7770767  38.9520836
  50.5892715  65.0640869  38.3182983  51.1756744  66.4481430  38.4958076
  56.0186958  28.0664101  27.4967747  56.0789413  28.6988754  28.2127285
  56.7928658  27.5130653  27.6002312  22.9762726  52.5022163  74.4279404
  22.2315254  52.3068581  73.8592377  22.9034481  51.8705482  75.1434250
  58.6986122   1.7427300  16.8445854  58.9914703   2.5987155  17.1572418
  58.4128304   1.9012872  15.9449081  84.6115265  47.6614876  17.6749535
  84.1972122  46.8454361  17.3945370  84.9445877  48.0511131  16.8665619
  53.9827652  48.6657448   5.4958854  54.0667572  49.0729599   6.3580637
  54.5518913  49.1860580   4.9287844   4.8190098  51.7575188  69.4456100
   4.2617326  51.3740234  70.1228104   4.2935033  52.4673958  69.0766220
  41.1365585  34.2102127  73.5657730  41.2066307  34.8274460  74.2940140
  40.9219513  33.3744011  73.9800110  36.4523010   6.9585524  58.0916595
  37.3686523   7.1350994  58.3046494  36.2608604   7.5407147  57.3563576
   8.7589550  64.8935852   8.1037130   9.3969011  64.2069778   7.9092216
   8.4890156  64.7211685   9.0057316  70.9585571  35.1287117  71.8383484
  70.0067368  35.2196960  71.8829880  71.0986023  34.2770844  71.4244003
  16.7370892  51.9876213  12.0318670  15.8162985  51.7711830  12.1785946
  16.7889519  52.1934891  11.0985069   4.7625818  52.4080772  27.4746647
   3.9480712  52.4618225  27.9745808   4.4855833  52.4555511  26.5596504
  56.6531372  31.8766594  87.6299820  57.2146454  32.2150345  86.9325333
  56.5827179  32.5999908  88.2529297  45.9753761  16.3798752  73.4968567
  45.9776955  15.7596016  72.7678299  45.0480537  16.5314217  73.6794434
  78.6979828   5.7817140  32.7496452  79.1558609   4.9411898  32.7597809
  78.0131378   5.6893892  33.4119797  73.3294601   8.2116394  68.6382904
  73.1863174   7.8195891  69.4997101  72.7815781   8.9965315  68.6383286
  36.4624634  22.4531651  87.1921768  35.9121437  22.2671700  86.4313965
  36.7764854  21.5947208  87.4762497  78.5516357  19.1156940  49.6620636
  79.5008698  19.0327873  49.7532425  78.2449875  18.2193565  49.5250168
  58.2078667  51.8755341  41.0520287  58.2374077  51.2178192  41.7468452
  59.1035690  52.2090111  40.9996567   2.8793788  40.1262283  88.6284332
   1.9228338  40.0920906  88.6190414   3.0873961  41.0506477  88.4927444
  63.8885536  27.7480984  69.9322205  64.7601242  27.7430878  70.3279190
  63.8666382  28.5508175  69.4112701   1.5199836  30.8841038   5.9322052
   2.0694807  30.1805191   6.2775364   0.6537347  30.4876709   5.8390083
   4.1500273  48.2177658  65.6059113   3.9224060  47.8825264  66.4731140
   3.5022130  48.9016190  65.4358673  81.5728989  64.9989548  74.8938141
  81.2802277  64.7624969  75.7739563  82.0659637  65.8103485  75.0152740
   8.2244368  43.3155861   8.2908449   7.7806964  42.5602188   8.6765261
   9.0512142  43.3776436   8.7691956   7.5872045  55.3261833  86.7577591
   7.5542731  55.7971115  87.5904465   8.4258471  54.8651352  86.7763443
  75.6639404  11.9895210  82.8040466  75.1681671  11.6445265  83.5466232
  75.1889343  12.7791462  82.5450287  49.0200729  59.2967911  72.5848312
  48.3786354  59.7637749  73.1202927  49.7804794  59.1941566  73.1570969
   1.0005773  18.7357216  67.7194595   0.4779884  18.5200443  68.4918671
   1.8878200  18.8582249  68.0571365  69.4965973  55.3610420  77.1822891
  68.5543976  55.1969299  77.1428452  69.8777237  54.5141640  77.4141846
   0.8828493  36.3852348  52.2508202   1.1904726  35.8350143  51.5305023
   0.8211142  35.7896843  52.9976425  69.6607742  16.2653942  53.8516731
  69.3414307  15.4203367  54.1681099  69.6874924  16.8188591  54.6321831
  65.0574417  27.2891426  27.6597919  64.3688049  27.0306168  27.0472717
  65.2551117  26.4904652  28.1489487  72.3290939  67.0526428  12.1462584
  72.4306793  66.1211395  11.9507923  71.7109146  67.3695374  11.4877224
  70.2131958   9.7735710  64.2920761  70.4054794  10.6916189  64.4829865
  70.1764221   9.7302475  63.3365631  61.8913040  69.2292175  27.4847412
  61.9851112  70.1124573  27.8415489  61.3204956  68.7787933  28.1072578
  57.7663116  53.9516182  87.9293365  58.7170143  54.0551872  87.9701843
  57.6362000  53.0757370  87.5658264  66.6582184  19.0690155  35.5207138
  66.4243851  19.2526379  36.4305725  67.5993881  18.8963413  35.5454674
  59.8999443  22.0057564  33.0546570  60.0721397  22.9176922  33.2890816
  60.7584229  21.5836906  33.0879822  19.4313183  17.1702747  67.8171768
  18.7542953  17.5303097  67.2442474  19.2096405  16.2424583  67.8962326
  59.8806572  32.4427605  80.3101807  59.2001534  32.9268875  80.7779083
  60.1351509  33.0213776  79.5913849   0.8859503  53.4562645  55.8970451
   0.4578319  52.7756157  55.3777542   0.2212238  54.1383591  55.9925117
  12.5091686  22.9486408  66.9979324  11.7188730  22.8210297  67.5226974
  13.0368204  22.1678543  67.1658249  20.6125946  71.6199036  52.0677261
  21.0636044  70.7814407  51.9687271  21.0629539  72.0497360  52.7948151
  12.2628412  54.0583153  14.4949579  12.9410858  54.6721077  14.7768736
  11.9017067  53.7095413  15.3099232  48.6576424  23.0430660  61.2538681
  48.5538177  23.6675510  61.9718323  47.7623405  22.8227253  60.9967308
  85.5569763  14.0802383  66.5568085  86.0071640  13.4137449  67.0757980
  86.2351685  14.4344044  65.9816132  28.4635105  43.3883171  43.9400711
  28.6785145  42.6634331  43.3530884  29.1851349  43.4096756  44.5685883
  32.1411362  57.3265114  46.0625687  31.4877167  57.2122421  46.7526550
  31.9779816  56.6040421  45.4562302  60.4937477  65.1179810  45.7015915
  60.7620583  65.9568253  45.3266449  59.9352303  64.7238312  45.0315628
  10.3709574  53.3092766  60.6014709  11.3095884  53.4724045  60.6941643
  10.3165894  52.4317398  60.2230492  31.7931461  59.2668724  78.5268326
  32.3127556  59.5412865  79.2824326  32.4219742  58.8371582  77.9470444
  48.9362984  53.2684364  19.7682095  48.4748650  53.1681709  18.9355888
  48.6109238  54.0952072  20.1243191   4.4573493  62.2875443  36.2688637
   5.0381479  61.7626305  35.7180710   4.9830403  63.0490875  36.5136719
  61.6649055  39.6790962  81.2514267  62.0140572  40.4348145  80.7789688
  61.3847847  40.0328903  82.0955734  11.3119984  16.1309128  73.6881485
  11.0382490  16.7164459  72.9821472  11.6500587  16.7154427  74.3665848
  59.8303642  60.0915184  41.8679352  60.4336357  60.0364914  41.1268082
  58.9693108  59.9135208  41.4896011  64.6470108  61.3026161  20.3014164
  65.2553940  60.5640450  20.3263741  64.7879868  61.7001152  19.4421444
  34.6008148  64.0584106  42.0339470  34.0414772  64.8021698  41.8099213
  34.5370102  63.4745255  41.2781410  64.9667053  34.0260391   5.3928719
  65.3431091  34.0780792   4.5143261  64.2647934  33.3799248   5.3148270
  39.7341957  67.7334442   5.9200282  39.9805565  67.0378799   5.3103361
  39.4103165  67.2708664   6.6929173  27.0444946  42.1439323   9.1904650
  27.0799084  42.6115341  10.0249271  26.3272781  41.5189400   9.2963820
  82.0048828  43.2207565  50.5024300  81.2407455  43.0073357  51.0379410
  82.0291824  44.1775703  50.4903107  72.3416061  23.8942165  53.4569435
  73.1571579  23.6490669  53.0198936  71.9840164  23.0665817  53.7784767
  52.1924896   5.6584010  54.4263916  51.8988838   5.0225940  55.0789070
  52.0509224   5.2221270  53.5862427  45.4540329  17.4919395  23.2358971
  46.3801956  17.2549114  23.2835426  45.1096611  17.2883663  24.1054935
  15.7082815  63.2796364  57.1884727  15.1197405  63.1075821  57.9234886
  16.3147488  62.5390778  57.1888161  32.8698730  15.5706263  68.2866669
  32.3681755  15.8628006  67.5256348  33.4759026  16.2898769  68.4645386
  81.4691925  32.4394264  62.3602791  80.7001343  31.8800182  62.2514153
  81.4384079  32.7131805  63.2769814  14.6101437  34.2177696  65.7621841
  14.7161188  35.1067924  66.1007690  14.1563139  33.7476082  66.4616241
  25.5425014  14.6763334  86.7599564  24.8449516  15.1182375  87.2440796
  25.2457790  13.7692242  86.6868668  49.5527382  52.5921974  24.8805199
  49.8475761  52.5402832  23.9713402  50.0055504  51.8728104  25.3206043
  37.6330185  10.6204596  72.8654251  38.1630745  10.1594543  73.5156174
  38.2691879  10.9662209  72.2393570  25.1004333  47.5920563  39.7451401
  25.3747787  46.6904602  39.9127350  24.3603745  47.5093536  39.1437187
  78.7761917  22.4329948  16.3773117  78.3746719  23.1801243  16.8209457
  78.4941254  21.6726379  16.8857689  15.3042898  62.5167542  50.7864876
  14.7332726  63.0221939  50.2079544  14.7315578  62.2305946  51.4980507
  46.2886734   3.3480165  51.0407867  47.0915070   3.8381009  50.8632736
  46.5877151   2.5445449  51.4665108  67.0503464  49.6524429  26.1991043
  66.3712006  49.3689308  25.5870399  67.1050568  50.5998688  26.0741138
  19.0781021  46.4974594  35.7640572  18.2259560  46.4798546  36.1996841
  18.9797134  45.9018250  35.0212440  51.0821266  69.2634506  22.6355000
  51.9310341  68.9949417  22.2840843  50.5404510  69.4176865  21.8615303
  77.5215530  50.3871880  39.8649635  78.1768112  50.8532219  39.3456650
  77.7682037  50.5607262  40.7734108  77.1841736   8.4805384  43.5149765
  76.3176117   8.4695911  43.9214020  77.4138107   9.4084663  43.4655113
  78.9919586  52.8352165  25.9996967  78.3849182  52.7820244  26.7378750
  78.7205429  53.6192932  25.5224266  76.0492554  45.1711006  77.2819061
  76.6997375  44.6067162  76.8640823  75.2589111  44.6329994  77.3270264
  45.9923439  41.9017143  38.4156685  46.0609894  42.3118286  37.5535049
  45.0613556  41.9533958  38.6320381  17.4157448  32.1589203  20.4946690
  16.8588676  31.4470596  20.1794300  18.1787548  31.7183990  20.8688202
  78.3170013  17.1648369  87.6559448  78.8011398  16.5879841  87.0651169
  77.9359894  16.5756359  88.3070297  51.3931923   9.8532429  75.9389114
  51.1894302  10.6769581  75.4959641  50.5407524   9.5035419  76.1983109
  70.4618683  47.3591194  60.9718132  70.9143219  47.5171661  61.8003922
  69.5858688  47.0709991  61.2284241  79.5717239  57.5255737  11.1280441
  79.1578445  57.2041817  10.3270197  79.9737625  56.7493286  11.5179768
  58.2167625  51.1770363  79.0785751  58.0516014  52.0737915  78.7873993
  57.9317589  50.6309853  78.3458862   3.0664313  15.7547321   3.7669365
   3.1128144  14.9759560   4.3215432   2.8472037  15.4174948   2.8983500
  59.2770920  18.3617096  27.9465542  58.4896584  18.5133266  27.4238720
  59.2177277  17.4428425  28.2080688  47.5378304  66.5584869  12.7083445
  47.2384834  66.0752335  11.9382229  46.9404984  67.3038483  12.7705030
   5.4962354  57.5285454  28.3325558   4.5659347  57.7258148  28.2236691
   5.7884727  57.2632027  27.4605350  84.3668442  66.2804184  30.9088097
  84.4755478  65.5161819  30.3428078  85.2602463  66.5662231  31.0995388
  72.1276779  12.4100838  63.9539070  72.6541748  12.1985941  63.1829910
  71.5399017  13.1056480  63.6590538  12.9740200  50.2101746  25.6356926
  13.6093645  50.8992653  25.4414730  12.2794609  50.3356171  24.9890976
  42.0905266  17.2200451  17.8832874  41.5274391  17.9688072  17.6870174
  42.4359245  16.9505234  17.0322342  73.7139511  35.6029549  64.2039337
  73.3810959  36.0198593  64.9986877  74.2211685  36.2880630  63.7685127
   4.7384920  69.6667557  14.9847136   4.7924190  69.7526093  15.9365292
   4.5660810  68.7367935  14.8374949  67.9713821  37.9309998  66.9834747
  68.3273468  37.2796402  67.5878296  68.3145370  37.6759148  66.1270828
  56.6576042  41.5955467  42.3111343  56.1145782  40.8161774  42.4292030
  57.1961555  41.3983727  41.5447655  50.9862366  24.4762955  72.9059448
  50.3038483  24.7288895  72.2840271  51.0585709  23.5267143  72.8095322
  71.2520981  42.6237984  40.1838684  70.5309906  42.7858162  39.5756035
  71.5329742  43.4961510  40.4601593   3.7074811  34.0781288  32.4050674
   4.6247649  34.0608711  32.1320763   3.4103763  33.1738663  32.3037338
  47.4858284  15.5899925  53.2443352  48.4032288  15.7117729  52.9998398
  47.3814735  14.6413498  53.3179474   1.4914982  26.7139130  11.7979898
   1.2565287  27.5479507  12.2046852   2.4286468  26.7904510  11.6187515
  21.3581085  71.1120529  80.9552155  21.9992390  71.6236572  81.4486313
  21.4222393  71.4463806  80.0606003  10.2780848  46.1447983  32.1480484
   9.9048300  46.0929909  33.0279541   9.9692707  45.3518181  31.7098122
  49.5635567  13.9412899  60.6390915  48.6346245  13.8430815  60.4301109
  49.6219749  13.7370844  61.5724297  20.4058952  52.2602539  42.6400642
  21.3218994  52.1445923  42.3874931  20.3427963  51.8545189  43.5047226
  64.8692627   6.2811527   2.8089280  64.9080505   5.4618864   2.3154409
  64.8723679   6.0084600   3.7264578  11.6819096  38.9288788  48.6720352
  12.1342430  39.5999947  49.1831436  10.9638920  39.3962975  48.2451820
  24.1724396  25.0799942  65.8812103  23.5818176  24.3337574  65.7786102
  24.6837730  25.0937538  65.0721512  72.8637466  67.2244797  73.9328384
  72.4763489  66.3496933  73.9628830  73.6978531  67.1329956  74.3934097
  70.7530136  48.8211479  33.5480881  70.9143524  49.7022858  33.2107468
  69.8317947  48.6535492  33.3493538   8.6028957  70.5470886  14.6260328
   8.6054916  70.2203064  13.7263460   8.4286900  69.7730408  15.1615047
  50.4750175  35.7272835  13.1735048  49.7433929  35.9450340  12.5959740
  50.7180405  34.8350830  12.9262180   4.7742009  54.7761192  18.1076832
   4.0812187  54.2111320  17.7659245   5.4133444  54.8278427  17.3970127
   4.8207321  36.3263321  42.4683990   5.6500335  35.9472923  42.1771584
   4.6305947  37.0093193  41.8252792  28.3777390   3.5205629  36.2734451
  27.9247990   2.7209990  36.5413551  28.5003643   3.4214845  35.3293190
  81.1279373  42.6658249  47.8894958  81.8414841  42.5210609  48.5108833
  80.3718796  42.2351608  48.2884102   6.3284292  29.0696526  43.1850739
   6.9413133  29.6310177  42.7102318   6.7671022  28.8847580  44.0155029
  50.5524559  71.2803040   1.4260739  50.6319275  72.2316589   1.3564223
  51.4039993  70.9922638   1.7549075  78.1408005   1.8718513  29.3904572
  78.9180756   1.5809917  29.8674011  78.4450150   1.9996729  28.4919338
  58.7974777  27.1021481   2.8716905  58.6583710  26.4833469   2.1547749
  57.9820786  27.6012745   2.9188766  52.6921196  54.3268623  21.3959789
  52.9069595  54.1057663  22.3021755  53.4629784  54.7943268  21.0742836
  59.2050819  58.5782928   1.6844623  59.1789093  59.0021286   2.5423155
  58.4638062  57.9727745   1.6937619  73.0821838  50.3630600  12.8107824
  74.0271835  50.5133591  12.7860346  72.7139587  51.1996727  13.0948992
  36.2055092   7.1795564  41.9408302  36.0428696   6.6329455  41.1720695
  35.7802086   8.0124598  41.7368126   3.9789183  35.6969109  18.8221493
   3.2492805  35.1539078  18.5238056   4.7203026  35.4182434  18.2846317
  71.6859589  26.6241016  53.1152458  72.0198975  25.7275848  53.1464424
  70.8861389  26.6001854  53.6405563  81.6601639  12.4349527  22.4014320
  82.0891037  11.6298962  22.6914787  80.9429321  12.1361694  21.8423786
   4.0498290  70.4243317   4.5506415   4.9633017  70.7079315   4.5135784
   4.0803308  69.5753098   4.9916129  74.0534973  52.9847565  10.3622952
  74.2290192  53.0909119   9.4273329  74.7921295  53.4132156  10.7948170
  16.1083679  39.3574944  71.3410492  15.6487684  40.1968422  71.3634415
  15.7567873  38.9124069  70.5699997  37.8484154  20.9638348  71.1554031
  38.6818428  21.2363548  71.5392838  37.1955032  21.5192165  71.5814133
  38.7962532  71.5526047  40.2500572  37.9441948  71.7523880  39.8623505
  38.8186760  70.5969543  40.2996559  61.6473503  64.8616638  52.9988213
  62.5018158  64.9202347  52.5713921  61.0373001  64.6630936  52.2884407
  71.0812531  24.9241180  60.3023415  70.5194397  24.5927200  59.6017876
  70.4804764  25.3660755  60.9023209  63.7368584  57.6953926  29.9366703
  64.4530563  57.1513481  30.2642479  63.8796387  57.7353668  28.9910240
  64.6848450  64.6744308  31.8766422  64.0909500  65.3247375  31.5016346
  65.3909607  65.1908188  32.2651901  33.1823616  65.4513321  85.7873383
  33.8017159  65.4871979  85.0584106  32.3236160  65.5544739  85.3772812
  71.9940033  53.3071213  46.7138748  71.3226166  53.9881935  46.7539635
  72.6185989  53.6246071  46.0617142  75.7529984  47.1199265  81.7105408
  75.5889053  46.8702202  82.6199112  76.4610138  47.7619896  81.7625046
  66.6860809   3.7038324  69.7098694  66.0877228   3.2289164  70.2866287
  66.1513596   4.4026036  69.3330078  37.0788498  65.3950272   3.1738741
  37.4790993  64.5259628   3.2013764  37.6555634  65.9064789   2.6063752
  25.3853989   1.4948180  19.3203487  25.8350410   2.1593599  19.8423042
  25.0596848   1.9704158  18.5561829  78.5912399  63.6563644  34.9369469
  78.9410095  63.0682335  34.2676201  78.0542603  63.0928459  35.4940224
  79.9502487  48.8217392  30.2069645  80.7049713  49.3429489  30.4807587
  79.7842407  48.2347603  30.9446163  24.6027889  40.2240067  60.9524536
  25.5429935  40.0446053  60.9445763  24.2376518  39.5625153  61.5401115
  28.9869137  57.4614677  27.8262081  29.9188709  57.3773155  28.0277157
  28.7711372  58.3634377  28.0631104  55.6536179  13.5110779  27.3417358
  55.8958473  14.3973684  27.6101475  56.4833603  13.0347958  27.3114662
  15.2870798  54.7996788  80.3044205  16.2219410  54.6589851  80.1545181
  15.1489286  54.5405426  81.2154617  61.2418900  46.1836128  41.3775368
  61.5760269  47.0262070  41.0699310  60.8354263  45.7907181  40.6051064
  83.6553955  16.0532227   0.1307924  83.5096283  16.4284077   0.9992508
  82.7765121  15.8730106  -0.2028564  52.3834381  56.4130745  29.0481148
  51.5807648  56.2141533  29.5301723  53.0648804  55.9180984  29.5029430
   3.1190314  15.7650604  24.6462097   3.8962693  15.4984055  24.1552639
   2.3836622  15.4809437  24.1033077  48.8178406  20.1626911  82.1960678
  48.5604782  20.8568096  81.5892792  48.0363503  20.0060139  82.7261276
  63.2580986   9.0575571  83.0106583  62.5119629   9.0956345  83.6090469
  62.9113693   8.6409492  82.2217026  81.3209152  30.4564152  85.7784500
  80.7372513  30.0713520  86.4321213  81.8628769  29.7255878  85.4811249
  84.4289780  17.1841125  37.0842209  85.1103058  17.6733608  36.6230736
  83.6354141  17.7051430  36.9616852  24.2259007  39.4271927  42.9604073
  23.6583309  40.0440445  42.4982491  24.0664825  39.6035347  43.8876190
  17.6026573   5.9045572   8.9481201  17.2933731   6.3499379   9.7369242
  18.2886009   5.3141546   9.2597876  52.7069588   1.4034945  36.2266579
  52.3808632   1.2926897  37.1197510  53.3216171   0.6799411  36.1046143
  76.5978699  25.4801292  86.0346298  76.1613312  25.1645050  85.2433929
  77.4408264  25.8129063  85.7265625  78.2648239  71.1072388  84.8596497
  77.9302444  71.7342148  85.5009003  78.1131058  71.5267792  84.0127716
  37.5358276  51.7576065  67.1235275  37.9236755  51.0599174  66.5952911
  36.6022987  51.5476456  67.1494217  49.7725449  30.5109100  77.9336700
  50.5915833  30.6188869  77.4501953  49.5310860  31.3988953  78.1971283
  66.1987915   8.3939562  25.0942917  66.1755753   7.6518507  25.6984196
  65.6220856   9.0455780  25.4930840  27.4834728  60.2524834  57.6230354
  28.0180225  60.4910927  58.3803711  26.6205330  60.0602913  57.9899559
  54.8588028  57.5933838  66.0313644  55.6656609  57.3206444  65.5945282
  54.7814293  57.0037613  66.7814255  28.7143173  48.1391296  61.6818504
  29.1805420  48.8616867  62.1023026  28.7804165  47.4161720  62.3057060
  83.7230530  53.7782478  57.7686577  84.2709808  53.0191345  57.9680557
  82.8389664  53.5070457  58.0157928  66.9087143   6.1821346  56.6658020
  66.5490112   7.0276632  56.9339981  67.5269241   5.9537926  57.3600006
  76.3344040  20.8149967  31.9025421  76.3684082  20.7330284  32.8556213
  75.7228470  20.1328850  31.6251469  66.1327209  27.8687744  71.8173294
  66.4149323  27.6215782  72.6979446  66.7433014  28.5575619  71.5546646
  78.0370178  39.0701256  16.6168232  78.0769043  39.5917892  17.4183903
  77.1013565  38.9792786  16.4364891  48.1681366  62.4597321  38.8695107
  47.7462463  62.0489006  38.1148834  48.3405151  63.3581581  38.5878220
  61.5161667  29.3936691  27.6304131  60.9107590  29.7223930  26.9658413
  61.3426056  28.4530983  27.6682549  85.1005325  49.3442726  58.7332382
  84.9134903  48.5477905  58.2363853  85.9884644  49.2155418  59.0667610
  86.3512878  59.1723251  65.4385986  87.1817169  59.4137459  65.0283127
  86.5718384  59.0278397  66.3587646  72.3554001  24.1306305  50.1876297
  71.6616745  24.7740536  50.0427780  72.9437332  24.5499992  50.8155060
  38.2741699  51.9664955  62.7758636  38.3847618  52.8029900  63.2278328
  39.1205254  51.5294762  62.8703461  21.4309883  47.2516479  23.5783653
  20.7901955  47.2483597  24.2894249  22.2428436  47.5492134  23.9889469
  67.1191635  51.3250504  58.6990814  67.7836838  50.9021072  59.2429237
  66.3169327  51.2749977  59.2188416  73.4951935   4.4325190  17.9073048
  74.2448807   4.2660542  17.3359070  73.4453354   3.6587222  18.4685402
  46.9493332  14.0122633  21.2783718  46.2298813  14.6271906  21.1352520
  47.7373848  14.5548573  21.2500820  32.0006027   6.9220247   8.1207771
  31.4504433   7.3872213   8.7509727  32.1749420   6.0761838   8.5335617
   2.4215593  43.9419708  40.1095009   2.0806022  44.6708412  40.6278954
   1.6985887  43.7012520  39.5301933  14.0824299  41.7704697  21.7935925
  13.5788460  41.1436539  22.3129501  14.3953085  41.2638779  21.0441246
  52.7393913  11.5040474  22.9997940  52.4626007  11.1160717  22.1696758
  53.6941566  11.5390968  22.9412403  78.0567627  15.6575737   4.0578237
  77.7417984  15.0156212   3.4214845  77.2613449  16.0643616   4.4014301
  29.4965763  22.7246418  80.6946182  30.2834492  23.1552620  80.3605042
  29.8073654  22.1927910  81.4272690  69.8843689  69.0407791  41.8426514
  69.9006500  69.8909302  41.4030952  70.7391891  68.6553421  41.6503983
   6.0656648  31.3398304  63.8009109   6.4131179  30.7599316  64.4785767
   5.5616131  31.9958286  64.2824020  76.2944031  33.8274689  37.7693024
  76.9494476  33.3954735  37.2211037  75.9030304  34.4888535  37.1986656
  39.4132118  23.1027851  69.7007904  38.9528503  22.4640465  70.2451324
  39.6544838  23.8038101  70.3062515  69.5805893  21.2441998   7.0492587
  69.7600250  20.7264194   7.8340750  70.2972565  21.8775749   7.0111465
  42.9933014  69.0811081  81.1434631  43.8550453  68.7317886  81.3706284
  42.5593071  69.2147522  81.9860916  68.2216263  42.5383911  63.9479828
  68.6925583  43.3578072  63.7962723  68.3296967  42.3697968  64.8840027
  41.8896065  38.7118073  81.6554642  41.7827568  39.0747604  80.7762146
  42.4840050  39.3198700  82.0949783  64.4410629  64.0952225  63.1566277
  65.2748413  64.0624313  63.6256371  64.3093796  65.0241318  62.9668388
  37.7113571   1.2675357  33.5456810  37.6460342   2.1390731  33.9360504
  38.3565941   1.3664166  32.8455925  30.1467953  61.4674263  43.9702835
  31.0509701  61.3358612  44.2555695  29.6677990  60.7275200  44.3435593
  41.7868042  54.0048218  27.0954056  41.7675247  53.3999176  26.3538189
  40.9568100  53.8552437  27.5481415  52.4300270  50.4055710  46.3945885
  51.7201881  50.0961647  46.9572906  52.0380325  50.4608994  45.5230904
  72.1103897  29.5831547  24.4630814  71.9860001  28.8707924  23.8359470
  72.8120193  30.1141720  24.0862942  43.8230362  27.6098251  25.5553646
  42.8674583  27.6651421  25.5488548  44.0979195  28.2865715  26.1739807
  61.2054710  21.0085068  71.5527039  61.7284088  20.2293129  71.3639526
  60.3888626  20.6665306  71.9166183  71.6925430  36.6089134  56.9997673
  72.2055054  36.8571472  57.7688446  71.1682205  37.3846779  56.8009911
  62.0724335  38.4083748  32.0028419  61.9839554  39.3059235  31.6821995
  63.0173149  38.2673149  32.0622635  30.2183399  12.2015085   9.9976072
  29.8056679  11.9844580  10.8335638  30.6781311  13.0243931  10.1639910
  17.2764912  61.9179688  30.9949284  16.5146885  61.7762985  31.5569057
  16.9653301  62.5168571  30.3161488  58.4914436  22.2753258  30.7504368
  58.9975014  22.1825237  31.5576077  58.2785988  21.3772755  30.4966011
  86.5995102  64.8220062  33.2052155  86.6744080  64.8609314  32.2517471
  87.0196991  65.6256638  33.5114861  31.1802540  46.6874199  37.7607727
  32.0369453  46.6322556  38.1841736  30.8763771  47.5752029  37.9498138
  17.6437836  37.4111519  67.7442245  17.8345814  37.4935226  68.6785889
  16.6879025  37.4115715  67.6940155  29.6829739  52.6156158  21.1378860
  30.1160049  52.6119118  21.9915276  29.5403595  51.6905251  20.9376488
  63.9535217  35.4423828  35.4126663  63.7808762  34.6402740  35.9056625
  63.7164993  35.2250938  34.5110893  62.3044586  61.7806435  58.7262535
  62.6130142  60.9381218  59.0597038  62.2028122  62.3246307  59.5072632
   0.5612269  16.7774734  74.1798019   1.4013520  16.3886490  73.9364090
   0.4504454  17.5083656  73.5717239  10.3261347  29.6136513   0.4480282
   9.4669905  29.2225285   0.2895148  10.2354355  30.0572529   1.2913687
  82.1290665  27.0473328  41.1125984  82.3010101  26.4240303  40.4067879
  82.0002136  26.5013523  41.8881836  76.0014191  25.5763817  17.1385956
  75.6560440  25.1872234  16.3351631  76.3577499  24.8358898  17.6294422
  85.8937836  36.0636177  58.2140579  86.0551300  36.9948044  58.0620956
  85.3698502  36.0388603  59.0147476  81.4298859  24.3997765  17.0895844
  80.6600037  24.6717529  16.5900517  81.6569366  23.5416527  16.7313900
  37.2370110  17.6885929  78.2539368  37.5509033  17.1684246  78.9936142
  38.0339432  18.0000782  77.8248520  71.0800018  64.9144440  23.9559040
  71.6720505  64.2375488  24.2838001  71.5002747  65.2339706  23.1574650
  36.8318176  56.5292778   8.8081112  36.6611290  55.6652946   9.1831169
  36.5158272  56.4658508   7.9068012  48.4206696   2.1325254  81.6305008
  47.7867203   1.6146613  82.1266403  48.3152885   1.8376452  80.7259674
  84.1665955   3.8671300  74.0303574  84.5458145   3.8231194  74.9081345
  83.7738876   4.7387509  73.9825363  51.3759232  30.5737400  75.1606064
  51.4467506  31.1911221  74.4325562  51.8043404  29.7788315  74.8431091
  29.6392555   8.5208578  66.3553391  30.0810108   7.7141428  66.0902023
  29.0959949   8.7548904  65.6027908  77.7219086  19.1200619  36.4206047
  77.6528702  18.3514996  35.8542328  76.8790588  19.1611195  36.8724251
  81.7821960   4.3660798  14.5227880  81.1108475   4.7784119  13.9791889
  81.2997284   4.0049000  15.2664289  19.7147732  58.2693329  19.1352425
  18.9050159  57.8965378  18.7866001  19.4736862  58.5980263  20.0013084
  61.2693672  53.9002342  12.7676401  60.6216240  54.5511322  12.4974670
  60.7736626  53.0845490  12.8395224  46.1906204   6.5740747   1.1327807
  46.8735161   5.9114170   1.2365534  46.3375664   6.9345369   0.2583063
  43.0230446  12.3077173   9.7269526  42.3446007  12.3351841  10.4016304
  42.5392532  12.2972918   8.9010773   5.0917873  35.7340813  79.6530457
   5.6504836  35.0467072  80.0158157   5.7011509  36.3415909  79.2337036
  82.6220779  27.4161968   2.6404767  82.0288773  26.7915459   2.2231510
  82.5782547  27.2022057   3.5724206  41.9924774  26.0262127  23.3001595
  41.8369484  26.2635918  24.2143211  41.1592026  26.2001991  22.8624249
  62.6385612  65.4600220  85.9790878  63.2008133  65.2005920  85.2491608
  63.2420158  65.5967331  86.7094193  41.2141342  13.0855246  84.0241470
  41.1168442  12.2380028  84.4582825  40.3305244  13.4534988  84.0164032
  62.0955582  26.5562325  42.5811691  62.4058304  25.7870522  43.0590019
  62.0977097  26.2849102  41.6632271  85.4204712  53.0898438   8.9555464
  84.7892761  53.5510445   8.4031706  86.2637405  53.4877739   8.7392445
   7.6660886  35.0371399  51.3271255   7.5643964  34.2250404  50.8307571
   7.6204581  35.7286987  50.6669044  63.8384094  19.2396355  28.9397240
  64.7929688  19.2700539  29.0039368  63.5523872  18.8936901  29.7851486
  26.6663685  71.1668625  39.4582901  25.9689484  70.6487885  39.8600769
  27.0788956  70.5699158  38.8340263  54.7532158  29.6196194  86.6252747
  54.8129807  29.4581280  85.6836929  55.3435097  30.3571339  86.7797394
  74.1908493  14.8917065   7.9869733  75.0553360  14.8958483   7.5760264
  73.5766525  14.9053097   7.2529387  54.8160934  54.9104424  19.7172890
  54.1492119  54.8637581  19.0322189  55.5434952  54.3879585  19.3794594
  57.6522598  70.2801666  23.2787457  58.2366791  70.9102325  23.7003002
  57.5628700  69.5722885  23.9168262  16.7370052  41.3589554  77.6467667
  16.6115208  41.1837234  76.7141495  16.1704845  42.1089363  77.8279037
  37.6946983  50.9288254  83.7052994  38.1573715  51.1116524  82.8875351
  37.6389160  51.7777939  84.1438980  29.0548077  49.2457390  21.7098045
  28.6663780  48.4538727  22.0816917  29.1456890  49.0524788  20.7767334
  45.3117180  59.7374725  57.6080437  45.6984634  59.1879158  56.9263954
  45.8930664  60.4959412  57.6627235  16.0312748   1.2266245   3.7206256
  16.4788723   0.5620040   3.1970148  16.2464027   2.0546687   3.2913303
  69.7614517  56.2750511   2.2490013  70.1093445  56.5781937   1.4103680
  69.0236511  56.8582840   2.4271328  10.5892096  42.0024834  17.2298203
  10.6199856  42.4228287  16.3704052  11.3173542  41.3812599  17.2188168
  34.1618423  64.6525269  76.9495316  33.4168816  64.0701294  76.8009491
  33.8094368  65.5318909  76.8125458  75.6685333  11.5631924  66.7520905
  74.8744354  11.1794062  67.1240540  76.0735626  12.0305691  67.4826736
  83.4935150  34.3726120  35.2364807  84.0082703  34.4560738  34.4338036
  82.6025314  34.6048546  34.9748650   9.5822134  30.2846260  86.2936249
   8.8949718  29.9165897  86.8490295  10.1306772  29.5348988  86.0626907
  39.9299049  58.8751907  77.0867386  39.2979469  59.5937729  77.0643768
  40.7743378  59.2935600  76.9190063  42.3314590  51.7119217  22.0538139
  43.1349335  51.4489594  22.5027122  42.3780975  52.6673622  22.0193024
  15.7275753  -0.0037447  86.0193329  16.2923450  -0.6977318  85.6792603
  16.3210888   0.7289938  86.1838531  21.0465260  18.1091595   1.5205957
  20.3674068  18.7542973   1.7176480  21.1396732  18.1426487   0.5685275
  33.6897354  70.4543762  73.1474686  34.5968208  70.3193817  72.8732376
  33.6716537  71.3509064  73.4823456  34.4934006  27.7576237  75.6958237
  34.8996391  28.4310284  75.1501770  35.0919762  27.6556530  76.4357834
  27.9122944  11.4588919  65.2030869  27.7223263  10.5620890  64.9276047
  28.1263180  11.3835468  66.1330032  11.9207478   1.7780451  66.1895294
  11.9090710   1.9035093  67.1384048  11.6675510   2.6292076  65.8322601
  55.1331787  41.6316147   9.3331575  55.2308769  42.5600243   9.1216383
  55.2740440  41.1802406   8.5009022  74.2978210  25.7330132  88.8164444
  74.0825424  26.6656895  88.8159866  75.2525864  25.7076130  88.8797531
   4.9255714  53.6222153  79.5064316   4.8696947  53.4220238  78.5720673
   4.0144324  53.6929893  79.7911224  50.0452080  20.9213753  54.4759903
  50.3808060  21.7315674  54.8596458  49.2493248  21.1863995  54.0149422
  44.7824554   2.6896467  81.6031189  45.5637856   2.1506736  81.7266769
  44.9249763   3.1294718  80.7649765  10.1243649  60.1343613  67.1871872
  10.8192787  59.5167694  66.9593582   9.3171988  59.6255760  67.1106873
  53.2914467  69.7716293  35.6014786  53.9195480  70.3096390  35.1195335
  53.4888000  68.8743744  35.3327599  50.3195915  28.9099846  32.0382118
  49.9630966  28.3328514  32.7135353  51.1300545  29.2501411  32.4172592
  70.5406723  54.9872246  13.6768103  71.1038132  55.7588234  13.6156492
  70.5651169  54.6028023  12.8005371  77.7096481  11.9953966  33.9354553
  78.6266327  12.1446857  33.7050514  77.4640579  11.2110386  33.4448471
  54.7272072  54.6690369  38.1638184  54.7641830  53.8526802  37.6653938
  54.9807205  54.4188957  39.0522957   1.3235421   9.7993908  80.7763596
   1.4289657  10.5478830  81.3636246   1.0689929   9.0777617  81.3514099
  68.2968063  20.0779514  57.7081718  68.7532120  19.4318676  57.1691933
  68.5999146  19.9035892  58.5992126  83.0940247  39.8127632  22.4351540
  82.9383392  38.9096909  22.7116604  83.0989456  40.3152313  23.2498531
  10.2816067  22.7824612  73.9151459   9.4922066  23.3179474  73.9947357
  11.0009756  23.3883820  74.0929108  64.1626511  51.1734581  31.2907887
  64.7972107  51.4734879  30.6399822  63.8018875  51.9784317  31.6624088
  35.3855286  65.2731171  84.2915878  35.1506386  64.5198593  83.7496719
  35.8363724  65.8679962  83.6923447  31.8092403  60.1211357  83.4639359
  31.6000729  59.8789406  82.5618134  31.1265488  60.7458649  83.7086334
  15.4228354  20.6672401   8.8644114  15.9857521  19.9249554   8.6444817
  14.9541283  20.8611641   8.0526609  43.0850449  70.9704819  51.9074135
  43.7225456  70.5142822  52.4566994  43.5740623  71.7014694  51.5295868
  21.8580399  56.7667046  60.4521370  21.8785210  56.2683487  61.2691154
  21.3400116  57.5445747  60.6590080  74.3093796  17.6261292  27.2406940
  73.5045090  17.1612129  27.4693127  74.0309906  18.2920303  26.6119595
  25.0298653  58.9250793  73.0083160  24.7104778  58.8901634  73.9099808
  24.2709999  58.6863441  72.4760056  56.9594727  70.7873459  73.4392929
  57.5250397  70.4883881  74.1513214  57.1745987  70.2122650  72.7049713
  79.4839554  58.3388672  66.3347168  79.2106171  57.8806381  65.5400162
  79.5699844  59.2535896  66.0661774   9.6227245   8.0779533  56.3715591
   8.8965921   8.5245943  56.8068466   9.7899799   8.6007929  55.5874062
  83.9914322  69.1404495  38.2227478  84.7002563  69.3884659  37.6292076
  83.3496704  68.7059174  37.6610107  36.6862717  65.3228760  33.5791740
  37.4200134  65.1823273  34.1775856  37.0056190  65.0129776  32.7317009
  41.3702812  49.2522011  54.7815247  40.8478622  49.9102554  54.3229675
  40.7311363  48.6067505  55.0833893  42.3886642   6.2501640  60.0350571
  43.0392647   6.8252373  59.6322632  42.1910515   6.6636639  60.8754120
  60.8830528  65.6012344  14.1612892  61.2479858  64.7934952  14.5226860
  60.3011093  65.9289398  14.8469887  51.6033287  32.0975037  59.9951324
  51.2714539  32.9855614  59.8630447  51.0904427  31.7566719  60.7279434
  71.9785004  60.9959145  80.2137451  71.2118835  61.5595932  80.3176727
  72.6459808  61.3939514  80.7725525  28.4222412  69.6733932  80.0142822
  28.2171345  69.0699615  79.3001175  27.5778294  69.8489761  80.4294586
  15.2413816  31.3174458  33.9245644  14.8059998  30.5253391  34.2395897
  15.6185732  31.7122288  34.7107582  19.8412895  37.3022881  41.2707520
  19.6337357  36.5830994  41.8673439  20.3031998  36.8847084  40.5437737
   9.2882137  34.0384903  41.6301231   9.7835140  33.2197571  41.6544037
   9.9267740  34.6966782  41.3557854  15.1508160  34.3608017  16.4661083
  14.2630100  34.6147842  16.2140617  15.0386572  33.8797112  17.2859879
  85.7296677   9.4307804  29.4165573  85.5840454   9.5444307  28.4773502
  85.0558624   9.9701805  29.8304005  17.0871754  15.1435909  15.2564096
  17.4025249  15.9905138  14.9409609  16.2129536  15.3266068  15.6006060
  21.0231400  56.6159401   4.5202341  20.4795055  55.8404121   4.3814783
  20.4479885  57.3520660   4.3115554  22.1426506  68.4129868  29.8203964
  21.2413654  68.3118668  30.1264896  22.6565475  67.8488007  30.3981781
  30.3812790  37.9461708  15.9906979  29.6746521  38.5855293  15.9005394
  30.2612896  37.3506660  15.2509642  59.6159477   0.2237606  40.7449112
  59.6239929   1.1538736  40.5189514  59.7243195  -0.2270949  39.9075241
  40.4663277  42.2412567  53.1474838  40.1229630  41.6186104  53.7882957
  40.9747429  42.8639107  53.6671448  79.0771637  26.2485733  84.4312515
  79.2888336  25.6942577  83.6801453  79.4501114  27.1023064  84.2115326
  71.2797852  20.7273235  48.1680984  71.2677155  19.9779911  47.5726242
  71.2802582  21.4914207  47.5915680  17.3475266  27.9541512   2.4862161
  17.8210907  28.7680759   2.6579571  16.7736397  28.1619682   1.7488570
  35.5727348  41.4300690  64.3847809  35.5114250  42.3215179  64.0415726
  35.9202919  40.9161568  63.6558533  46.4711151  17.9174500  52.3581161
  46.9253769  18.1282063  51.5423584  46.7125168  17.0089989  52.5388794
  65.1338882  69.5879974  75.7937851  65.6432953  69.6095123  76.6038971
  64.7948761  70.4782562  75.7003174  72.1994247  62.7393456  62.5464325
  71.9491348  61.9932442  62.0015335  71.7877350  63.4932213  62.1240387
  15.3923845  45.1335793  74.5638809  14.9068489  44.7025757  75.2672424
  16.0774632  44.5082092  74.3276291  74.8617096   7.1864038  73.4010696
  74.3953629   6.3506460  73.4172821  75.2813110   7.2099023  72.5410614
  44.7084961  61.5397072  80.5597382  45.5219727  61.6382027  81.0544968
  44.9722023  61.6326141  79.6442795  44.8237419  22.3310318  82.6275711
  45.2798119  23.0592136  82.2056808  44.4090385  22.7215919  83.3967972
  77.0909042  56.6301384  34.7285767  77.4951553  55.7647438  34.7910767
  77.8098984  57.2133560  34.4853973   3.5434387  51.6347542  14.7041187
   3.3162861  51.7854805  13.7865591   2.8708303  51.0321808  15.0215063
  43.3430824  19.6220150  16.5541058  42.5074463  19.5591850  16.0915089
  43.3440666  20.5030594  16.9282627  46.2722664   3.8206780  79.1949158
  45.9967384   4.6855879  78.8911896  46.6112862   3.3883553  78.4110870
  45.6327858  49.7831154  85.9983826  46.2679214  50.3210869  85.5257034
  44.8563843  49.7816849  85.4385300  77.1078033  23.4488506  18.3519745
  76.3799438  22.8469524  18.5074425  77.5859680  23.4656563  19.1810150
   2.1700962   9.5461264  84.7540512   1.9862368   8.6196375  84.9091187
   1.4228702  10.0059195  85.1367722  85.4901810  20.3130322  64.4997482
  86.4275360  20.3495388  64.3093491  85.1678619  19.5792732  63.9763527
  78.0524445  70.8479767  25.3973732  78.7875519  70.2350311  25.4093857
  77.3453979  70.3828049  25.8445034  27.8435802  49.8147278  15.3923454
  27.6964226  48.8689346  15.3994579  28.3722076  49.9689903  14.6094093
  42.3480568  50.8696556  39.7091522  43.1334991  50.9707832  40.2468147
  42.5155869  50.0861893  39.1853752  37.9007149  50.0616493  17.9615974
  37.1339264  50.3434029  18.4604759  38.5895348  49.9596672  18.6183777
  69.4787598  61.9445839  32.2842598  68.6022491  62.3223343  32.3567848
  70.0623779  62.7015877  32.2335968  33.0515862  16.9432602  11.8748865
  32.3893394  16.6259975  12.4888945  32.7689819  16.6086159  11.0237808
  31.5117893  26.5385857  76.2724915  30.5939255  26.6233826  76.5304947
  31.6936340  27.3326283  75.7698364  45.6682167  19.1803856   3.2088888
  45.1970901  19.1164417   4.0396595  45.7778282  18.2727757   2.9252293
  13.8451033  32.0957375  21.4457798  14.2456303  32.5278397  22.2001648
  12.9070749  32.2568779  21.5476055  43.9117432  71.4286499  16.9356117
  44.4570084  72.2135391  16.9890614  43.8628387  71.1091766  17.8365993
  11.7389221  48.7202606  18.9922104  10.8631706  49.0514793  18.7932529
  11.6971817  48.4725418  19.9158573  63.7341042   3.9841950  31.3436050
  64.2799301   4.6389852  30.9082203  63.3653107   3.4658980  30.6283493
  78.0406799  36.5560951  48.5422287  77.8685760  36.3325157  49.4569016
  78.9028931  36.9716034  48.5553780  47.6781158  36.2295113  40.3669243
  47.9532661  37.1396980  40.4768372  48.0856018  35.9535904  39.5459175
  37.6015358  39.4674530  89.0304413  38.1467400  38.7667656  89.3882370
  37.4253273  39.1973381  88.1292114  41.1623993  41.9049911  84.8807831
  42.1019440  42.0762863  84.9451599  41.0345764  41.0870895  85.3613358
  13.0190973   0.9465984   2.0170565  12.8629122   0.6162402   2.9017608
  12.9846373   1.8988990   2.1074343  17.5588646  47.2420769  29.8055954
  18.0111599  47.9235954  29.3084087  16.9286385  46.8726883  29.1870518
   5.0004010  21.7503719  80.4080048   5.4361629  21.3033791  81.1336365
   4.4827824  22.4381809  80.8265991  76.0613174  31.5021744  73.0476379
  75.9630966  30.5696239  72.8554535  76.9485855  31.5824242  73.3976974
  76.8610764  57.5678444  23.5767994  76.8396149  56.7430038  24.0619946
  75.9451981  57.7419891  23.3598289  51.5856628  39.8464088  50.6065598
  51.0687904  40.3532906  49.9803467  51.1303253  39.9603958  51.4407692
   6.5414362  39.5729828  25.7765350   7.2526345  40.2128754  25.8076496
   5.8520398  39.9544945  26.3200550  76.8454514  29.8016224  53.5949135
  77.3050537  29.0041332  53.8576126  77.5233765  30.4773369  53.5874481
  59.1632652  24.0836887   4.0199714  58.7344780  24.8000774   3.5518274
  58.5799446  23.8948650   4.7550297  25.7153454  39.8254166  13.0024204
  26.5111828  40.2755203  13.2857647  25.0487270  40.5117950  12.9753094
  83.7357864  63.6610794  10.9674616  84.3738403  64.1834564  11.4534998
  83.5392456  62.9241295  11.5458317  46.6701775  54.0441513  21.5456104
  45.8916969  53.9535751  22.0951481  46.5591393  53.3832207  20.8621826
  60.3399353   9.7567768  29.1899242  59.5616455   9.7361612  28.6330795
  60.0827827   9.2794027  29.9787312  24.4272194   9.7061462  84.5399094
  25.1502323   9.5900784  83.9234619  24.4401779   8.9134388  85.0762711
  33.9454422  13.3509617  77.1680450  34.4844208  13.8228273  77.8029327
  34.5139999  12.6528025  76.8431625  69.9515381  22.0207787  81.8957825
  69.7590485  21.1448021  81.5613480  70.8939667  22.0115604  82.0630112
  67.3690033  61.3261185  53.3900909  67.9858704  61.7216911  52.7742729
  66.5424423  61.7801018  53.2260246  61.0295868  19.8705101  13.5019274
  60.2476540  20.2968140  13.1511049  61.6292763  19.8201199  12.7575703
  31.6746273  67.9874496  46.2320137  32.4680519  68.2371445  46.7056770
  31.8524609  68.2286911  45.3229408  37.3442917   4.3534093  60.9797668
  38.2810516   4.1609335  61.0206299  37.1247559   4.2789078  60.0510674
  35.6739769  57.3647194  23.5583267  35.5633125  57.2301559  22.6171169
  35.0211830  58.0274391  23.7839146  74.5494995  35.9397812  13.9704714
  74.1461792  36.7460136  14.2922630  75.4789810  36.0379448  14.1770439
  27.8377686   7.6751466  17.7222919  27.6155872   7.4209180  16.8266163
  27.1025562   8.2182198  18.0064869  35.0302353  23.3572521   1.5028473
  34.7930527  22.6175327   2.0621240  34.8246231  24.1304264   2.0283532
  50.8004875  39.7622528  75.2028809  51.0712547  39.0069733  74.6808929
  50.8760567  39.4660034  76.1099396  12.9531651  52.7918587  29.3579655
  13.4794903  51.9940224  29.4096737  12.0727253  52.5148277  29.6115646
  78.0809708   3.1333921  65.5483551  78.2116623   2.2755415  65.1443176
  77.3417816   3.0077848  66.1433716  23.3410645   2.6481321  65.4845886
  24.0087948   2.3628061  66.1082535  23.5504932   2.1778615  64.6776123
   5.0672712  59.9135818  60.0922737   4.8275290  60.6196251  59.4920578
   4.2482920  59.4432335  60.2480812   9.5459166  25.6473408  61.2411766
   9.2733307  26.5089760  61.5566330  10.0637407  25.8319607  60.4575920
   8.1797848  56.3107033  32.0138931   8.2677813  56.8941040  32.7676353
   7.2519975  56.3561630  31.7828579  86.5253143   7.9251375   7.4962435
  85.6884003   8.2926226   7.7804127  86.8915558   7.5253501   8.2850866
  12.4757929  47.4383583   8.8054943  11.6613989  47.9282951   8.6916685
  13.1147079  47.9078598   8.2692232  48.9730263   1.8806325  45.5633926
  48.6456451   2.7756572  45.4740486  49.8772659   1.9241962  45.2524490
  46.2335701  28.3688526  70.6827927  45.6563377  28.2040081  69.9372406
  47.0391426  27.8972912  70.4708633  63.2066536  59.1480179  59.8317299
  62.7463493  58.3427734  59.5952225  64.0987320  58.8641548  60.0313454
   2.3366418  16.9741573  71.7558441   1.4517434  16.6528492  71.9289017
   2.4004509  17.7843323  72.2615891  63.6045837  44.8243484  67.7442627
  63.6195946  44.5639801  68.6652451  64.3009109  44.3082314  67.3380737
  16.5461674   1.8400934  58.4752579  16.8614731   1.1879443  59.1009712
  16.6032753   1.4036931  57.6252441  81.5436096  31.4613075  13.6012888
  80.6175919  31.2411976  13.7026672  81.6881485  31.4589787  12.6550674
  72.9225693  12.6784058  16.6280899  73.8649216  12.6309214  16.4669724
  72.5267792  12.2774220  15.8542738  58.3863335  10.9925528  41.4433517
  57.6547966  10.7303667  40.8844719  58.0614967  10.8714609  42.3355675
  49.3878517  67.7537613  84.2506866  49.8502197  68.5671082  84.4529724
  49.9339256  67.0665131  84.6324234  43.2670212  53.4179115  52.7600937
  43.0387344  54.1014633  52.1301155  42.5201378  53.3839302  53.3577881
  33.7457199  12.2609510  11.4617367  33.1365891  11.5235043  11.4248209
  34.3288841  12.1275492  10.7145033   3.2384760  45.2539177   7.4280605
   2.4554305  44.7034149   7.4242649   3.8134902  44.8569794   6.7738218
  20.0866756  35.2014046  20.3444958  19.3236561  35.6287651  20.7335892
  20.0489349  35.4406815  19.4184551  68.7451401  66.4502716   3.3712606
  68.3457184  66.6757660   2.5311122  68.1869507  66.8740311   4.0232477
  20.3810024  36.9620399  84.6315308  20.6252155  37.3901939  85.4520645
  19.4529686  36.7528534  84.7374878  13.3556843  25.1435814  82.7177277
  13.9625387  25.8564911  82.9170227  12.8724880  25.4480476  81.9495773
  30.4548550   7.3585653  33.2069664  30.2919044   8.1429625  32.6831322
  31.3927059   7.1948223  33.1076927  83.7292938  36.4825630  60.3644753
  83.2112122  35.6862068  60.4812889  83.3127670  37.1255913  60.9382782
  51.2420692  57.7242088  31.9056110  51.6065903  57.2225990  32.6348228
  50.3116074  57.8080750  32.1140289  44.9403419  62.7030945   0.1197025
  45.4895554  61.9297600  -0.0089463  44.3895988  62.4834137   0.8711362
  46.4026489  45.4769249  76.6211243  46.8774719  44.6523743  76.5167694
  46.8560410  46.0893745  76.0418396  21.7596893  69.9180679  73.4038162
  22.5226440  70.1013718  72.8556061  21.7926579  68.9729614  73.5518799
  72.8328094  26.1447353  86.4986954  73.4082031  26.1284256  87.2634735
  72.0782471  26.6634178  86.7776871  10.0883875  40.3603592  89.0063782
   9.2462130  40.7464256  89.2470627   9.9840307  40.1113968  88.0880356
  25.1166439  65.3925400  47.0880394  24.5867558  65.9946899  46.5656738
  25.5940228  64.8716736  46.4422569  85.9361496  45.7128639  86.8778839
  85.3606949  45.8433762  86.1241913  86.7568817  46.1379547  86.6290359
  42.9376755  20.4383125  82.1209717  43.6975021  21.0200176  82.1436157
  42.7600975  20.2403469  83.0404816  17.3191795  60.2165756  84.5747147
  17.7555923  60.9595337  84.1578293  16.8873272  60.5921745  85.3419571
  18.3634758  33.7424545  80.6123810  18.9898605  33.1334457  80.2212448
  18.6894951  34.6093903  80.3707809  54.3267021   1.8841634  86.4170303
  54.2765350   1.0500326  86.8838730  55.2622833   2.0834913  86.3826294
  53.0040245  60.9903107  82.9705658  53.7196770  61.4862022  82.5728683
  53.3556404  60.1065063  83.0777359  32.2325249  30.0705872  67.3697128
  32.5166512  29.3263130  66.8390884  32.7761345  30.7994328  67.0705414
  78.0599289  41.2786255   8.8469400  78.8878403  41.5351257   9.2531414
  77.6464615  40.7019730   9.4893951  84.5018234  38.5117416  83.4840317
  84.8226547  39.1990967  84.0678482  83.5517578  38.6281471  83.4763870
  59.0721245  34.5542145  57.2129402  58.4220238  34.0484085  56.7253304
  59.9130936  34.2771606  56.8492928  11.8785763   0.9003100  24.3645191
  11.4132280   1.0775244  23.5470371  12.7065392   0.5072554  24.0884457
  81.2460632  58.6342468  82.0517426  80.6480331  57.8889885  81.9953766
  81.6261139  58.7031364  81.1759262  36.4732513  17.3736076   5.8098516
  35.9911423  16.7803116   6.3858733  36.8681183  18.0138626   6.4017878
  15.3477297   9.0828323  56.6359100  15.3267040   9.4342394  55.7457962
  14.4486532   9.1751289  56.9511490  68.7356110  64.8049622  47.8636436
  68.0393143  65.1749420  47.3209419  68.6163025  63.8578262  47.7934761
  43.6876106  16.8514767  79.0927429  44.4534988  17.3934040  78.9031143
  43.8708611  16.4698486  79.9512329  56.5725212  67.4692383  67.2061996
  56.3961067  67.0848465  66.3475037  57.2410164  68.1334839  67.0384979
  15.0663118  18.0136395  83.1481171  15.3429613  17.3730621  83.8033676
  14.9760056  17.5069733  82.3410416  43.7791138  64.1685104  33.9818001
  43.1959572  64.8361053  34.3430214  44.5725822  64.6475677  33.7427406
  67.1526184  38.8559303  71.3070221  67.4636765  39.6744461  70.9203644
  67.2442017  38.2101059  70.6064835  66.9832993  47.5282059  55.9431458
  67.6803207  46.8957138  56.1173630  66.2859879  47.0111427  55.5398636
   0.2297173  11.5222273  85.2078934  -0.1032305  11.2265749  84.3605652
  -0.0782169  12.4253120  85.2843552  64.3109360  55.0070724  18.4419155
  63.5057449  54.9229050  18.9526176  64.3091354  54.2437515  17.8643608
  85.4262924  22.2556801  47.7958679  86.1000977  22.6388874  47.2342873
  85.2133484  22.9483356  48.4212570  70.3731461  27.2722054   9.9340420
  70.9855499  27.9223518  10.2782755  70.7037277  26.4353256  10.2605038
  38.7789001  24.7565823  79.2952118  38.6739655  23.8580761  78.9823074
  39.5270386  25.0955467  78.8036575  36.9976273  56.4430542  63.3171272
  37.0316849  55.4878807  63.3691978  36.1398926  56.6317368  62.9364357
  65.5150833  71.0081024  22.5193520  65.3712463  70.0736847  22.6690426
  66.3258057  71.0473785  22.0119915  71.8805084  63.6664925   4.1382813
  71.2569504  63.5095520   3.4292133  72.7006454  63.8797607   3.6931715
  74.6472626   5.1699123  82.0921555  74.1703415   5.2529945  81.2663956
  74.0704727   5.5696249  82.7431335  51.0470543  56.5006065  19.6682625
  50.8328400  56.0039253  20.4579792  51.9188309  56.1925011  19.4206524
  66.3415527  55.6613884  84.6251068  66.5678711  56.1327477  85.4268799
  66.3457260  56.3330383  83.9431229  60.1681404  30.6639214  25.6018295
  59.8635597  31.4050655  25.0782204  59.7769203  29.8975487  25.1824818
  32.8670921  40.8570900  25.2377720  32.1310616  40.8316841  25.8492031
  32.5585251  41.4022522  24.5140209  79.1860123   1.4896334  50.4284363
  79.0908890   0.6201380  50.8172302  78.2919235   1.7544974  50.2123566
  62.6005402  16.6544132  39.6369667  62.7201118  15.7223425  39.4548187
  62.9079323  16.7639618  40.5368233  57.2457085  26.4270191  69.6547394
  58.0729790  26.2979717  70.1186447  57.1294212  25.6252937  69.1448898
  84.2920761  57.5038376  68.9984283  84.1006775  58.2228241  69.6006393
  83.4638519  57.0304604  68.9196701  40.2970543  62.8905716  53.4522705
  39.5343513  62.7261047  52.8977737  39.9826622  62.7380676  54.3434105
  66.6469650  71.3724899  65.4578323  66.0801544  71.2011337  66.2098846
  67.4198990  71.7954254  65.8319016  46.4604187  49.9686050  48.7395134
  46.5308876  50.7066536  49.3449440  45.5249901  49.7670441  48.7154274
  21.4794807  13.4524603   9.6037598  21.9799767  13.7711487   8.8526449
  21.0679893  12.6461468   9.2926865  59.2058754  59.5767326  17.1137714
  58.4654694  59.5810280  16.5071297  59.8414650  58.9845848  16.7117558
  29.7865353  13.7315931   7.5775566  29.8058815  13.1888466   8.3657722
  30.4968681  13.3902998   7.0342550  79.7570953  16.7049580  13.0505390
  78.9392548  17.2018185  13.0728798  79.7111511  16.2045517  12.2358522
  10.6573143  22.4095535  82.6043167  11.5133696  22.6219196  82.2324295
  10.3127394  21.7216873  82.0348053  24.7912140  56.3656387  19.3014011
  24.7217484  57.2267914  18.8893070  24.3045044  56.4523849  20.1210480
  19.1612148  50.6736221   3.1427939  18.6784229  49.9950066   3.6146264
  18.8301392  50.6235199   2.2460718  77.3328705  32.7905998  69.1350784
  76.9448776  33.6305923  69.3802414  76.9649506  32.5995293  68.2723236
  54.3077202  34.3348351  70.5618668  54.9314308  33.9910927  69.9222946
  54.8483086  34.8135529  71.1902161  37.5959702   7.3318338  17.9994926
  36.6629715   7.3652778  17.7882347  37.9655762   8.1060390  17.5749569
  56.2972145  64.0571213   4.3349910  55.5538826  64.1361465   3.7371249
  56.4344788  63.1139183   4.4231124   9.4580946  25.2766781  76.6342545
   9.9442081  24.6373158  77.1549683   9.9954481  25.4075356  75.8529968
  60.4527054   2.2301772  32.5834312  61.2038193   1.7461959  32.9266853
  60.6944046   3.1508057  32.6847038   6.7324104  31.3902817  31.7484627
   6.1395202  30.8355236  31.2415543   7.1673517  31.9367771  31.0939407
  82.0797195  54.2834091  28.2443562  82.0405731  53.5144539  28.8130474
  82.9262314  54.6843262  28.4415913  82.6903992  23.5317078  81.2284775
  83.1469879  22.6906624  81.2084274  81.9039001  23.3898792  80.7016602
  80.0984879  46.7510147   3.6683373  79.3858719  46.4748840   3.0919993
  80.2437897  47.6705971   3.4458876   2.7720988   5.2874722  70.1949539
   3.6170170   5.3198271  69.7462921   2.8369007   4.5274019  70.7731705
   0.0800189   3.6934009  78.6414032  -0.0290147   3.2019293  79.4555283
   0.1638872   3.0211337  77.9651947  23.9026489  33.7114563   7.6788898
  23.1177425  34.0577164   8.1034555  23.7187481  33.7811127   6.7421083
  71.7015228  17.2328644   5.4869537  70.7843246  17.2773705   5.7571325
  72.1613998  17.7996616   6.1062164  44.1178322  29.7707138  78.7505341
  44.2301598  28.8754654  79.0701370  43.2456551  30.0249901  79.0520096
  39.0136681  66.1599197   8.0170546  38.8710747  65.3794022   7.4816189
  39.8540077  66.0043716   8.4481792   9.4625235  58.0112991  11.6737862
   8.8311501  57.3194580  11.8711510  10.2972965  57.6733971  11.9981441
  75.6489944  42.4064865  79.3862610  76.0189514  43.2033234  79.7662735
  76.3031464  41.7305374  79.5634995  54.8455353  68.6080399  32.0373268
  54.9267845  69.5419769  32.2306786  54.8012581  68.1885300  32.8965607
  46.8403549  11.3802929  17.5624409  45.9433632  11.3913393  17.8963814
  46.7617760  11.6748648  16.6550903  25.4351234  16.1281586  64.5693512
  25.8838577  16.9587650  64.4113617  24.5377045  16.2806721  64.2733612
  59.0881004  64.2844391  41.5104446  58.4035149  63.6866531  41.2100601
  59.2421532  64.8657379  40.7657394  74.3378601  52.1185570  59.0989723
  73.8555527  51.5500412  59.6993065  73.9537506  51.9410324  58.2403793
  17.6576290  29.1902294  12.1645079  18.5384769  28.9684944  11.8625612
  17.7402401  30.0779419  12.5128918  48.9511757  46.3310547   6.3516846
  48.6919136  45.9940414   7.2092619  48.2009583  46.8498459   6.0614181
  66.8306198  29.1115723  64.3500977  66.5780334  28.2449875  64.6686325
  66.4135971  29.1820469  63.4914055  55.0682144  42.8112297  55.0718842
  55.6506500  42.2337379  55.5653381  54.9451294  43.5706902  55.6413574
  16.5584793  16.5396919  85.0054932  17.3600178  16.1577034  85.3630676
  15.9530325  16.5630894  85.7465210  34.9178696  66.9693909   5.7224798
  35.7222900  67.4390793   5.5021930  34.3238029  67.1579971   4.9960198
  83.1233444  10.0759602  56.8007507  82.4674149   9.5172606  56.3837967
  83.8977890   9.9922533  56.2444572   0.7671486  30.6564770  19.3994312
  -0.0999920  30.2558498  19.3378124   1.3394779  29.9455643  19.6880035
  51.4524040  60.8103104  24.8336773  50.6241837  61.2897987  24.8530006
  51.7008514  60.7242241  25.7540550  63.0833397   8.3964291  36.1503792
  63.5994720   7.7205629  36.5897446  63.6498032   8.7098980  35.4453354
  39.8310051  26.8355732  22.2251110  38.8810883  26.7873249  22.1175900
  40.0214653  27.7731915  22.2539406  58.5758629  13.4441919  50.7702370
  58.4565735  12.5806456  51.1655693  58.9271545  13.2621326  49.8986397
  21.8397884  45.5105247  70.6883621  21.5800667  46.2588539  71.2257462
  22.0995998  44.8403740  71.3205261  31.8994808  11.0420694  77.1320724
  32.3433151  10.1955166  77.0811920  32.6028976  11.6864271  77.0530701
  84.2772751  29.1176720  81.8495636  85.0067902  28.5003757  81.9042511
  84.2990646  29.5886211  82.6826019  21.2564907  64.6530533  28.1051197
  21.1627331  64.1547012  27.2932816  20.4158802  65.0984192  28.2112045
  21.6616249  34.9676361   8.9188395  21.0104809  34.7360840   8.2565508
  21.1843948  34.9290619   9.7476912  81.4158325  26.4782104  65.3955917
  80.8347473  25.7395744  65.5772171  81.4553223  26.5226135  64.4402390
  32.8676338  67.6170273  87.2049255  33.7652206  67.8804092  87.4079056
  32.9573669  66.7567673  86.7948914  58.2471161  21.7764854   2.8982897
  58.6936188  21.6660919   2.0588377  58.7404785  22.4656067   3.3431923
  11.3390083   4.2057643  85.6052094  10.9196672   3.7752171  84.8602142
  11.1481152   3.6355340  86.3499451   0.4334909  69.0925064  67.3280945
   0.7904482  68.8563995  68.1842880   0.6554990  68.3520584  66.7635803
   2.9157858  32.1266899  28.1856956   2.5327342  32.4453773  29.0029716
   2.2722251  32.3544464  27.5147343  60.9235306  52.4524841  76.2720032
  60.6460571  53.3311005  76.0126190  60.8371162  52.4456787  77.2252731
  68.4339676  48.9735260   4.1772170  69.0369110  49.2221794   4.8778343
  68.6303940  48.0521164   4.0079536  17.9714241  65.8976440  17.4061546
  18.5478954  65.5575027  18.0904179  18.2581005  65.4528961  16.6085052
  17.0501385  46.7004623  85.0057755  17.2725372  46.5153542  84.0933609
  17.7768917  47.2349510  85.3257523  33.5012665  16.4748383  81.6329422
  34.2329826  15.9202709  81.9036484  33.9080353  17.1773777  81.1257782
  63.3675919  61.5093193  65.6795502  62.4772263  61.8414764  65.7942352
  63.7644272  61.5831604  66.5474777  13.8140926  30.3836536  17.2074623
  14.6003332  29.9090137  16.9376965  14.1252337  31.2652092  17.4130859
  58.4396706  32.0526619  11.6200638  58.7039528  31.1326771  11.6169186
  59.2601509  32.5372505  11.7107420  41.9821167  39.2850761  56.7869644
  42.7021523  39.1341438  56.1745911  41.2561913  38.7701187  56.4347191
   2.2496669  67.3918991  31.5626583   2.4604561  68.3253098  31.5860691
   1.7559962  67.2375641  32.3680763  67.3668060  39.1512222  24.0516300
  68.1155701  39.0747948  23.4602394  66.8313141  39.8475227  23.6713123
  32.7017899  61.5703773  12.2129688  32.8447380  62.4603996  12.5349207
  33.5788689  61.1904526  12.1617327  26.3783474  47.8377762  54.8423004
  25.5227451  47.6200447  55.2121277  26.7205772  48.5223427  55.4171715
  23.9601059  41.4650612  78.1228790  23.5275612  42.0130463  77.4680176
  23.4756432  41.6307678  78.9316254  65.5373459  65.6354218  42.1253471
  64.9233551  66.0433884  41.5147667  65.6654358  66.2915497  42.8104210
  82.7086792  33.5772324  77.8074036  83.6578751  33.4537964  77.8023987
  82.4764023  33.6857948  76.8851852  18.7984982  71.0686646  83.7981262
  18.1552410  70.4849091  84.2002182  18.7531452  71.8703079  84.3192291
  21.4734154  28.2073593  18.3470993  21.3758507  28.8833008  19.0177822
  20.6780396  27.6799717  18.4210873  74.8295517  17.6862259  60.2778969
  75.2146835  17.3433838  59.4714470  75.3154831  17.2518539  60.9789124
  10.6470184  49.5232162  27.1228504  10.1246405  49.8715858  26.4003601
  11.5350637  49.4655914  26.7703094  37.7054024  19.2082863   7.5235023
  38.2328758  18.6923218   8.1332445  37.2490730  19.8412590   8.0778856
  72.7661514  64.1514587  56.9960556  71.9315796  63.6995697  56.8714943
  72.9328918  64.5819778  56.1575546   7.7527399   6.3180175  10.8996868
   7.6534314   6.4815540  11.8375711   8.6088381   5.8974791  10.8192196
  65.4619141  52.6903458  34.7063103  65.7354279  53.5824165  34.9199219
  64.5595093  52.7831612  34.4008942  40.2703285  37.3242188  70.4760818
  40.2334976  38.0745964  69.8829422  40.5275688  36.5902519  69.9180908
  84.4502182  17.1091824  81.2056274  84.6280975  16.1701946  81.2594147
  83.5696259  17.2072678  81.5678024  45.5822639  53.2343559  81.5799789
  45.8753510  53.4078331  82.4745407  45.8889236  53.9887657  81.0769272
  16.0770473  63.4147758  28.7908154  15.8564024  64.0584488  28.1175880
  15.5929184  62.6285782  28.5383396  71.7898178  45.1512222  53.1823196
  71.9432373  45.1062050  52.2385674  72.1860962  44.3513298  53.5278206
  62.4847908  49.6550140  79.0061646  61.7491875  49.8836288  79.5743713
  63.2199249  49.5273514  79.6057587  10.2693682  55.9489059  13.4648809
  10.7999563  55.5125961  14.1314726   9.4361601  56.1273384  13.9009533
  57.1329002   7.6378756  49.1289444  57.8202705   8.1917019  48.7587700
  57.1961327   7.7770157  50.0738640  57.7706833  54.1740456  44.4742317
  57.7165260  53.9432755  45.4016190  56.9673080  53.8207016  44.0921783
  28.8813438  60.3377876   1.9176351  29.0761108  60.8429947   2.7069790
  29.5518761  60.6066284   1.2896705  77.5561066  21.9276066  58.8577995
  77.7220001  21.4395409  58.0512619  76.6801376  21.6524696  59.1283760
  39.2442856  63.1932030   0.1948890  39.1266556  62.4262886   0.7554577
  39.6120071  62.8427391  -0.6163985  82.6291199  59.3232384  36.2635498
  83.2453918  60.0057983  36.5291748  82.8407211  58.5776787  36.8253326
  61.5560570  35.5193062   1.0440025  61.3088455  35.4681320   1.9673107
  60.7333908  35.4020081   0.5689300  61.4497833  37.4862785  87.2120438
  60.8571167  37.1409569  87.8796768  61.3152733  38.4335899  87.2392273
   5.9036217  44.7723923  21.4673271   5.9186745  44.0837936  22.1320362
   6.8161173  44.8590240  21.1915054  64.9934769  40.6678085  63.2520332
  64.6564484  41.2432899  62.5653992  64.8227005  41.1410294  64.0663605
  67.9572144  58.2780266   6.1095042  67.4840775  57.7223930   6.7288980
  67.8901367  59.1588020   6.4782410  82.2020569  66.6885529  14.0834541
  81.6930161  67.1884079  14.7216177  83.0466919  67.1373825  14.0463886
  72.4560928  12.6379957  86.7497330  71.5068741  12.6544619  86.8719864
  72.8105698  12.5682774  87.6361313   0.3549964  15.6598063   5.9928670
   0.7876287  14.8659830   6.3073611   0.8075724  15.8718414   5.1765046
   3.9059751  33.7341843  40.1640205   3.2712438  34.2890587  40.6173019
   3.7690988  32.8621025  40.5341148  17.8081551  15.7837963  19.6375160
  18.4279079  15.3998032  20.2577457  18.3552608  16.1092396  18.9226780
  76.2661591  14.6995611  84.3994980  75.3445816  14.4728394  84.5240936
  76.7229309  14.2419767  85.1053391  61.3494682  19.7153091  27.4742794
  61.9986687  19.5766659  28.1638813  60.6197586  19.1440639  27.7139359
  34.8739700  32.0399742   1.7579386  35.1067429  31.7094383   2.6255751
  35.3512421  31.4748917   1.1503820  30.8906822  70.4615784  14.0543833
  30.6137428  70.3176498  14.9592705  30.2555599  69.9747086  13.5292072
  50.9587517  30.5546913  43.1182938  51.0298347  31.5088139  43.1470985
  51.4513397  30.2546444  43.8822060  12.2100964  38.6500893  71.7732010
  12.4882889  38.1202965  71.0261002  11.2938881  38.4090157  71.9098587
  66.6354904  26.9768810  86.2804184  67.1849442  27.4154682  86.9300232
  66.4699249  26.1106033  86.6524200  45.0241394  30.4764118   2.7587054
  45.2147675  30.0372486   3.5875769  45.3338051  29.8674583   2.0882485
  43.9873924  42.3348579  57.3286362  43.9705048  43.1058235  56.7615700
  44.5819244  41.7270775  56.8889046  39.9711647  68.8521194  25.8042545
  40.2632103  68.4936905  26.6423893  39.0338631  68.6601334  25.7752171
  67.9408035  20.6761436  43.2296028  68.8909836  20.5679665  43.2707901
  67.8150406  21.5494747  42.8585091  64.5161285   2.9069228  34.3369293
  63.6933212   2.7520068  34.8008385  64.3492661   2.6021676  33.4450111
  76.2679977  23.2485981  87.7262878  77.2219925  23.2800827  87.6547012
  75.9741669  24.0930691  87.3845749  38.7069473  40.4149513  40.0133095
  38.8187408  40.2628288  40.9517059  39.3152351  39.8039589  39.5974846
   7.0617709  69.7681580  88.8864441   7.5246377  69.4604416  88.1071548
   6.2296700  70.1044159  88.5536270  50.6245422  65.1625900  82.1180191
  51.0026093  64.3391113  81.8095016  50.7122498  65.1244431  83.0704269
  18.6305580  15.8803968  11.3068666  18.2196674  15.0331860  11.4790182
  19.5366135  15.7701645  11.5952120  33.2611618  47.7234306  34.5948486
  32.3656006  48.0573578  34.5429192  33.5201950  47.5897865  33.6831055
  76.7349548  59.2184181  82.0001755  76.5491867  58.7781448  82.8295670
  75.9958420  58.9894753  81.4366760  82.5808411  70.6073074   3.4890141
  82.5779266  70.8875656   2.5737648  82.5297470  71.4218903   3.9890950
  12.0862064  58.2292328  16.8153591  11.7259064  58.9174004  16.2560406
  12.2261238  57.4891930  16.2245998  18.5958729  51.4328766  13.9608698
  19.0427532  52.2778130  14.0120144  17.7933025  51.6155930  13.4722738
  82.9142151  48.4261246  25.1598854  83.1666107  47.5553322  24.8528938
  82.0109329  48.5327301  24.8616409  51.8097801  12.4837475  52.0959892
  51.5273285  12.3811445  51.1871834  51.0305634  12.2803926  52.6133881
  48.5415001  52.6539879  75.7493057  48.9888687  51.8962250  76.1259842
  49.1926117  53.3550453  75.7776718  78.6136551  56.1149826  31.1629543
  77.6970139  55.8393593  31.1684151  79.0109329  55.6114693  30.4524097
   6.3854094  41.6772041  12.7513695   7.3241949  41.7915230  12.6035690
   6.3311458  41.0534248  13.4753761  17.1395340  25.4509697   3.5945010
  17.7407608  25.4696751   4.3390870  17.3286095  26.2567577   3.1136830
  41.1291504  30.9512119  12.4701710  41.2909813  30.0592937  12.1627235
  40.7519302  31.4005241  11.7138271   0.1056784  36.8078728  37.6606865
  -0.5806226  36.9442787  37.0075264   0.4872946  37.6758385  37.7919769
  34.5852928  37.9703827  17.5190811  34.2319260  38.8516197  17.6406937
  33.8371353  37.4508209  17.2248974  37.5363998  23.4302692  58.6580849
  37.2827110  24.2665157  59.0486832  38.1021729  23.6704884  57.9243050
  68.3835373  14.3963718  55.1089020  67.6198730  13.9403429  54.7552338
  68.9630585  13.6960516  55.4088135  85.7038574  12.4826221  52.4124374
  85.5681000  11.9872780  53.2201691  85.8613281  13.3801517  52.7054825
  35.5645523  46.3149986  47.3477135  34.9759789  46.1803665  46.6049576
  36.0790443  47.0860443  47.1089287  43.0852242  42.8785172   9.0096817
  43.4991226  42.8314247   9.8714838  43.1649361  41.9922600   8.6569424
  32.3246460  13.1860933  88.0804443  32.5210304  14.1010494  87.8791504
  32.6310616  13.0675497  88.9794922  39.4427261   3.7289381  74.2761536
  38.7879372   4.3860259  74.0401077  39.4427185   3.1159308  73.5410004
  67.7730560  19.8857937  16.4682178  67.2261276  20.6153374  16.1768951
  67.3106995  19.5274849  17.2258968  29.8942509  27.7275562   7.6092606
  30.8475323  27.8117046   7.5891018  29.6065350  28.4082222   8.2176561
  55.9493217  45.5343094  19.7367840  56.8753471  45.2942581  19.7038860
  55.6748161  45.5560493  18.8200474  82.1390839  25.0550556  62.6943970
  82.3056717  24.1273670  62.8613586  81.3125916  25.0668983  62.2117004
  50.9173546  18.0950928  20.9807262  50.4264870  18.3145618  21.7726288
  50.3357697  17.5126133  20.4921474  28.4372349  42.2714348  69.2712402
  27.8869305  42.9609222  69.6427307  27.8609486  41.5092201  69.2150955
  75.2301712  34.8968964  45.2230949  74.3280563  34.9777260  45.5327492
  75.6571579  35.7017555  45.5165520  16.2668381  48.5833588  82.5888214
  17.1066723  48.1331940  82.6797256  15.9006691  48.2445412  81.7719040
  61.3511963  55.6929245   6.3945642  61.2199287  54.8194695   6.0256705
  60.4666557  56.0415993   6.5052171  48.6149483  44.2197266  11.2815456
  49.4462433  43.9898224  11.6966677  47.9553490  43.7447929  11.7871094
  63.9028854  52.2900276  23.7101421  64.4782104  53.0462837  23.8255062
  64.0059204  51.7854080  24.5169735  18.0698929  40.7386322  52.9823418
  18.4256420  40.0777855  53.5764427  18.8194866  41.0151939  52.4552231
  36.4151192  35.7715111  30.8022633  36.4714279  35.0928459  30.1296024
  35.5850754  35.5997009  31.2469482  25.1550179  64.8698578  16.2760296
  24.4371948  65.4935837  16.3852348  25.7346172  65.2815475  15.6350880
  29.5100117   2.7106230  17.6410961  29.0205822   2.2369580  16.9685383
  29.3418846   3.6341610  17.4538994  59.8115311  31.9291420   0.3833769
  59.9515343  32.5078392  -0.3661159  60.6583061  31.5039749   0.5191608
  31.4109192  66.7900314  55.0223198  30.5327873  66.7089920  55.3945389
  31.3023357  66.5587311  54.0998573  12.8584242  47.5986290  74.3872681
  12.5816250  47.2242813  75.2236176  13.4318562  48.3260880  74.6285400
  79.1007614  31.0766716  50.0380135  79.8356857  30.8458004  49.4698448
  79.2365952  32.0021515  50.2411575  78.0828400  11.3544397  68.5531387
  78.8363953  11.8574724  68.2443619  78.3460846  10.4401150  68.4485168
  79.0580978  70.3644028  36.7782936  79.9206696  70.3922272  37.1923332
  79.1164703  70.9950562  36.0605888  44.4687462  40.5359993   3.7299733
  45.3697548  40.2734718   3.5415781  44.5349388  41.0668411   4.5237350
  71.2516708  65.6688232  19.3677006  70.9262695  66.5103073  19.0479317
  70.4875870  65.0926895  19.3460903  42.5503006  69.1419830  87.8540268
  43.3834114  68.6769638  87.7770920  42.7314072  70.0164642  87.5094833
  68.3626328   0.8429744  88.5245361  69.1487503   1.0204706  89.0410156
  68.6285553   1.0065207  87.6196747  47.0250397  12.9168615  88.3233948
  47.2330284  13.5267181  89.0312424  47.8480339  12.8151751  87.8452988
  63.4168396  36.6365700   5.3964076  63.6523819  35.7102318   5.3449492
  62.6618462  36.6594238   5.9843650  16.7715702  70.3825302  11.3250675
  17.4971752  70.8855591  11.6947813  17.0784454  70.1225052  10.4564800
  77.9193420  23.6211205  39.5493622  77.7847977  24.5631676  39.6526871
  78.8120651  23.5421295  39.2131691  75.5262833  62.9450989   9.3771734
  74.8217010  62.7250671   8.7677679  75.3779907  63.8659325   9.5923557
   0.8694794  27.2984371  70.9654922   0.2140152  26.6021843  71.0082779
   0.5635177  27.9542561  71.5920029  46.6226883  40.5768089  75.7890549
  47.1285172  40.2271957  76.5226364  46.9013176  40.0556831  75.0360413
   6.0822849  68.8536911  17.7712364   5.5685434  68.8437195  18.5788269
   6.8466363  69.3906479  17.9802208  77.5544586  44.0409546  68.2843628
  77.4285049  44.4258614  67.4170609  78.3181229  44.4957504  68.6396332
  80.9452820  17.9444237  53.5731773  81.6994858  17.3666725  53.4564743
  80.8971329  18.4431362  52.7575836  74.2847519  14.8157663  13.0166979
  73.5560532  15.4026327  13.2187271  74.0575256  14.4350080  12.1683903
  14.6641293  52.4180756  88.7029190  15.1251020  52.3959351  87.8643265
  14.0052357  51.7273407  88.6323547  68.1671829  44.4915237  36.4038734
  68.7185211  44.5845642  35.6269531  68.1654663  45.3620033  36.8019867
   3.3753297  67.2668762  39.1616478   3.9694903  67.6093979  39.8293953
   2.8443952  66.6180496  39.6235542  79.3768539  39.2252083  32.9591827
  80.2121506  39.1004715  32.5086746  79.0317307  38.3397217  33.0733490
  73.1027145  48.6551819  22.5830631  73.4746399  48.6133270  23.4640579
  73.8630066  48.7166061  22.0047798  72.3729630  31.1441212  73.1911926
  71.5223389  31.2008324  73.6264496  72.2483444  31.6040077  72.3610077
  57.1748123  61.6383171  80.3385391  58.0220222  61.7814674  80.7604065
  56.7643929  60.9445419  80.8547363  27.8868465  67.8541870  32.4092255
  28.0464153  67.8514404  33.3530273  27.1553307  68.4602585  32.2917557
  53.2529793  56.4103508  61.0815926  53.5628929  56.7723999  60.2514687
  53.6058655  57.0009499  61.7470970  72.0910645  52.6357422  21.2936459
  71.9933243  52.2593307  22.1682854  73.0295258  52.5816193  21.1131077
  85.8025970  50.2795792  50.5110931  85.7145309  49.6639977  51.2387810
  84.9019394  50.4772415  50.2542458  22.1841812  54.2348022   8.8602991
  21.3236408  54.6497650   8.8010559  22.4241886  54.0503960   7.9522119
  68.6226120   3.5879197  74.8676071  69.4727325   3.5068867  75.3000107
  68.0295792   3.8829517  75.5586243  13.4996233  27.8555145   2.8611922
  14.0281134  27.3827972   3.5042083  13.4063292  28.7348118   3.2277508
   8.6953058  55.2552872  66.4778214   8.1318626  54.5169525  66.7093887
   8.6595097  55.2933578  65.5220490  63.6457863  68.6516418  65.8073959
  63.6723480  69.4509811  66.3333130  62.8316650  68.7200317  65.3086395
  68.1303253   3.7439220  63.7243423  68.6407318   3.6664417  62.9182968
  68.7007523   4.2251568  64.3237228   4.2242279  40.8047752   7.5145359
   4.3596697  39.8661919   7.6447182   3.9316552  41.1251602   8.3677568
  59.3604355  51.6844864  56.0810814  60.1620865  52.0407028  56.4640961
  59.6597023  50.9647598  55.5255089  53.2725487  54.9622803  79.0002594
  53.9574661  54.3314896  79.2221146  53.2980690  55.6032982  79.7106628
  52.5834579  35.3188438  16.9071026  52.9727135  34.4639664  16.7229919
  53.0019798  35.9119606  16.2831783  71.9626694  14.6354227  56.2852745
  72.5319977  13.9006224  56.5136681  72.0487061  14.7189102  55.3356133
  42.1092987  41.3744049   2.1676402  42.8836594  41.4036179   2.7295506
  41.4847488  40.8313599   2.6485512  48.4086456  33.3917274  67.9822235
  47.9886780  32.5607414  68.2043076  49.0451088  33.5332489  68.6830215
   8.7997484  56.6209831  57.2438126   8.7814112  57.5527573  57.0254402
   8.3939676  56.1905823  56.4912643  49.8073120  13.3498745  45.1497765
  50.0260162  13.9853144  45.8314056  49.5346756  12.5679398  45.6298599
  52.4228287  15.1862469  49.1964493  53.2946777  15.5672932  49.0919838
  51.8221359  15.9045067  48.9976959  22.9305458  59.6005936  26.5570278
  23.2631454  60.4274864  26.2079506  22.5285606  59.8378143  27.3927097
  49.3221245   9.1224852  43.8526497  50.0516586   8.5324707  43.6631889
  49.6819191   9.7568531  44.4726143  21.4829350  48.3261681   1.8108783
  20.8177948  48.0657234   2.4480524  21.0484657  48.2400246   0.9623219
  20.2051296  35.8051109   0.3744743  20.9765453  35.7541122  -0.1899271
  19.7603626  34.9669304   0.2485070  78.1487732  18.9464645  42.5332260
  77.4537964  18.7473965  43.1606026  78.7932968  19.4415817  43.0388794
  25.1035347  66.2271805  12.6447401  24.7672005  65.4234161  12.2484255
  25.4578648  66.7268295  11.9091864  85.6560211  56.2790070  86.6286163
  85.7095718  56.7522049  87.4589462  85.0546341  56.7986221  86.0951691
   2.1508703  32.6676407   1.1153349   2.8577740  33.1290436   1.5665841
   2.2894239  31.7458210   1.3327869  38.7759399  22.6316605  40.2062569
  38.2886467  23.4416161  40.0554199  38.8936462  22.5962029  41.1555290
  38.5556717   7.6989522  59.7495461  38.8598404   8.4681187  59.2677841
  39.2167397   7.0293794  59.5737839  63.6464767  53.9569206  43.8073769
  64.2574310  54.5983963  43.4447784  62.8631821  54.4649315  44.0185852
  29.3985386  56.7074699  36.3767357  28.7618523  56.2002869  36.8803482
  28.9404526  56.9296989  35.5661774  56.9552727  39.4124069  82.5345459
  57.6402397  40.0764313  82.4562988  57.4157562  38.6269455  82.8299179
  26.6532269  21.5451756  65.9637146  26.7792492  21.0740070  65.1400909
  26.3605652  20.8746090  66.5809021  66.3992310   0.4889718  81.1630630
  66.8340912   1.1029403  80.5713120  66.9104996  -0.3169475  81.0900269
  67.6903763  49.7863731  35.6208000  66.8733368  49.9137383  36.1029358
  68.1303558  49.0709114  36.0798950   4.7494745   1.9334356  87.3490219
   5.6071053   1.9395876  87.7740631   4.6244755   2.8337083  87.0488281
  68.7072601  52.7253876  45.7477570  68.8572235  52.5473404  44.8192940
  69.3186646  53.4312057  45.9580803  40.2068939  59.3670654  17.0819092
  40.0322227  58.5858994  17.6067905  40.2634544  59.0437393  16.1827469
  43.0941887  61.5520096   1.9592979  42.4275970  62.1303558   2.3299780
  42.6014137  60.9327393   1.4208658  41.0694847  34.9267616  42.8484077
  40.8623772  34.1938438  43.4282074  40.7806892  35.7020340  43.3298492
  60.3292999  53.7130127  49.5896645  59.9068069  52.8576241  49.5119171
  60.1909065  53.9664383  50.5022736  67.3778610   4.5033560   8.3964052
  67.0820312   5.3236456   8.7911730  67.4701080   4.7052369   7.4652953
  86.2940598  48.7583923  25.0337372  86.6513672  48.4757385  25.8755646
  85.3659134  48.5286369  25.0781994  31.2854118  68.9332123  63.8965378
  31.0428162  69.8529816  64.0032959  31.4146137  68.6143570  64.7897720
  33.8713837  66.0787659  60.5239067  34.6988182  66.5057678  60.3019714
  33.5193977  65.7868576  59.6829987  37.2390900  15.3930540  74.0243530
  37.2866249  15.8876553  73.2062225  36.4141617  15.6692762  74.4236374
  50.9544563  13.7194300  81.5191193  50.3989220  14.0064955  82.2438354
  51.1968880  12.8212585  81.7443848  47.0847855  32.6896629  42.8715630
  47.1777649  31.9115620  42.3218880  47.4801788  32.4412727  43.7071457
   0.7440853  45.8914757   0.5961126   0.0501605  46.2242546   0.0269396
   1.5064347  46.4302330   0.3844639   5.1165156  49.3208504  26.8792477
   5.1596608  49.5545464  25.9520168   5.6144753  50.0075645  27.3227482
   0.0075012  20.0396824  27.9240150   0.7458584  19.4957409  27.6498108
  -0.6716881  19.4132175  28.1739635  71.7411270  37.8908768  39.7868729
  72.6915131  37.7768707  39.7842140  71.5042877  37.9490395  38.8612633
  55.7975159  23.0892296  76.5368347  56.2164345  22.2380543  76.4093933
  54.8923378  22.9551373  76.2559280  19.0752983  56.7924309  38.0222206
  18.4915314  57.2739792  38.6083641  19.7856693  56.4892731  38.5876427
  76.3365555  15.0551252  20.2877522  76.7840118  15.8929148  20.1688995
  75.5759277  15.1055908  19.7088451  69.1296921   8.5947332  37.7410965
  69.8497238   7.9659142  37.6924515  69.3703232   9.1792574  38.4598846
  26.7193165  13.8116007  72.5442734  27.1292400  14.1263742  73.3499451
  27.0906639  14.3627987  71.8554230  14.1542616  55.5370178  69.5928497
  14.9732609  55.7244720  70.0514755  13.5458050  56.2063255  69.9059677
   0.9897544  65.4411774  59.6762161   1.0217779  66.1695175  59.0559540
   0.9393691  64.6597748  59.1256752  64.6333389  27.4431705  43.1808968
  65.2152252  27.2310238  42.4510841  63.8391724  26.9372559  43.0088921
  33.3238487  51.3545952  51.0712242  33.6838875  51.4983444  51.9464035
  33.8703384  50.6629868  50.6980438  72.1519165  35.0026016   3.5806584
  73.0253296  34.7518158   3.2798359  71.9518433  34.3807487   4.2803011
   9.4925213   9.5558271  66.0859375   9.3691998   8.7370796  66.5662231
   9.5619583   9.2878695  65.1696320  30.7544651  33.7334557  70.8276901
  30.8225422  34.3525581  71.5545425  29.8316517  33.7613258  70.5749664
  13.6049023  65.3684692  38.8947678  13.2932816  64.4667358  38.8173027
  14.5450649  65.2841721  39.0535736  30.9931965  31.5460548  80.2779160
  30.2609234  32.0896492  80.5686264  30.7321930  31.2365665  79.4105530
  17.3431625  70.3928070  64.5134048  17.7210159  70.6995392  65.3376465
  17.4399567  71.1337280  63.9151573  72.5417099  61.8995323  65.0694809
  71.9579163  61.1416626  65.0371399  72.3767395  62.3641281  64.2490082
  66.2852859  11.8486347  10.3031502  66.3151550  10.9031582  10.1568155
  67.1864243  12.1408157  10.1659756  72.4448624  36.5954933  73.8273468
  72.1700363  35.8869209  74.4092636  72.1343460  36.3288574  72.9620590
  50.8896103  15.7074451  15.6619053  50.3314896  16.1716499  16.2858009
  51.2658424  16.3985081  15.1168251  30.9653511  66.0310669  73.4096222
  30.5009747  65.5488281  72.7254944  30.8990364  66.9480896  73.1433487
  41.1837311  31.4968529  27.7190304  41.6696396  32.3203011  27.6736679
  41.0661278  31.2374878  26.8051758  11.3150930  48.7760124  31.2184715
  12.2207632  48.4797478  31.1278000  10.8561611  48.0292091  31.6030445
  25.6268578  36.4783401   4.6252108  25.3555984  35.9608612   3.8670111
  25.6734638  35.8461266   5.3424034  61.9238358  70.3861084  51.1162148
  61.2834053  70.1955109  50.4308281  61.3969917  70.5373917  51.9009323
  70.7038651  11.2677526  72.5740433  71.2742996  11.8331347  73.0947876
  69.8176346  11.5046453  72.8473816   2.3496072  12.9180813  28.7106552
   2.0440094  13.1676502  29.5827541   2.2863135  13.7223101  28.1954441
  46.1662483   5.6700020  68.5493317  45.3687325   6.1438546  68.3134079
  45.9083023   5.1205506  69.2894669  38.8930511   6.1100860  13.3628912
  39.1467400   6.0473619  14.2837286  39.1116180   5.2537026  12.9953747
  55.2636719  44.2736435   1.7363276  55.7444649  43.4468384   1.6980821
  55.1998291  44.4705734   2.6708727  46.2760506  51.9220390  36.4906921
  46.7885551  52.2844810  37.2133293  45.8239059  51.1692657  36.8716583
  14.0655842  56.6351852  76.2616882  13.7463512  56.2786980  75.4326935
  13.5028353  57.3909912  76.4299316  79.1449127  52.0359459  18.2294731
  78.8482285  52.9209366  18.4415989  78.9676895  51.5277481  19.0210304
  39.6264420  56.6007233  35.5710030  40.0471954  57.1754913  34.9315987
  39.4261017  55.8032913  35.0809021  59.4801636  33.1089439  15.7289743
  59.6394196  33.9232635  15.2517405  59.9337196  32.4389458  15.2174816
   0.9239019  37.1728287  44.5856400   0.2395607  37.3896866  45.2187920
   1.6731820  37.7062645  44.8507004  79.3440857  12.8069487  38.6146088
  78.6693039  13.4075356  38.2980766  80.1282043  13.3497009  38.6971169
  62.8448601  11.2685604   6.5308752  62.6223907  10.7070818   5.7882576
  63.7968559  11.3579636   6.4868031  32.9319344  63.0662842  24.8970623
  32.3612442  63.2785568  24.1584930  32.6431046  63.6501198  25.5984516
  59.5160904   1.8778337  44.7359581  58.9962883   2.6182106  45.0488091
  59.0510864   1.1056308  45.0579910   6.8720932   9.6644678  74.6364288
   7.2724051   9.6634026  73.7669525   7.0392227  10.5436754  74.9759750
  61.1879578  23.7467690  71.9715271  61.4056282  22.9489422  71.4895248
  62.0321426  24.0819569  72.2735825  43.0516243  46.9507599  53.8754234
  42.4860153  46.8077393  53.1165657  42.6172447  47.6454315  54.3703766
  61.5242805  30.5697155  30.3382244  61.8735733  30.6969643  29.4561615
  61.2729759  29.6464958  30.3654346  40.6653366  58.6813164  12.4973068
  40.9793396  59.4869156  12.0866423  39.7116699  58.7382431  12.4380627
  40.7549286  32.1585617  75.2267532  40.2719917  31.4015541  74.8951797
  41.6601486  32.0015945  74.9581070  59.5072250  43.4242477  47.6205330
  59.7336693  43.4317360  46.6905327  59.2061081  44.3147697  47.8008995
  39.5110435  34.4004326  80.2613602  38.6604996  34.4411278  79.8241577
  39.5387154  35.1876602  80.8051758  80.2197266  27.5164604  77.2123337
  79.8541870  26.8284550  77.7684402  80.4143143  28.2338104  77.8154678
  74.0262451  26.7404671  50.7441711  73.4951782  27.2381344  51.3658867
  74.8779221  27.1772671  50.7532654   8.3426428  42.4467735  84.6615982
   9.2498446  42.7228012  84.5311203   8.1863279  41.8032379  83.9704742
  56.4297409  22.7159615  32.7779198  57.1397476  23.0098915  33.3486443
  55.7057114  23.3118687  32.9700432  64.9537888   5.4547915  17.2191257
  64.4649277   4.7229218  17.5954380  65.3524857   5.8893857  17.9730511
  22.7668629  22.6572628  10.5725632  22.2251892  21.9856853  10.9870586
  23.6578770  22.4569168  10.8592501   0.9953998  18.3089619  86.4821014
   1.0528364  17.7340679  87.2452774   1.7723200  18.8648739  86.5419922
   8.5361423  57.8081284  67.0525360   7.9936094  58.2092209  66.3735504
   8.7181950  56.9275093  66.7245178  60.4989738  51.8795967  87.4351196
  60.9363594  52.3829346  86.7484055  60.7520370  50.9722481  87.2650986
  73.6369781  69.9816437  88.8062820  73.7916336  70.8616943  88.4630203
  72.6837692  69.8968735  88.8273697   3.7874508  26.0524292  74.1892853
   3.5071299  25.1635571  74.4073639   4.7018633  25.9566479  73.9230042
  32.6185799   1.8107934  34.6683617  31.8971863   2.4352169  34.7452774
  33.3634224   2.2541292  35.0744400  36.8765488   2.7436609  68.5394669
  37.3511543   2.1111887  68.0000610  36.8883553   3.5520473  68.0270233
  73.7128830  48.9212379  49.6696129  73.9602890  49.3382454  50.4949188
  72.7589645  48.8541412  49.7116852  79.3829193  25.7170067  31.1120987
  79.4400101  24.7627716  31.1611500  80.1404037  25.9755936  30.5871353
  27.8805180  60.7530594  60.5431252  27.5752125  59.9073944  60.8715630
  28.0906601  61.2543068  61.3310471  32.6356964  19.0012074  74.4963379
  31.7874603  18.5657482  74.5806351  33.0738449  18.8358097  75.3311462
  50.8070564  47.2062645  52.1921425  50.4969521  46.3638115  52.5243187
  50.9234009  47.7443314  52.9752045  44.1727600  24.6010303  77.9195633
  43.9121323  24.4786930  77.0066910  44.9662971  25.1342640  77.8726883
  46.3860664  66.9865417  23.4232330  46.4978523  67.8019638  22.9345474
  46.8187714  66.3236008  22.8851662  83.1337128  55.9879074  75.7021255
  83.3335953  55.0520973  75.7252426  82.7883530  56.1806641  76.5737915
  51.4382286  45.8449402  33.6339989  50.9204521  45.2245865  33.1208649
  51.6640396  45.3662987  34.4315834   2.4394429  50.3681526  54.1458969
   2.7721276  51.0540161  54.7248116   1.7420750  50.7933998  53.6468239
  15.3323183  55.8962936  85.6145325  15.0886765  56.7809792  85.3421326
  14.9888201  55.8165474  86.5044098  19.6053829  57.2922554  54.4169540
  19.9759293  57.8501892  55.1007957  19.0842628  56.6450462  54.8921242
  35.9808731  35.7792397  71.2530823  36.8033447  35.6644440  71.7290955
  36.2367668  36.1943893  70.4294281  45.9495735  18.4318848  16.1558094
  45.6427231  17.8285904  16.8326473  45.1501732  18.8226395  15.8029623
  49.4759827  53.0460968  64.8527069  49.3210373  52.7437134  65.7475739
  48.6070290  53.0625076  64.4515991  11.2477283  67.1015320  65.5901413
  12.0954113  67.5429077  65.6435165  11.2492332  66.6833420  64.7291260
  86.5039444   2.7269599  -0.2199613  85.6028748   2.5448847   0.0467731
  87.0386581   2.1729450   0.3487049  82.7346573  19.3947258  31.4200649
  83.2033463  18.6646328  31.0156841  83.3948441  20.0817242  31.5118351
  30.4397888  61.5423622  32.6489105  30.5361156  61.8161736  33.5610390
  31.3250160  61.3004951  32.3766823  43.4089737  15.0238934   5.7168474
  42.7451210  15.6068745   5.3485217  43.4441490  15.2568436   6.6446023
  80.2600250  31.8671417  44.5287971  80.6990967  32.3091507  45.2554855
  80.9660568  31.6450634  43.9218063  16.5198097  43.3687019  22.1704311
  17.2189159  42.8635788  21.7553005  15.7900715  42.7534523  22.2423954
  50.9437523  14.9316835   0.0058996  50.7755661  15.6577177   0.6065815
  50.9434776  14.1540623   0.5640537  25.5412483  44.3592224  83.8822632
  26.1806355  44.0290947  83.2510452  25.5101013  45.3021812  83.7207489
  82.6953964  10.8468914  59.9620361  82.3097076  10.6868610  59.1007195
  82.2109528  10.2697735  60.5523643  44.0348244  63.7400551  12.1460848
  43.4891167  64.3666763  11.6709251  43.4220734  63.0695572  12.4480772
  68.4188614  57.5762558  24.8019123  68.6994858  58.2495499  25.4217186
  68.0775375  58.0665131  24.0539970  70.1516342  58.9326096  82.3409576
  69.5808334  59.6940346  82.4441376  69.5507050  58.1973915  82.2202377
  51.9805717  38.7090187  65.7513428  52.5449829  38.2905998  66.4014206
  51.8857689  39.6098404  66.0607910  49.6036110  34.7590714  63.9790497
  50.3066826  34.3607674  64.4921570  49.0757294  34.0184479  63.6806412
  61.4026566   7.6323795  80.9873657  60.7032661   8.1509142  80.5896149
  62.1612511   7.7802463  80.4226456  82.0802765  19.2446442  85.7853394
  82.9821014  19.0070152  86.0009232  81.6199722  19.2236576  86.6243362
  78.9024506  69.6353455  28.8074780  79.7781677  69.6480103  28.4212341
  78.3789749  69.1159973  28.1971588  25.4010544  61.8833160  88.3977356
  25.5223541  61.9917259  87.4544601  25.0184860  61.0108986  88.4913177
  70.2776642   5.9040699  52.6093292  69.3664932   5.7630553  52.3521957
  70.2450333   6.0062976  53.5604935  59.9927902  58.0034142  47.7120361
  60.0821190  58.7816696  47.1619720  59.0515213  57.8305893  47.7314453
  19.3270588  55.7135429   0.8501841  19.4088345  55.8020630  -0.0993993
  20.2147694  55.5174866   1.1497897  72.2293701  29.6986561  46.3054543
  73.0502167  29.3965759  45.9166222  71.5478134  29.2517834  45.8034401
  31.5326939  23.8314819  79.3368835  31.4711857  23.5364208  78.4283752
  31.7599087  24.7590981  79.2725830  70.1224670  55.5786018  28.3155422
  70.1386948  55.3216667  27.3936119  69.4602737  56.2683334  28.3603344
  75.4184113   8.7345810   4.4953208  74.5331192   8.9097052   4.1762242
  75.3863449   7.8298483   4.8062258  39.9569626  58.5789337  62.3466110
  40.8009796  58.5748863  62.7981071  39.7028160  57.6569977  62.3056602
  36.2810974  23.7333488  69.0508957  37.0296631  24.1858215  69.4396744
  36.3747864  23.8803673  68.1097031  72.3910370  29.2587585  42.0445595
  72.7084198  28.4638252  42.4730186  72.6931610  29.9713402  42.6077461
  80.7899780  62.4847450  53.3613014  80.5955658  62.7057381  54.2721252
  79.9320984  62.4255714  52.9408455  23.4106388  24.3803654  82.2137375
  22.4591904  24.4072971  82.3149948  23.7463646  24.3591232  83.1098785
  11.3460188  51.0439911   2.6301017  10.8150568  50.3409004   3.0042326
  11.2814178  50.9153023   1.6837945  32.3717194  70.8324280   0.3044096
  31.9040909  70.7536850  -0.5270676  32.3421326  69.9525375   0.6801041
  27.5389748  42.0033531  13.4851494  27.0851822  42.7510681  13.0962734
  28.3863945  41.9798737  13.0406704  28.3683357  46.5788155  53.8369827
  27.6746998  47.0966263  54.2456093  29.1056767  46.6449394  54.4437675
  13.4098864  32.3204880  67.4888535  13.0855532  31.7549095  68.1896820
  13.1231852  31.8913345  66.6827164  52.9050255  53.6920280  71.4878540
  53.3448524  52.9381714  71.8808899  52.1706276  53.3150444  71.0033112
  25.0240040  53.4087257  26.8111477  25.4537182  54.2294960  26.5705070
  25.0653629  52.8750839  26.0175819  48.5093689  21.0168629   1.1974385
  47.8665276  20.6252651   1.7887410  49.1151810  21.4806461   1.7754776
  57.0737000   6.9642310  44.6565628  57.7153206   6.2544236  44.6296082
  56.5876732   6.8170729  45.4679527  71.9832916  71.0307846   8.0436182
  72.2163544  71.8907547   8.3934326  72.1581421  70.4241409   8.7630930
  45.7230301   1.8459158  25.8859100  46.4588661   2.0233376  25.2999935
  46.0364647   2.1102190  26.7508583  48.2373009  10.5528212  25.5528736
  48.1795502  10.3149128  26.4782372  47.4333153  10.2063217  25.1658630
   1.8543296  56.4388542  82.4340515   2.4774213  55.7352066  82.2527542
   2.0304890  56.6868248  83.3416367  76.0111771   8.3019056  86.0487671
  75.7104797   8.1943283  86.9511185  76.3000259   7.4277554  85.7867355
  66.7991409  54.9700279  76.7951736  66.1980743  55.6587601  77.0790863
  66.5757370  54.8209190  75.8764343  39.4928322  49.7232857  23.9788151
  38.9912872  49.5352135  24.7721100  38.8794823  49.5578232  23.2628155
  57.2478447  55.8651619  73.9980545  57.1461220  56.7432289  73.6307907
  56.5812645  55.3410835  73.5539322  85.5290680  46.5356598  77.4101257
  85.6781006  47.0981712  76.6501236  86.3531113  46.5664635  77.8961639
  67.0067596  27.4873791  51.0159149  66.9964371  28.3145885  51.4974213
  67.9153290  27.3868313  50.7319870  46.1122665  19.8841286  86.3804092
  45.7152328  19.0307484  86.5545807  47.0539894  19.7129002  86.3718643
  36.2452431  50.9263382  24.5450478  35.7630920  50.0998230  24.5703182
  35.6301308  51.5731163  24.8907967   3.7261434  64.1457062  15.8646994
   3.0624461  63.9742317  16.5327835   4.1911416  64.9197998  16.1821632
  69.5528030  68.1864319  86.4167404  69.9537659  69.0009766  86.7200165
  68.8981934  68.4655533  85.7765808  41.7993774  36.6727715   2.1235392
  42.0503159  37.2444038   2.8491430  40.9834404  36.2637711   2.4119694
  84.3364639  22.4277000  44.3022575  84.8952255  21.6505299  44.3068161
  83.8754883  22.3863468  43.4643898  44.8743668  60.8604851  40.1061859
  44.3750458  61.5398407  39.6529884  44.6625557  60.9845276  41.0313759
  20.4054317  63.5965919  30.7740345  21.0011292  63.7120438  30.0337334
  20.2626686  62.6512871  30.8214207  43.2206497   5.8133559  44.9495277
  42.9843216   6.3383026  44.1847954  43.6607361   5.0450258  44.5858994
  33.5371246  15.4556379   0.7842101  33.6270714  16.3965950   0.9350083
  34.4355659  15.1254530   0.7883170  30.0453129  50.1532326   3.3855493
  30.4683495  50.2034264   2.5283720  29.1112556  50.0843773   3.1879983
  71.6216812  67.4401627  68.3190918  71.1061096  67.5444336  67.5193787
  71.6637039  68.3201370  68.6934052  65.9341431  16.3667469  75.0082092
  66.2887039  15.6089935  74.5430984  66.6489258  16.6554871  75.5756073
  47.0107765  66.1747894  58.0764275  47.0124893  67.1035004  57.8446617
  46.4398842  66.1202316  58.8428040  52.4922943  17.9503307  14.6783381
  53.2192688  17.3411503  14.8073339  52.8567390  18.8079395  14.8972416
  44.8332100   1.7324705  59.9560394  44.0578575   1.3884714  59.5125084
  44.8685074   1.2525256  60.7834702  57.3864517  12.4207869  10.2295446
  57.4031487  12.6430817   9.2986641  57.1741486  11.4876347  10.2491837
  25.0531425  19.7551460   7.6193547  25.2725887  20.4835262   8.2003345
  24.6511211  20.1701965   6.8562412  86.6911011  12.4813776  20.2431126
  87.4376678  12.0834265  19.7953415  86.1698532  12.8700266  19.5406303
  45.9011269  42.7938499  71.8657455  45.1992378  42.2901459  71.4535904
  46.6836014  42.5714340  71.3612671  54.6934242  52.8779221  79.7858047
  55.4506950  52.8645477  80.3711166  53.9408417  52.7582626  80.3650589
  68.8431473  60.0860672  56.6226311  68.4894714  59.4414177  56.0097923
  68.2107925  60.8044548  56.6059914  48.6148796  28.1110973  88.2447662
  48.8969345  28.5840034  87.4617996  48.8303909  28.6979046  88.9696426
  78.7960663  31.7008457  73.5324402  78.6599960  32.2839394  74.2792435
  79.3072662  32.2209930  72.9124756  49.6372185  18.7822704  23.3683929
  48.9360886  19.3720455  23.0912418  49.1864090  18.0727558  23.8262062
   1.8765844  70.0849075  88.6575928   1.9178503  69.9824066  89.6083984
   2.7630451  70.3439026  88.4059143  82.4543991   3.1750333  64.9343948
  83.2738037   3.0840328  64.4480515  82.2050629   2.2772722  65.1536865
  63.4162064  19.7489872   0.1719779  63.3874855  19.2495766   0.9880632
  62.5299110  20.0966015   0.0725840  39.0490303  55.5200958  15.7288189
  38.3949280  56.1137123  16.0975990  39.1411362  54.8283577  16.3839855
  86.9670868  36.3731956   8.4803009  86.3674088  37.1183662   8.4437208
  86.8480225  35.9285126   7.6410680  23.5263138  62.5526161   4.6138453
  23.9850597  63.1739502   5.1792870  23.9913044  62.6004791   3.7785466
  16.0747643  18.0582809  60.6916046  15.5883265  17.3799210  61.1600456
  16.9878407  17.7751865  60.7403908  39.5716858  64.8400269  18.0518131
  39.0671425  64.8333359  18.8652134  40.1775551  64.1042099  18.1397171
  67.5642471  15.1108389  11.1830940  67.3766479  16.0467319  11.2547913
  67.0261078  14.7058935  11.8632822   9.9076729  47.1460876  66.9501495
   9.6250420  48.0574036  67.0266724   9.4384184  46.6903076  67.6489334
  53.4143753  31.6064758  54.4151878  53.7696495  32.4945259  54.3780746
  52.5443230  31.7124672  54.7999077  66.2370071  66.9120560  87.3204727
  66.8274994  66.1789703  87.1468735  66.2659531  67.0230789  88.2707672
  86.2431030  66.8841553  71.2683563  86.5739365  67.1365356  72.1303864
  85.3633347  67.2593689  71.2301941  60.7205582  12.3223619  68.8282013
  61.1953125  12.4538336  68.0074997  61.3488274  11.8818073  69.4004059
  35.1150589  27.9991150  88.2124329  34.7858925  27.9882622  89.1111908
  36.0424347  27.7766209  88.2943039  50.0157318  32.2380142  29.3023472
  49.6648407  32.8496437  28.6550331  50.1911087  31.4385376  28.8060474
  49.4752045  68.6132889  13.8148727  48.8322639  67.9810410  13.4937515
  48.9521675  69.2875137  14.2485561  75.5632553  66.6712494  27.6642303
  75.6970291  65.7610397  27.9285374  74.7132263  66.6704102  27.2241440
  64.0961761  36.3083649   0.5721344  63.2119102  36.0174599   0.7950105
  64.2785416  37.0158882   1.1905072  58.7445679  71.6721344  59.8062134
  59.6170197  71.2846680  59.7360458  58.1612434  71.0209427  59.4164429
  26.7595024  43.7796173  62.3706894  27.3995094  43.0829582  62.5166054
  25.9102421  43.3487587  62.4673882   8.5587387  24.4688931  70.4860306
   7.6017199  24.4537716  70.4751205   8.7919664  24.2235298  71.3813705
  68.4616394  16.5467777  68.3156357  68.9368439  15.7174597  68.3670731
  68.4276123  16.8597889  69.2195740  64.4178467  22.3723850  56.2777977
  64.4102859  23.0386868  56.9649773  64.0209732  22.8040657  55.5212440
  80.7314758  18.0961342  61.6184120  79.8553314  18.0975189  62.0039062
  80.9579849  17.1692791  61.5418358  47.3448029  30.3510418  76.5486603
  47.0657310  31.2088375  76.8688736  47.8575249  29.9821091  77.2678528
  27.5411243  39.8864975  18.9142590  26.8154545  40.5010262  19.0237598
  28.1754627  40.3586044  18.3748531  50.5346832  53.3021164   1.9072431
  51.3005714  53.7369232   2.2821975  49.7934456  53.6577454   2.3974738
  72.4103088  25.7324429  29.6443653  72.1284180  26.6268387  29.8362675
  73.3542480  25.8040257  29.5026512   5.4201984  48.6012039  58.9249496
   6.3256307  48.3366852  58.7622986   4.9788303  47.7942162  59.1898994
  41.2161598  41.7889938  63.2837334  40.6678734  41.7606850  62.4996338
  40.6095085  42.0027618  63.9926109  50.7105408  15.6924305  41.4495392
  50.0330238  15.0369768  41.6156197  50.4094620  16.1553040  40.6676636
  68.5559845  55.2083282  21.3384075  69.0778046  55.8910904  20.9167747
  67.6489182  55.4833565  21.2049160  35.9424210  37.4693184  14.3707037
  36.3283310  38.1115875  13.7750549  35.3669472  37.9833984  14.9370775
  12.5432844  57.3643570  70.3073425  12.6071424  58.0413284  70.9810333
  11.6264267  57.3850441  70.0331573  30.4108315  40.4706573  56.1870384
  29.4998360  40.2442055  55.9998436  30.4108925  41.4253273  56.2565880
  57.8557434  23.7158642  69.4776535  58.6503639  23.8724899  68.9674835
  57.9640427  22.8300228  69.8237610  23.5037766  12.5747643  29.4531956
  23.7726059  12.1085463  28.6616135  24.2356358  12.4594784  30.0592670
  30.3415356  50.9024849  49.2495461  29.5327644  50.8087654  49.7528725
  30.0612144  51.2727890  48.4125710  75.8552170  55.6172981  38.1028595
  75.5667877  56.0750313  37.3132286  76.1950760  54.7810822  37.7843208
  65.1211700  32.5813065  31.6099167  65.7971191  32.6069832  32.2871628
  65.6074677  32.5062790  30.7888737  14.1840973  37.5856247  11.4354677
  14.3580217  38.0969276  10.6451826  14.0118523  36.7003098  11.1148720
  82.1152115  68.0512466   4.0791864  82.0543060  68.9139328   3.6689489
  81.5599213  68.1157761   4.8561826  84.8875351  51.1420059  77.3125381
  85.4106140  50.4062996  76.9941864  85.5228653  51.7262878  77.7263184
  62.8669586  61.4818916  89.3237457  61.9109192  61.4414520  89.3479919
  63.0695419  61.8449783  88.4615631  23.7036686  66.1145935  20.0970192
  22.8485851  65.9338913  20.4874191  23.5412197  66.8341446  19.4870224
  28.9402103  27.0087261  76.8947067  28.2446728  27.5097141  77.3207016
  28.9559917  27.3373451  75.9958267  48.4824905  69.9642258   0.2050624
  49.2575912  70.4942169   0.3909690  47.8832169  70.1549454   0.9266765
   9.0601854  40.5238991  63.7998772   9.0421305  41.2566261  64.4155197
   9.7972879  40.7161713  63.2202682  55.7508545  51.9061203  63.9251099
  55.6831779  52.4816170  63.1632347  56.1226501  51.0944443  63.5798836
  55.4655342  56.8057861  77.4570847  55.8004990  56.5482635  76.5981750
  56.2385445  56.8192062  78.0214462   8.4428129  22.9705200  24.8490200
   7.7617559  22.6358376  25.4324417   7.9641619  23.4464073  24.1703033
   9.2147913  65.0774841  34.0260773   9.6412630  65.9171066  34.1975174
   9.7173605  64.4444580  34.5388489  36.5027771  70.7893524  26.8094120
  36.5947342  70.0386887  27.3961639  36.6445885  71.5512619  27.3712101
  14.4630537  63.2255745  59.4942474  14.8467474  63.8877792  60.0691338
  13.6179247  63.0214462  59.8946457  45.9314041  63.2507362  42.9860306
  45.7168503  62.3316879  43.1458549  46.7703209  63.3812218  43.4280968
  43.1106339  57.4237709  23.3113308  43.8781128  57.9953995  23.2902145
  42.9641075  57.2538071  24.2418537  72.6247025  31.3318615   7.9825730
  73.2764664  31.8753090   8.4254045  73.1329575  30.6258755   7.5832047
   7.3286004  39.5873146  58.6409836   7.2262378  39.5141525  59.5898781
   6.5373464  40.0399132  58.3489151  73.2560120  51.1869774  87.6625214
  73.4352264  50.3486328  87.2367401  74.0169525  51.7289772  87.4540787
   4.9302411  10.1415119  84.9988937   4.8769298  10.8357315  85.6557388
   4.0186143   9.9477291  84.7806778  70.0498734  47.1642799  22.5112381
  70.8956604  47.5390778  22.7570000  69.4663391  47.3955650  23.2338924
  10.5882864  30.4673786  63.1513786   9.6918116  30.6708050  63.4181786
  10.9275112  31.2919559  62.8031960  48.7985344  37.5800400  17.6599731
  49.2404251  38.2523994  17.1414223  48.2753830  37.0922890  17.0238571
  45.0928192  66.9975967  75.5816345  45.9399223  66.5650024  75.4743423
  45.3087082  67.9241333  75.6872177  51.6848373  38.9499893  82.1032867
  52.5406837  38.9179459  82.5307693  51.7061157  39.7542343  81.5846634
  15.5909166  64.1499405  34.9614868  16.2409439  63.8298798  35.5869904
  15.6684723  65.1031342  35.0021019  46.8590355  15.1798716  58.0164299
  47.4753151  15.8617373  58.2838058  46.3605499  15.5747204  57.3010025
  17.8041191  45.7475548  26.2221260  17.3780785  45.6781960  25.3677788
  17.0942287  45.6324463  26.8538208  33.8668556  59.4813499  62.7893372
  34.4221916  59.8380547  63.4825897  33.2162247  60.1646919  62.6282234
  60.8539963   3.7347677  36.8495712  60.3860168   4.0725393  36.0859375
  61.0043182   2.8109565  36.6490517  21.5167236   2.6667225   5.8042827
  21.3866329   2.0423880   5.0904799  20.6474285   3.0352645   5.9615464
  39.0218887  63.6193619  63.8159943  39.0136490  63.3079758  62.9108963
  38.5522728  62.9442635  64.3058243  18.1831913  69.4381409  15.4616337
  18.5786724  69.2724075  16.3174133  17.4938164  68.7785492  15.3845816
  69.5703430  64.6841125  84.5776443  70.3762970  64.6354523  85.0917511
  69.3453445  63.7712364  84.3980331  52.5853424  71.5820694   8.0851469
  52.4644852  71.9214172   8.9719782  51.8023720  71.0564651   7.9210529
  62.1770859  26.7959404  63.0471687  62.0432625  25.8631706  62.8790512
  62.2665749  26.8574791  63.9981880   7.7007256  57.1996307  70.8753281
   7.7440243  58.1030502  71.1886749   7.0112877  57.2091942  70.2113876
  42.3690605  67.8058167  78.7889404  41.5989647  68.3319016  79.0043945
  42.9606895  67.9322968  79.5307083  23.3590279  47.4675980  17.2720032
  22.5605679  47.1222420  17.6712799  23.8719559  47.7981644  18.0094738
  64.6913528   5.4948387  35.1523857  64.3279953   6.0082641  34.4308624
  64.7226562   4.5989227  34.8168449  11.7067575  66.1046066  40.8212547
  12.1192694  65.5561142  41.4885025  12.3822803  66.2170715  40.1524849
  27.7515411  46.9274330  22.7176914  27.1146107  46.2381973  22.9061298
  28.0613804  47.2090683  23.5784531   3.9796999  37.0214348  69.8708649
   4.3453507  37.8636131  70.1415329   3.9819758  37.0556602  68.9142838
  31.7147732   2.0975251  10.8726215  32.1697235   2.8115125  10.4259949
  31.7931652   1.3532047  10.2759027  71.1501236  37.3911819  11.5630646
  70.8718948  36.7690315  12.2351894  70.3352127  37.7773895  11.2421284
   1.4122870  46.8617516  63.9208107   1.0044229  47.1411972  63.1011810
   0.8316201  47.1972008  64.6038437  70.7677383  25.0271034  32.2811317
  70.8075409  25.1173801  31.3290310  70.0668335  25.6214314  32.5489769
  82.7718964  59.0875320  79.8711777  83.0106354  59.5836258  80.6542053
  82.7487488  59.7405663  79.1717148  54.6267433  38.4560928  66.8757858
  55.1087914  37.9099541  66.2548218  55.2696381  38.6771927  67.5496063
  62.0978851  42.9637413  11.6318359  63.0236893  42.8494415  11.8464327
  61.6653862  43.0594902  12.4803696  39.8501892  36.5721664  81.8415833
  40.5879021  37.0959930  81.5291443  39.9666405  36.5367813  82.7910080
  78.6716080  16.1002712  66.4584885  79.3199234  16.4715900  65.8601227
  79.0961227  16.1236496  67.3160858  78.9912949  56.1573524  78.7467346
  78.7838058  57.0461502  78.4582520  78.3536987  55.6040993  78.2954941
  63.0110664  57.9802818  38.5420113  63.7442398  58.5638657  38.3467636
  62.8424339  57.5235634  37.7178726  43.8157578  67.2190857   5.9892149
  44.3132095  67.6546326   5.2970657  43.4550514  67.9352798   6.5118847
  56.7352333  46.9761276   6.0721378  57.0502281  46.5024452   6.8419647
  55.8482933  46.6441498   5.9329791  12.0106478  54.2962608  64.8503952
  11.6687803  54.9621696  65.4469910  11.9510651  53.4786568  65.3445663
  58.2481956  24.4486275  29.2661991  58.5049973  23.5713139  29.5501099
  58.6859016  24.5651836  28.4229527  42.0021629  57.2530251  74.6472397
  42.1481667  56.3261986  74.4577408  41.0506668  57.3381577  74.7075958
  38.4687042  44.5587730  61.2467575  38.1420860  45.3551483  61.6654892
  39.1386681  44.8666229  60.6363373  48.6579170  55.0020866   4.9954963
  47.8365784  55.3858414   4.6883063  48.5337486  54.0583305   4.8948207
  67.3674088   6.6779618  30.8322315  67.6114349   7.5428557  31.1618404
  67.5020065   6.0912771  31.5764866  66.3893280   8.9555578  37.2871094
  67.2484512   8.5767870  37.4733086  65.8281326   8.2007036  37.1096611
  71.5733185  23.1691818  30.0458984  70.8419647  22.8909836  29.4945641
  71.8319626  24.0191727  29.6897373  70.5022125  23.8882580  74.7770309
  70.5609207  24.6690636  75.3275986  70.3098450  23.1776905  75.3888474
  83.8390045  69.4631577  87.9532776  83.4033279  70.0225983  87.3102722
  84.6353378  69.9407043  88.1857376  19.3231354  42.6131783  77.5400620
  18.8963280  43.4423256  77.3242416  18.6637821  42.1258430  78.0340195
  19.8129520  32.0879364  78.7548599  20.4605808  31.7751179  79.3864899
  20.2630215  32.0486794  77.9109802  21.5301800  71.4609680  75.5537949
  21.1089001  72.2989807  75.3627777  21.6608677  71.0574875  74.6956863
  44.1002312  54.8030472  67.1080246  44.3958969  55.5373611  67.6461716
  43.8549728  55.2015457  66.2729950  38.0444412  49.2695122  26.3731251
  37.5155869  50.0673447  26.3707161  38.6166306  49.3637390  27.1346684
  51.9076576  24.4563313  13.2525692  51.4680634  24.9694538  12.5745621
  51.2433548  24.3373585  13.9313774  39.6373749  61.0776520   5.5097256
  40.1857338  60.6791878   4.8338847  39.7211761  60.4920235   6.2622194
  35.5799217  15.2493658  82.9585114  35.1064529  14.8578920  83.6925507
  35.8791924  16.0957565  83.2906189   5.5119843  63.8299370   2.3416343
   4.9269490  64.5854034   2.3984900   6.1313977  64.0583038   1.6485202
  76.3016586  58.0499153  67.0335846  75.5626297  58.4133568  66.5457611
  76.8632355  58.8036919  67.2143784  30.1602802  38.4953346  58.0254135
  30.1149540  39.0537033  57.2492676  29.9323120  37.6222649  57.7060127
  81.6401138  45.1924362   5.4205203  81.3893433  45.4880104   6.2957258
  81.1290054  45.7421036   4.8264933   1.4037247   7.7311425  56.4652824
   1.8725106   7.3039279  57.1821938   1.2666725   7.0364847  55.8211555
  44.2225342  69.3827591   8.0505371  43.2839279  69.5152893   7.9175205
  44.5647850  70.2582245   8.2312746  79.9496307  30.4833336   8.1729803
  79.0107269  30.5392418   7.9952903  80.2876816  31.3506107   7.9498563
  30.2931385   5.8284364  38.8386154  30.0863991   6.1859183  37.9750786
  30.5497398   6.5903640  39.3580894  47.7463417  33.0571365  22.5402718
  47.7703133  33.9723816  22.2610226  48.3925972  32.6204262  21.9854088
   1.9989158  28.1709709   7.5596771   1.0614772  28.1999683   7.7509880
   2.3796163  27.6964703   8.2986956  58.0359459  37.4171219  86.4612503
  57.7870255  38.1509781  87.0231476  57.4824333  36.6930275  86.7537231
  20.3301487  54.1241226  75.2425842  19.5290966  53.6053581  75.1688766
  20.6283455  53.9780350  76.1403427  59.1351242  27.9800034  24.9092712
  59.0601578  27.2852974  24.2550583  59.3425484  27.5210762  25.7232704
  79.3032455  57.3825607  43.7998734  79.6332550  58.2264328  43.4913292
  80.0905914  56.8704224  43.9843445  11.3808231  67.1863556  77.6888580
  10.5131865  67.5513306  77.5149841  11.5617218  67.4217682  78.5988541
  27.8460484  67.6487274  42.7555618  27.8149624  68.6022949  42.8328476
  27.7121449  67.4795227  41.8230019  61.8953018  54.9124031  67.1700211
  61.2447815  55.2679329  67.7755356  62.6983833  54.8552437  67.6877289
  20.0135689   6.5453029  76.1751404  20.5128899   7.2674670  76.5564346
  20.4645023   6.3497338  75.3537674  44.7594910  18.5506802  12.6320181
  44.7329292  19.5059319  12.6869707  43.9353218  18.3121758  12.2076445
  50.4009018  17.0944710  34.6683197  50.2814217  16.1459198  34.6213455
  49.5222168  17.4530277  34.5434837   7.0791445  33.1891403   4.3374124
   6.3331795  33.7241364   4.6086044   7.2727656  33.4819832   3.4469144
  17.5868626  53.8480225  67.2109528  16.7689533  54.1692467  67.5905228
  17.5509224  52.8992424  67.3324432  83.8066330  51.5503044  34.2690697
  83.8459930  52.0459099  35.0870285  82.8994064  51.2500076  34.2143898
  51.5313759  44.9758873  86.6845169  52.1873703  44.7066536  87.3274918
  51.6889305  44.4087143  85.9297104   1.6321429  44.9262390  76.7147141
   0.9500167  44.2718239  76.5641403   2.4075153  44.4150429  76.9464645
  42.9622116  58.0310249  37.6469765  42.6505852  58.7857971  37.1475372
  42.2451134  57.8288574  38.2479210  83.7240448   7.9448514   1.1906832
  83.2900848   7.4340014   0.5073546  83.1983414   7.7903709   1.9755403
  22.1210232  71.2539062  88.6047440  22.2450619  70.5744400  87.9420471
  22.9924870  71.6301880  88.7280045  82.6652222   7.1298733  17.2373238
  83.1522064   6.6964383  17.9381886  81.8992004   7.5031533  17.6733208
  78.3908768  54.1083298  34.9311066  78.4044113  53.4586830  34.2282486
  79.2095947  53.9647293  35.4057808  55.4531136  10.1232166  82.5371933
  55.3085823  10.2116947  83.4792709  56.1724663   9.4961004  82.4630966
  19.3730373  60.1524849  67.0528641  19.9955311  60.8407249  66.8182220
  18.8142643  60.5520401  67.7194748  26.6347427  25.3090000  13.5497952
  25.8170261  25.0831833  13.1064234  26.9067707  26.1329021  13.1455441
  19.3198128  26.2434940  20.9397411  19.2571621  26.9094048  20.2549992
  19.1632195  26.7217445  21.7539806  -0.0133741  34.5153580  75.9247437
   0.5829736  35.1717873  75.5646057   0.5573600  33.9004364  76.3855743
  47.8278160  27.5388508  33.1397820  48.3470268  26.7812176  32.8702545
  48.2805290  27.8768158  33.9124756  40.6443405   5.3655562  24.0791569
  39.7614288   5.4295831  24.4433022  41.0077515   4.5711374  24.4703865
  46.0241241  60.6281776  72.8824615  46.5881767  61.0740204  73.5143661
  45.1624985  60.6134834  73.2991333   8.7036362   0.3851714  85.3894119
   8.4139776   1.0720932  85.9897995   8.7144575   0.8069474  84.5302124
  35.6269226  10.4643240   3.6603227  35.5242348  10.0313253   4.5077891
  35.6827431   9.7463608   3.0297318  49.5331230   9.3595228  77.9031296
  49.7415848   9.0446424  78.7826920  48.7709389   8.8443718  77.6386948
  45.1735840   0.7162499  88.6065445  45.5296326   1.1475663  89.3833466
  44.3849831   0.2727944  88.9190903  21.8737183   5.8124890   6.0077071
  22.3603020   6.3101301   5.3505764  22.0956631   4.8987007   5.8289266
   5.2901788  38.5312233  88.3719254   4.5207415  39.0526314  88.6006927
   5.0690498  37.6427345  88.6510773  31.5589542  58.9370537  42.8198090
  30.7981720  58.5065079  43.2097702  31.5299282  58.6848984  41.8968735
  83.8775558  34.9091263   2.9080324  84.4927063  35.2396927   2.2534001
  84.4237747  34.4240990   3.5266008  25.1274529   1.5935221  33.6642189
  25.2534657   1.4858989  32.7214737  25.0901928   2.5411172  33.7942429
  39.9929504  71.3594360  55.0102348  40.4067574  72.1018524  55.4504814
  39.2220116  71.1644058  55.5430107  71.3056183  44.8824272  82.7590256
  70.8940964  45.6656761  82.3937912  71.3780518  44.2818604  82.0172043
  45.7469444  38.6521912  18.9023552  45.2880287  39.1413498  19.5852566
  46.5552139  38.3567352  19.3214417  46.6144829  22.7600594  75.6114502
  46.4241066  23.5623207  75.1252747  46.6097031  22.0707150  74.9473648
  70.6362915  49.2641296  86.5031281  71.3853302  49.0301247  85.9550323
  70.1488724  49.9026985  85.9826660  16.7778835   1.6038177  74.4754181
  16.0268917   1.4073122  73.9153900  17.3733749   2.0986569  73.9126053
  83.7799225  38.4978333  13.9245462  83.5130234  38.0636711  14.7347937
  83.5165787  39.4103355  14.0438051  54.7724304  21.5357647  12.6856890
  55.1285095  20.9401245  12.0264082  54.9576454  22.4102669  12.3433838
  19.4580307   3.6848888  17.9037819  19.2977428   3.7987568  18.8405704
  20.1891193   4.2724605  17.7127228  52.2097816  12.9078188  29.3253555
  51.9862480  13.6076756  28.7117901  51.5374985  12.9610434  30.0046444
  61.9191399  21.4017200  74.5303726  61.0346680  21.5738487  74.2074051
  62.3687210  22.2436428  74.4577255  81.5748520  12.6438818   4.3533525
  82.0679092  11.8331146   4.4789910  80.7818375  12.5254078   4.8761559
  17.2408028  43.7063789  80.8600769  17.6497631  44.4409447  80.4024811
  17.9224148  43.0351334  80.8927231  72.7086487  18.3257389  62.0027657
  73.1802292  19.1196461  62.2548676  73.2658768  17.9161205  61.3409882
  69.9243088  61.5070076  86.9129028  70.5660248  60.8036308  86.8144531
  70.2642822  62.2189827  86.3709259  79.6412277  19.7962494  65.3611755
  79.9956131  18.9142342  65.4738312  78.8218842  19.7901802  65.8560257
  66.2813721   0.1906738  69.6161957  66.1792526   1.0573134  69.2228241
  65.6624985   0.1846488  70.3463974  21.4442329  17.8412457  13.0697775
  22.2179260  17.9911404  12.5264874  21.1863556  16.9400597  12.8758850
  28.8995476  59.5416374  31.5205154  28.8341885  59.7384415  30.5860481
  29.4334354  60.2511711  31.8779449  35.4680901  28.4400940  65.5651169
  34.6307869  28.9036388  65.5483017  35.2706566  27.6042175  65.9876862
  16.0432243  34.5713615  82.8466949  15.1327124  34.8543854  82.9309464
  15.9858294  33.6394196  82.6359329  83.8970032  51.2669373  45.0559425
  83.5551147  51.0016785  45.9097481  84.2730179  50.4666481  44.6893616
  16.8613071  35.5769615  87.3862000  16.6436100  36.3462639  87.9125214
  17.0426807  34.8908348  88.0285187  28.4711514  56.7830658  14.2955370
  28.6163368  56.8965874  15.2348280  27.5482082  56.5397110  14.2235289
  23.1078930  45.0227089  32.5915794  22.5113201  44.3848419  32.9833221
  23.6855049  45.2826500  33.3092346  73.2601700  17.2283936   1.4204489
  73.9103241  16.6496639   1.8187078  73.7206345  17.6376915   0.6878654
   7.9100356  31.2491741  73.8600540   8.7275486  31.2282314  73.3626022
   7.7611170  32.1779976  74.0370865   6.3048029  61.0219421  53.8210297
   6.3611050  60.1182251  53.5106125   6.9660268  61.4914780  53.3125534
  24.5921669  24.5641422  37.5182724  25.0392494  23.8076496  37.1387100
  23.6739578  24.2986832  37.5698090   6.7357225  30.3336029  27.5171700
   6.7531209  31.2489605  27.7965412   5.8597279  30.2114983  27.1511688
  11.7326012  66.0189362  57.9873352  11.6125069  65.1953964  58.4601936
  11.0560989  66.5977707  58.3387947  60.3292999  14.4820242  14.8196716
  59.6097145  14.2003603  14.2547855  60.6308975  15.3034744  14.4317398
  78.4564896  63.6713333  62.5531273  77.5409164  63.5555038  62.8071861
  78.5418472  64.6100082  62.3863068  57.1457901  40.4859848  67.8258057
  57.3959274  41.3478470  68.1587524  57.1567726  39.9189186  68.5968704
  48.6967201  19.4161320  86.2692184  49.2711601  19.3700943  87.0335007
  49.2915421  19.5406590  85.5296783  15.5859795  57.3307877  21.4917583
  15.4834356  57.1316986  22.4223919  14.9133024  57.9875603  21.3117924
  52.5146675   0.0848887  48.9746056  53.1606827   0.2698139  48.2929153
  51.6827965   0.0214172  48.5053596  29.8362713  25.9450207  15.4714022
  30.3053417  25.3473759  14.8891430  29.2063637  25.3882980  15.9291220
  65.0772629  33.4573936  10.0024071  65.8022919  33.3254738   9.3915329
  65.5009155  33.6419106  10.8406811  80.2173691  32.0572433   4.7594242
  79.5231323  31.7413559   4.1810780  80.8651428  32.4412460   4.1685214
  74.0089340  23.6912327  31.2237720  73.1434784  23.3385906  31.0167198
  74.5812607  22.9242802  31.2449913   7.3084693  47.1115685  22.1513786
   8.1330042  46.6295700  22.2150345   6.6316948  46.4371567  22.2095051
  67.5685120  17.8536568  70.4589157  67.1627579  18.0944672  71.2917480
  66.8687515  17.9543705  69.8136063   2.3167439   1.9866278  86.2154846
   3.0453873   1.7485960  86.7887650   2.2256992   1.2413006  85.6218262
  74.6796265   3.7693055  32.9646034  74.3300247   3.9202614  32.0864105
  75.1824875   2.9586270  32.8861237  40.6065140  54.9647598  60.8240891
  41.2158890  54.3611183  61.2489586  40.1234055  55.3655014  61.5467529
  37.5295029  61.2433510  59.6161194  37.4440041  60.4330635  60.1184654
  36.6669922  61.6541672  59.6755905  30.6339073  64.4548874  67.7216492
  31.1976280  65.0463486  68.2202682  31.0730515  63.6058846  67.7724609
  18.4136868  -0.1933037  20.7090588  17.5484772   0.1987409  20.8271503
  18.9683418   0.2533283  21.3486767   9.6372509   2.6716349  87.1552887
   8.8132133   3.0850799  86.8978882   9.4811268   2.3612454  88.0472031
  59.0308037  57.1876984  18.7968082  58.3735237  56.7276077  18.2747612
  59.2208290  57.9816284  18.2970085  20.7239246  60.4509544   6.7999516
  20.8731041  61.3961525   6.7759595  19.7767391  60.3553658   6.7002721
  21.8153172  19.4828911  72.8556442  22.1493874  18.9921627  72.1047745
  20.9235516  19.7250481  72.6059570  19.3134079   1.6877843  77.9534760
  18.7576218   2.0166814  78.6599884  19.2378826   2.3463759  77.2629776
  67.2085114   6.5109334  67.5601959  68.1107712   6.5712752  67.2463303
  66.6743698   6.7358875  66.7984009  63.2409019  24.5790844  45.0295258
  64.1634521  24.5351295  45.2809219  62.7653847  24.5650730  45.8601379
   4.1930137  56.2790413   9.2195530   4.2803817  56.6186905  10.1101923
   4.9563813  56.6233788   8.7559443  77.0085831  43.2845879  82.8309555
  77.0913696  43.7367668  81.9913635  76.6247787  43.9365883  83.4173203
   5.3153620  20.3560772  17.5210876   5.9424090  20.4257660  18.2409401
   5.3809099  19.4454041  17.2336693  56.9975662  42.6820831  33.1540794
  57.6656914  43.3635292  33.2280426  57.4932327  41.8741531  33.0206757
  17.2425098   3.5262945  44.5341721  18.1600590   3.2571733  44.5778656
  16.8517857   2.9407294  43.8855705  57.4418869  71.5007706  42.3868980
  58.2688293  71.6519241  41.9291344  57.6625557  70.8801651  43.0814362
  34.8496056  32.8494339  83.5418777  34.0660324  33.3494148  83.7704926
  35.5767212  33.4388428  83.7421875  73.2786179  70.4695892   5.7770305
  72.9092255  70.5660248   6.6548014  73.5858231  69.5635986   5.7446661
  61.9546509   7.5669184  70.9348831  62.1046143   7.1406856  70.0910416
  61.2149315   7.0927367  71.3146286  29.4722881  28.1579437  74.4016647
  29.3317223  29.0910931  74.2413406  30.3317204  27.9763775  74.0213470
  45.9787178  66.6814880  43.0451393  45.7406006  65.9105530  42.5301781
  46.9312592  66.7360611  42.9681892  75.5659256   2.3208051  15.2239838
  75.8832550   2.4016864  16.1234245  75.9305954   3.0817080  14.7720127
  15.9244671  43.1289825   1.6046169  16.5448589  42.9784393   2.3178363
  15.4359426  42.3087807   1.5349919   3.2148576  43.1611328  34.9747314
   3.8712506  43.4467087  35.6102028   2.5214133  42.7698975  35.5060501
  36.3032303  38.6015854  31.6149445  36.3450775  37.6461563  31.5744762
  36.9222870  38.8394203  32.3051872  79.2105713  61.2285271  32.9581985
  79.1051865  61.8944893  32.2787704  78.3255005  60.8955612  33.1065445
  83.3574219   0.6223982  75.4831390  82.9982147   0.8751276  74.6326523
  84.2014084   0.2207000  75.2768707  22.7068596  11.0633755  16.6632080
  22.5207939  10.2587652  16.1792507  22.3734722  10.8952751  17.5445843
  82.0387955  14.4656925  68.9072647  82.6333771  14.7092371  69.6167603
  82.5851364  13.9719019  68.2957764  77.9872208  19.1126347   5.5993795
  77.9363098  18.4790764   6.3150916  78.8507996  19.5140762   5.6958461
  63.3459167  67.2314072  13.2730894  62.6345863  66.7714310  13.7188015
  62.9804611  67.4693069  12.4209862  78.9788818  53.8864594  53.8178940
  79.7937927  54.3877831  53.8467636  78.8214417  53.6326981  54.7273178
  56.9672546   7.9669952  66.6564331  56.6232185   7.3976216  65.9681854
  57.8994942   7.7541699  66.6996078  21.8484821  56.5491486  14.6043978
  21.8943367  57.4996223  14.7079649  21.9290390  56.2070427  15.4947376
  56.1149635  18.4260635  12.3985872  55.9638252  17.6308250  11.8877220
  55.9248199  19.1408253  11.7909746  27.9115982  15.0565634  74.8396606
  28.7522087  14.6134949  74.9549637  27.5146904  15.0476265  75.7106476
  80.0916824  40.1868744  59.9315643  79.9226151  39.7491608  60.7658615
  79.2603149  40.6051750  59.7077560  43.8941193   4.3029909  58.9827843
  44.3194427   3.8796051  59.7284889  43.2445221   4.8854184  59.3765297
  68.3747864  17.8348579  27.2618389  69.0321503  18.5255699  27.3456135
  68.8836823  17.0273609  27.1896954  18.9681854  63.3510475  71.7397766
  19.4842701  62.5573807  71.5984116  18.5324974  63.2069778  72.5798035
  82.3217316  -0.0151427  17.9204769  82.3716583   0.6237123  18.6315365
  83.1542358  -0.4856957  17.9623718  82.3941498  65.7331772  32.6135063
  83.2295609  65.9742737  32.2132683  82.6355591  65.3305435  33.4476738
  64.2979660  34.8074303  72.2184906  64.8404312  35.1409378  72.9331512
  63.4396477  35.2055664  72.3634109  63.1983757  27.2731209  53.3166428
  63.2930832  27.3465843  54.2663078  63.9859505  26.8091564  53.0325775
  44.4537506  24.3630447  17.9044724  45.1536674  24.3840714  17.2518578
  44.6332245  25.1123695  18.4723930  57.1564293  66.6860352  44.9084511
  57.5938644  65.8346710  44.9168282  56.4122543  66.5787888  45.5008430
   4.0096936  30.9289513  62.0767403   4.8155355  30.9242268  62.5932961
   4.3010111  30.7806187  61.1770935   1.3787490  33.9514351  21.1618347
   1.8106735  34.3123894  21.9360352   0.7839821  33.2859955  21.5077724
  73.3558273  22.9047222  60.7318726  72.3993073  22.8780651  60.7073326
  73.6089706  23.2202110  59.8643379   8.5106297  34.1377945  35.3711281
   8.9155426  34.1056023  36.2378693   9.2311516  34.3503265  34.7779083
  40.4939384   1.4121737  81.8629761  39.7774734   1.8602836  81.4134140
  41.0640373   2.1180182  82.1679382  82.9263306  48.3746109  34.5762711
  82.5651321  48.3206100  35.4610596  83.1750565  49.2933388  34.4747658
  42.6391754   1.6882151   8.6804686  43.3983192   1.1137841   8.5806599
  41.9480019   1.2619464   8.1737108  45.4996490  36.3585930   8.8523102
  45.6751480  35.4392891   8.6515331  46.2483330  36.8305435   8.4876690
  45.4074783  68.3404617  71.1610489  44.5507393  68.4024048  71.5834122
  45.2403030  67.8613968  70.3493958  81.1663589  56.8667488  88.2083588
  81.3026810  56.1040382  88.7704239  80.8464584  56.5020638  87.3831940
  58.4589462  46.8331909  86.2134781  58.3655357  47.7858047  86.2076187
  58.9807205  46.6484947  86.9944229  53.2554932  16.7285252  29.0363426
  52.4100990  16.9932041  28.6737385  53.3873405  17.3096790  29.7854156
  38.1422424  32.4965858  22.9672031  38.3078423  33.2577095  23.5235310
  38.0958633  31.7599697  23.5766907  38.0213966  69.2300491  71.1206055
  38.4768791  68.4479523  70.8090134  38.1113014  69.1961212  72.0729752
  68.5062332  55.8385315  52.4145546  67.5780869  55.9674263  52.2191734
  68.9056854  56.6935349  52.2544403  59.9090157  15.8692131  68.9461899
  59.1424065  15.5594406  68.4639206  59.6401939  16.7145309  69.3059158
  74.1708221  19.3020210  80.7553940  74.0574265  18.7334023  79.9937897
  74.7257462  20.0157452  80.4409332  65.9931107  32.5621529   1.6241200
  66.8245544  32.1693993   1.8899788  65.3611374  32.2446213   2.2691154
  34.3832359  63.0227776  31.1004772  35.0041733  62.6694031  31.7374954
  34.0147247  62.2505531  30.6714096  48.1891365  19.6738358   4.5030680
  47.3673515  19.4061146   4.0916939  47.9669952  20.4697819   4.9861374
  84.5853043  66.5963135  80.6710052  84.7181015  66.8236008  81.5913010
  84.2788773  65.6896820  80.6900177  48.0572586  17.5740280  58.4548187
  48.2464905  17.4161873  57.5298843  47.8415184  18.5055218  58.4995880
  59.0257530  68.3968811  42.6415100  58.3920326  68.7652283  43.2570953
  58.5027466  68.1485443  41.8792572  86.5203781  59.0656242  44.5104446
  85.6211243  59.3203583  44.7170448  86.4609451  58.6556892  43.6475105
   7.4557910  68.3126297  23.6472626   7.2401581  69.1588821  24.0391846
   7.3983779  68.4640121  22.7038536  67.3525848   9.7417688  44.9196205
  66.4642410   9.4504547  44.7141609  67.5909119  10.3155470  44.1914673
  20.2208290  65.8273163  78.8313675  20.5997677  64.9525757  78.7449493
  19.3225079  65.6714554  79.1228409  24.7329807  66.5301056  43.1589775
  25.2220650  67.3356552  42.9912987  25.3328190  65.8285522  42.9055023
  70.4610062  39.9624100  20.5782928  70.0827408  39.3065910  21.1639957
  71.0851746  39.4732361  20.0422382  49.9101295   9.7681837   5.9641523
  50.0509872   9.9291830   6.8971424  49.5842781   8.8691063   5.9227667
  79.8967667  48.8615723  79.6260071  80.8097076  48.8098335  79.3430176
  79.7401428  49.7963219  79.7599792  80.4389267   8.6498070  88.6699066
  80.3952255   7.9864130  87.9812622  80.7013931   9.4501524  88.2151642
  70.4683838  47.9602852  44.0245857  70.9857101  47.8282394  44.8190498
  69.6021423  48.2149544  44.3424034  74.6100082  18.5152187  19.5970592
  74.8326111  18.4477119  20.5255642  74.1571503  17.6954784  19.3991203
  36.9299774  49.1302681  87.6750565  36.5944595  49.8272057  88.2389145
  36.1746635  48.5630569  87.5201035  26.2342510  70.2165222  73.5325012
  26.4661083  71.1258087  73.3436127  27.0158062  69.8512497  73.9472046
  86.0751419   1.9383347  66.4735031  86.7417374   2.5590887  66.7676849
  85.8698883   2.2129586  65.5798111  68.2574615  44.5024261  29.6877766
  68.8174210  44.4706917  30.4634495  68.5805817  43.7948189  29.1300011
  62.2786942  25.6314011  88.3205948  61.6138153  25.4900627  87.6466599
  61.9081268  25.2355289  89.1093903  16.0675659  14.0428190  18.3729019
  16.3440685  14.9045401  18.6846962  15.5307426  14.2278423  17.6023064
  80.2028809  23.0027218  30.8230610  81.0348511  22.9278469  31.2904453
  80.2736511  22.3729706  30.1056805  32.3892250   1.9485270  68.2656479
  32.3174515   1.8161957  67.3203659  33.0755768   1.3408577  68.5411377
   7.7979550  31.2087288  84.2555237   8.4569836  31.4120026  84.9192963
   7.4428778  30.3608131  84.5223389  10.7062712  62.4366417  17.1832542
   9.8773003  62.8672905  17.3920097  11.3770370  63.0545006  17.4740391
  37.2095680  35.3447876  16.1464844  36.7142487  36.0224152  15.6863661
  37.8802757  35.8258553  16.6312103  84.8886871  29.5123940  47.5759697
  85.7959061  29.8156910  47.5414047  84.3854752  30.2894459  47.8192635
  63.5035896   7.6870475  89.0799637  63.5150337   7.5043888  88.1404190
  63.7782555   6.8654237  89.4870529  78.3469391  48.0262260  24.9386406
  78.5189133  47.9062157  25.8725853  77.9589462  47.1973763  24.6581020
  34.9931183  63.6035233  14.4879646  34.5618172  62.7774277  14.7065525
  35.9277649  63.3977280  14.5055599  17.8579292  71.5754776  59.9355011
  18.0020447  71.6272888  60.8803673  18.7264938  71.4084320  59.5695457
  53.6512947   6.8557882  88.9767914  54.2526207   6.2737403  88.5121841
  54.0250740   6.9353075  89.8543930  12.8490944  54.2225838  60.8625603
  12.9961395  55.0218735  61.3682709  13.5421448  54.2259827  60.2023315
  53.3510628  40.5991669  63.5185661  52.8928680  39.9202995  64.0139771
  52.6583290  41.1924057  63.2280235  45.8640518  55.9025421  18.7198067
  45.6202202  55.5920830  17.8478012  46.1239967  55.1113663  19.1917152
  77.8137894  62.9804802  76.9105759  78.2594147  62.5180321  77.6203613
  78.4103928  63.6913605  76.6761703  54.8889580   8.8653040  28.9607506
  53.9463158   8.7360916  28.8560543  55.1669540   9.2752104  28.1416492
  17.4247856  69.8826523   8.7439775  18.2873116  70.2952118   8.6984310
  17.0944557  69.9184570   7.8462954  81.2954483  22.8881187  78.9401703
  80.4386597  23.0675468  78.5529327  81.4155197  21.9449463  78.8295288
   8.1020050  58.5668106  25.5375080   8.7570972  58.2934723  26.1796703
   7.4874997  57.8341103  25.4954948  22.5877018  53.4914932  15.7318916
  23.5154991  53.7003555  15.6232681  22.5311508  52.5526314  15.5542078
  53.4297867   1.0709035  82.0609741  53.4021606   1.7461367  81.3830872
  53.2394371   0.2563906  81.5956039  31.8372650  40.9565048  20.0546894
  31.4283237  41.4456978  19.3407612  32.5320358  40.4517097  19.6319542
  38.0879974  54.2135887  65.2896347  38.9738731  54.5447235  65.1419601
  38.2152290  53.3937874  65.7670898   7.3511982  36.4502029  85.2621155
   7.1841745  36.0788383  86.1283875   7.1253428  37.3761330  85.3508606
  21.0105896  16.5979805  84.9659882  20.6257610  16.4869537  84.0966110
  21.0631027  15.7101364  85.3198395  37.5559731  56.9119186  68.0615082
  37.4044571  57.0607033  68.9948578  38.2145500  56.2178574  68.0334244
  70.0059204  41.1577492  72.5927124  69.5899506  41.2646027  71.7372665
  69.2969131  41.2901039  73.2220154  31.4925957  46.8808784  44.5495872
  31.4114780  47.7580338  44.9240913  30.5898190  46.5991020  44.4018440
  35.3249283  49.6092491  50.3630791  35.8387337  48.9485779  49.8985901
  35.8933907  50.3788681  50.3908043   2.9918077  52.6932907  67.3600922
   2.4574065  53.2784157  67.8970108   2.4035792  51.9733810  67.1321793
  26.3847237  64.6118164  41.8106728  26.5455551  63.6813164  41.9672928
  25.7167625  64.6273804  41.1252403  64.9354858  22.6864300  86.7687073
  65.1421051  23.5796070  87.0439911  63.9995956  22.5916691  86.9457932
  70.5557480   5.4286318   6.8823109  70.6376877   5.4280829   7.8359976
  70.4449310   4.5064588   6.6509070  43.5118752  40.1515045  63.5015755
  42.7187271  40.6189575  63.2395935  43.9629173  40.7564316  64.0905228
  67.9368973   1.5306810  60.3150902  68.1140747   0.5904169  60.3423386
  66.9819107   1.5948544  60.3255310   7.9859767   1.9687190  11.2334862
   8.6358624   1.4127184  10.8036680   7.9555807   2.7605815  10.6965866
  20.6855907  55.7855911  34.0118027  21.2484608  55.0632401  33.7332001
  19.8778038  55.6661568  33.5123558  13.7299662   0.8373822  60.7010498
  13.3296480  -0.0065278  60.4917793  13.0836620   1.2790217  61.2519379
  42.6808281  34.1845970  31.7010193  43.3437042  34.8636742  31.8262539
  42.0102386  34.6013794  31.1598797  50.7547302  26.2602425  10.9496431
  51.2669487  26.9020157  11.4415684  49.9231758  26.2057247  11.4205761
  75.2264175  25.4145508  29.4237785  76.1266403  25.7370472  29.4665470
  75.0639038  25.0423622  30.2905521  34.4997864  35.1190071  81.8597717
  33.7424889  34.9890137  82.4305801  34.1679993  35.6560898  81.1402588
  31.7985840  20.2124310  15.0934639  31.7599602  19.4407864  15.6585360
  32.4014893  20.8066025  15.5403366  14.5425987  48.2314148   7.1485176
  14.2449760  49.0843697   6.8321023  14.8150473  48.3927879   8.0518236
  62.9461098  57.3245735  47.1785736  62.6523972  56.6269417  46.5926819
  62.1424942  57.7786369  47.4320755  65.2191467  24.3297806  28.0765820
  65.7631454  23.5524540  28.2032928  65.0414200  24.3470421  27.1361847
  22.5380230  59.5698128  48.3849525  21.9642162  59.3907814  47.6400146
  22.1564426  60.3429031  48.8008347  19.7590561  29.2689571  81.6540298
  19.7725067  29.0982838  82.5957947  19.2533283  30.0766716  81.5641937
  76.4943466  61.4544945  88.5410690  75.8696823  60.8373375  88.9220505
  77.1237335  61.6219559  89.2425308  62.8089943  69.3282623  24.8634434
  63.5620461  69.8506393  25.1396065  62.3403931  69.1355896  25.6755524
  40.0318718   4.5663509  21.0748024  40.5353012   4.8234525  21.8472576
  40.2821808   3.6558769  20.9179134  82.4520187   1.1083199  69.0588074
  82.2875214   1.7508622  69.7489548  81.6009674   0.9852587  68.6383362
  12.0893488  50.8832664  74.1957474  11.2440157  50.4344063  74.2086945
  12.4731798  50.6468124  73.3513565  68.7750092  26.2725735  43.0446968
  69.6175919  25.9655876  42.7099609  68.5909882  25.7012672  43.7903366
   4.7410226  51.9303398  -0.1295760   4.8312755  52.7817879   0.2983478
   4.8959179  51.2938766   0.5683887  50.2249794  68.9186630  29.1288376
  50.4378242  68.0750580  28.7297668  49.8640175  69.4389191  28.4110146
  43.3279114  29.2853851  62.4435883  43.0198860  30.1257172  62.7829933
  42.6851540  29.0467300  61.7756577  56.3944893  57.5543251  71.8697510
  55.5056000  57.8945961  71.7681656  56.3242264  56.6280708  71.6387787
  66.0237808  36.0600090  74.2858124  66.7124023  36.7045479  74.4488907
  65.2391663  36.4434280  74.6777267  43.4029541  59.7427940  73.8227921
  42.9219856  59.0203667  74.2265167  42.8199806  60.0637741  73.1347885
  31.7520981  14.8704128   2.8711703  32.5393257  15.0391006   2.3534355
  31.0299911  15.1415148   2.3043377  39.6536217  70.7298584  29.4845409
  40.2806206  71.4517441  29.4399891  38.8771477  71.0587311  29.0315952
  35.6729660  15.3764505  16.1483269  36.2146721  15.8161850  15.4930239
  35.7235680  15.9415798  16.9192352  31.1528435  54.3569221  87.9096832
  30.4953671  54.1033478  87.2618713  30.6991177  54.9757957  88.4818344
  48.2181129   8.0800180  12.9965248  47.3765907   8.3164473  12.6064348
  48.7600784   7.8138776  12.2537756  23.6836681  33.4850693  70.6548843
  23.0303020  33.0146866  70.1371155  23.3263607  33.4913216  71.5428772
  61.5459938   2.3578386  39.6727219  62.1662521   1.9212134  40.2565613
  62.0871582   2.9431882  39.1428757  71.4971237  51.5657616  26.8604374
  70.8558197  50.8773155  27.0365314  71.2233124  52.2958450  27.4156265
   8.0696001  35.5497665  12.0615110   8.9411678  35.1544800  12.0802155
   7.4691253  34.8046913  12.0387087  19.0284119  37.8887711  79.2266693
  18.7029457  37.1581764  79.7525406  18.5344734  38.6470680  79.5385056
  29.6989250  69.1468887   6.2521825  29.2574844  68.4835892   5.7217150
  29.1751900  69.9387360   6.1300755  51.8771248  12.8704433  32.2105103
  52.8048859  13.0845766  32.1123314  51.5184593  13.5911837  32.7283173
   2.6707158  40.1392670  58.9427834   2.5200126  41.0777054  59.0561790
   1.7985663  39.7724228  58.7978249  14.9085712  50.5132904  85.4871826
  15.7606564  50.0931549  85.6041107  14.3424377  50.0904884  86.1329117
  70.8390198  39.1376877   1.6619048  70.4826355  39.4851570   0.8442917
  71.7589569  38.9601517   1.4658786  62.8864403  70.7056122  18.8534088
  62.7214661  71.4529953  19.4282436  62.4106407  69.9812622  19.2598057
  30.7668037  13.8834085  67.1386948  30.0033474  13.7494984  66.5770645
  30.6353722  14.7521839  67.5184174  46.8298340   3.9421465  55.9420624
  46.9667244   4.4500175  55.1423378  46.5574493   3.0780125  55.6333389
  62.9961739  13.7990055  72.5998535  62.3825188  14.3478336  73.0881653
  62.9650230  12.9515171  73.0437317  76.7099915  31.7084656  48.8799477
  77.4471664  31.3344669  49.3625755  77.0733643  32.4824486  48.4496689
  17.6168575  55.7119064  27.9571018  16.9039440  56.3472939  27.8917542
  18.3530350  56.1312828  27.5116806   5.2804179  12.0981436   7.4246316
   5.4150743  13.0441360   7.4811802   6.1110458  11.7574024   7.0926919
  64.9451065   5.2777801  48.7971802  64.1508942   4.8330340  48.5011101
  64.6385269   6.1241975  49.1224747   0.2258520  55.6982994  78.2816086
   0.1261506  55.0735474  77.5633011   0.9501626  55.3510857  78.8022308
  23.4190197  46.4236336  88.5799866  23.8230133  47.1102409  89.1106339
  23.9091034  46.4367447  87.7578659   9.8557749  67.7960892  41.9907150
  10.2148294  66.9166107  41.8731461  10.2570486  68.1123886  42.8001366
  31.3743191  44.8063240  77.5887527  31.3817673  44.3007507  76.7760010
  30.9430447  44.2337151  78.2230682  41.1399918  67.8423691  65.0664749
  41.6614838  67.5784836  65.8245316  41.6363792  67.5249939  64.3120804
  39.9386292  46.8842926  27.9039574  39.3100395  46.3255882  28.3610764
  40.6621208  46.9865494  28.5222874  77.9090347  31.8407173  81.1446533
  77.8462067  30.8855896  81.1409073  77.0000000  32.1405449  81.1451416
  82.5681000  38.9477158  35.7438011  82.6094818  39.8712921  35.4957504
  81.8324814  38.8963547  36.3540993  83.0788040  50.1503220  47.3273544
  83.0745392  50.7054253  48.1071472  82.4184189  49.4809113  47.5062714
  47.7129555  39.4069710  73.5486984  48.5443192  38.9398232  73.4659958
  47.0965424  38.8931084  73.0269623  32.3923378  66.1024475  43.8785744
  32.1238823  66.1651688  42.9619331  32.4429131  65.1619949  44.0495224
  59.1299629  68.7151871  49.6921272  58.7519302  68.9900131  50.5274658
  59.9390068  68.2635727  49.9323883  47.5342140  19.5017147  40.7783546
  48.0397072  18.8374519  41.2468224  48.1768227  20.1720161  40.5460205
   8.2836733  59.8626060  40.9769249   8.2870989  58.9147339  40.8436546
   8.2781248  59.9707375  41.9279785  81.9174881  43.8734322  69.8423691
  82.7133255  44.2217255  70.2443237  81.5162811  43.3400803  70.5285187
  25.8084030  65.3736267  76.4946823  25.5386124  65.4728470  77.4076996
  26.0156059  66.2631226  76.2081451   3.1040022  36.4623032  56.8295212
   2.6018708  37.1947708  56.4723320   4.0129271  36.6640205  56.6072655
  19.1283932  60.5665550  15.9579382  18.5120201  60.4236488  16.6761951
  19.9471493  60.8101463  16.3898315  50.2081833  69.8402481  32.3390121
  50.9870300  69.9984283  31.8055305  50.2298927  70.5280228  33.0043907
  58.1956863  26.8876820  65.9870682  58.0428848  25.9783516  66.2439728
  58.4282532  27.3311882  66.8028183  54.7877121  14.3368540  40.4037895
  54.8884544  15.0112038  39.7319717  55.6376152  13.8973837  40.4313622
  18.7656727  23.2535839   1.1940877  18.3481941  23.3279972   2.0522289
  19.5814762  22.7828255   1.3646312   0.4567901  12.1255293  10.2072887
   0.8645571  12.8505507  10.6808939   1.1528584  11.4741564  10.1210670
  66.7716293  22.0163956  52.1934624  67.3387909  21.6452122  51.5176086
  66.5575180  21.2752151  52.7600670  22.4818344  19.9294834  14.6589174
  22.3679695  19.0730762  14.2468081  23.3695393  19.9071922  15.0162859
   3.3954096  40.0233307  10.9010963   3.5001955  39.1077042  11.1597109
   4.0395174  40.4962692  11.4280567  24.6282158  60.3373184  56.2600098
  25.2939510  61.0226288  56.2019272  23.7991695  60.7968559  56.1268311
  62.6868858  11.6319408  33.9832497  61.9525146  11.5091772  34.5847931
  63.3979645  11.1174574  34.3652267  76.1219864   6.4869633  56.8103981
  75.1786194   6.3405852  56.7406921  76.4322662   5.7825480  57.3793945
  41.2249374  17.1405582   4.9069715  40.3493080  17.4671059   4.6999183
  41.5940742  17.8004646   5.4939098  57.2011032  34.3787727  42.1858101
  57.7016220  33.9269943  41.5063934  57.3537712  33.8638344  42.9781265
  10.0216007  34.0061836  52.3009911  10.1114130  34.1242981  53.2466202
   9.1962833  34.4391899  52.0828476  56.2484741  35.0630989  88.6993484
  55.4391899  34.7868347  88.2692719  55.9829483  35.2792435  89.5932236
  58.9962883  60.0049019  76.4733582  59.3825989  60.1813965  77.3311768
  59.1060448  60.8228149  75.9883881  75.7678909  13.3390284  58.4853630
  76.0642853  13.1220579  57.6014442  76.0670090  12.6070042  59.0247154
  80.9774323  34.8157234  26.6169224  81.6148758  34.1072769  26.7064114
  81.0088043  35.0504036  25.6894684  80.6017456  16.1333809   7.7639971
  80.8369064  15.2320919   7.9844699  81.4361420  16.5553570   7.5591836
  46.9706955  13.4344835  60.1837502  46.6492310  13.9199657  59.4240112
  46.2216263  13.3969631  60.7784882  48.2894821  56.0872993  21.0747032
  47.8058777  55.3352318  21.4163933  47.6170044  56.7463760  20.9025955
  51.7066307  22.1681080  70.6700287  51.9253311  21.6974010  69.8657684
  52.5167656  22.6162472  70.9131012   3.7718403  16.0458145  18.8659096
   3.2820864  16.6067772  19.4673195   4.6906438  16.2290230  19.0620403
  82.2600479  52.4270515   9.4468031  83.2074585  52.3396835   9.3418818
  81.9812698  52.9394760   8.6878967  62.6527214   0.6583855  27.4367733
  62.5978737   0.9545516  26.5281982  62.5883179   1.4608616  27.9545727
  27.6705608  67.5709610  39.8466034  27.2720165  66.7842941  39.4743690
  26.9300327  68.1451874  40.0418282   2.8993607  51.9384689   7.3522701
   1.9889185  51.7332573   7.5649080   3.2199903  52.4220238   8.1135874
   2.0453668  23.3506203  69.7081680   2.0641632  23.8524742  68.8932953
   2.9341042  23.0067158  69.7982178  27.3960152  37.1158867  17.9935684
  28.2065830  36.7297783  17.6617031  27.6299534  38.0198860  18.2040176
  24.5004292  51.7882996   2.5430801  23.6733150  51.3228989   2.4185219
  24.5324249  52.4170227   1.8220290  31.0385113  14.5691481  77.3353958
  30.9660397  14.7300873  76.3946075  31.8816929  14.1280031  77.4386673
  86.2560959  49.1185379  76.0179901  86.1111526  49.6223907  75.2171402
  87.0113678  48.5650558  75.8193436  38.1742401   2.6137762  80.8144302
  37.6350250   1.8274338  80.7299042  37.6810493   3.2929797  80.3543549
  65.6825714  54.1216507  72.0666809  65.2848053  53.2750244  72.2697449
  65.4500885  54.6796761  72.8088303  43.0952873  69.2672501  72.2667847
  42.4077415  69.9020462  72.0654373  43.7460709  69.7672272  72.7594681
  77.0169830  45.2388840  32.6828537  76.8717117  45.8949814  32.0011902
  77.5988617  44.5964127  32.2767944  73.7462845   4.0371885  58.9849129
  73.3350296   4.9012227  58.9614983  73.7903900   3.7679830  58.0674057
  25.3650570  32.5666962  16.2060547  25.8888683  33.3515587  16.0453014
  25.8483162  32.0903397  16.8811665  22.4488182  59.9845238  11.2351980
  23.2574291  59.5742340  10.9285402  21.8966675  60.0381317  10.4551411
  64.8537216  45.1347733  51.4405479  65.2763824  45.6199379  52.1492157
  64.8637466  44.2239265  51.7346382  38.3872910  59.2921829  42.8397865
  37.5594215  58.8195000  42.7535400  38.1853790  60.0245934  43.4220505
  44.1820564   0.7344480  63.9296684  44.3925934   0.0863846  64.6019211
  44.6118660   0.4078725  63.1391983  34.9603310  47.8154221   6.5011377
  34.6693039  47.0984459   5.9376802  34.1550446  48.2746353   6.7396140
  54.9598961  48.7520294  66.9987259  55.6430664  48.5163574  67.6263962
  54.1683006  48.8428535  67.5291595  69.8364792  34.6898613  62.2874870
  70.5290527  35.1763268  61.8403549  69.0341492  34.9394302  61.8289948
  61.9220467  25.8234882  79.5606079  61.2741089  26.4208775  79.9341507
  62.2851944  25.3612270  80.3160400  40.7748756  12.2458344  80.2205734
  41.3286133  12.5162468  79.4881210  41.3910866  12.0411034  80.9238510
   3.0315421  53.8770332  50.1301651   3.1829197  53.8487206  51.0748940
   2.0826776  53.7921448  50.0369873  68.9205475  56.3122292  37.1130295
  68.4577942  56.0362663  37.9041901  69.8241272  56.0290718  37.2529945
  61.7908783  28.1301975   3.5302243  60.8435936  28.1087742   3.3944743
  62.0139351  27.2402115   3.8029931  65.3039551  44.9292336  42.7736359
  65.7616425  45.2876930  43.5340691  65.5244064  43.9977760  42.7785454
  33.2134552  38.0941048  25.0515823  33.8649292  37.4791107  24.7145424
  33.2189331  38.8167114  24.4238548   3.6234055  64.3058548  75.6640167
   4.4769683  63.8919449  75.7918472   3.0340457  63.5805092  75.4572296
  62.7113266  10.5160856  26.3543587  62.7094612  10.7700949  25.4314804
  63.2676659  11.1677580  26.7810192  64.7499390   6.7331362  30.0078430
  64.5949249   7.5614357  30.4618492  65.6933975   6.5908742  30.0845432
  69.6439133  34.7662506  27.3398876  69.3638992  35.6253357  27.0239716
  69.0410690  34.5662308  28.0559902  65.9604874  16.6188679  81.3381653
  66.0106277  17.5548763  81.1442413  66.8431244  16.2909679  81.1659317
   7.7503552  59.1909409  59.7364388   7.7439642  59.0812645  58.7855644
   6.8299613  59.3120461  59.9697609  61.8174438  23.5560188  62.3173752
  60.9391670  23.3744068  62.6518555  62.4034233  23.2887363  63.0254860
  38.3632851  70.3003693  50.0150032  39.1258774  69.8122559  50.3255424
  37.7464790  69.6257324  49.7310219  49.6782761  23.2984810  33.9926643
  49.1523972  23.4636211  34.7752304  49.3301163  23.9038219  33.3380051
  14.4721918  47.7572098   0.0767509  14.9039879  46.9277840   0.2812932
  13.5599689  47.5182228  -0.0874633   9.9083109  56.2474670   1.9505982
  10.2078619  57.1545181   1.8892765  10.6548414  55.7728920   2.3162537
  17.1542988  41.2316437  85.9769974  16.9198189  40.3142891  86.1173859
  17.1934509  41.3259010  85.0252609  61.8439713  40.2034492  46.2146225
  61.2453842  39.8133469  45.5776405  62.1153908  41.0292053  45.8137627
  10.2450466  18.9440918  16.6758537  10.8533506  19.4273605  17.2350044
   9.3805552  19.1396713  17.0372887  49.7213669  12.0778761  54.2076454
  50.3200188  12.0964384  54.9543076  48.8524551  12.1850519  54.5946045
  26.9705124  40.0727501  69.3390579  26.7917366  39.3262444  68.7672195
  26.8554535  39.7288437  70.2248993   1.9472475  17.7947540  20.0541515
   2.2438662  17.8911552  20.9591122   1.7051773  18.6810894  19.7857399
  56.8985634  14.8948641  76.3222351  57.6476250  14.6317453  76.8569412
  57.2500114  15.5569086  75.7269135  20.3657780  55.1394958  30.0184803
  21.0422020  55.0846062  30.6935139  20.4919071  56.0018120  29.6225834
  56.6777916  70.8457413  30.0932293  56.5405579  69.9163742  29.9097347
  56.4282913  71.2893295  29.2825413  54.8980103  60.7708969  72.0752029
  54.3612900  60.7306976  72.8667526  54.7484512  59.9308014  71.6414948
  79.8209229   7.0614314  30.7586021  79.5487289   6.5751553  31.5368576
  80.7409897   6.8261719  30.6388111  23.0903282  43.8728027   0.5270094
  22.3264294  43.3956909   0.2028898  23.1096935  44.6758957   0.0065317
  21.3786335  63.6299210  87.4968796  21.2456608  64.3250656  86.8524246
  20.4969120  63.4107819  87.7981720  68.2656555   8.1593409  75.3242569
  68.1470490   7.3424692  75.8089066  68.3973770   7.8828259  74.4173889
  46.9134750  55.2213974  64.9275436  46.6384201  54.3049088  64.9025116
  47.0020103  55.4195175  65.8598175  29.6763821  65.1679840  75.8996429
  30.3351536  65.5772629  75.3386230  28.8580952  65.6072006  75.6678391
  36.7598953  62.0635643  32.2128296  37.2709579  61.3664360  31.8016605
  37.3614769  62.8067169  32.2581520  48.8307533  48.4575195  78.4342041
  49.3496017  48.9876785  79.0391464  49.3595276  47.6728859  78.2893448
  57.8210793  17.9267597   1.8443398  58.1626396  18.1572685   0.9803742
  58.5583267  17.5092812   2.2897747  42.3935051  47.0092392   9.3719006
  42.5995789  46.5808296  10.2027016  42.7526817  47.8919067   9.4620132
   3.3566535   1.3314352   8.8557615   2.7228436   1.2166142   8.1477127
   2.8221633   1.4001915   9.6468525  12.0738640  11.5196791  52.7359314
  11.8127489  12.1859865  52.1002541  11.6445704  10.7192297  52.4339066
  57.4223938  36.7931824  16.1888580  57.7739944  36.1882744  15.5356379
  58.1941376  37.1262321  16.6468067  72.8756256  56.7070923  79.2846832
  72.3098450  56.1706734  79.8399963  73.1348953  56.1231499  78.5719223
  19.1805153  29.0536613   5.0416579  19.2120876  29.5220928   4.2075076
  18.3431244  29.3094234   5.4284329  84.2533875  11.7822981   9.9115839
  85.1991501  11.8957462  10.0059032  84.1559372  10.9348030   9.4774323
  81.8606644  43.4421654  31.8453217  82.1958923  44.2614059  32.2096062
  81.9399796  43.5512505  30.8976707  77.2850800  60.4756241  67.9969330
  78.2274399  60.4582596  68.1639557  77.0569916  61.4051895  68.0078278
  20.8086929  34.3486633  53.6416473  21.3443432  33.6473503  53.2708817
  20.2790127  33.9167175  54.3117943  83.3740768  65.8581009  39.6144333
  82.4893341  66.0459671  39.3011131  83.2748795  65.7476654  40.5600510
   2.0860622  43.2552147  27.7195034   2.9224057  42.8389626  27.5109501
   1.7218726  42.7207146  28.4251289  59.3506470  46.7670822  24.9257374
  58.7755165  46.9783478  24.1903305  60.2309456  46.9642372  24.6056805
   8.7608747  63.2463455  13.1398668   9.6489315  63.5442505  12.9427843
   8.5429068  63.6743050  13.9678593  83.1016617  71.4263000  36.7130737
  83.4997559  72.2040405  37.1040611  83.1026535  70.7773056  37.4166603
  72.7163162  31.0706444  48.7271690  72.8051376  31.9706249  48.4135094
  72.5292358  30.5598698  47.9395523  28.7152882   8.7898655  72.0735397
  28.1963882   9.1355591  71.3472672  29.3225155   8.1745949  71.6624985
  27.4068184  66.2153854  86.8081207  27.2433605  67.0723038  86.4141693
  28.0793877  66.3799667  87.4690247  53.9062462  30.6943588  61.1916542
  53.2379723  30.6616974  60.5071259  54.7110825  30.4168587  60.7540855
  49.1982841  49.2772141  85.8858337  49.9380341  49.7195396  85.4694824
  48.9898529  48.5525246  85.2962418  55.6332512  61.1488686  27.9722767
  56.4086609  60.5963669  27.8737240  55.3949814  61.0647392  28.8955212
  56.6616096  43.2932625  75.1476593  56.1539841  43.8121910  74.5237503
  56.3583679  42.3951340  75.0148315   1.5598459  62.5640526   2.6392705
   1.8706276  63.4684258   2.5974202   0.6120746  62.6413116   2.7487793
  11.8388748  18.6406975  83.8811951  12.0085239  18.9825459  83.0033646
  10.9047823  18.4316425  83.8804321  60.9665031  29.3586998  52.8942757
  61.6769524  28.7884941  52.6004028  61.4090881  30.1325283  53.2429008
  11.3825502  34.4251633  67.3855286  10.6059418  34.3216896  67.9354401
  12.0207844  33.8150291  67.7551575  24.5276070  47.6834030  10.4466486
  24.7836952  46.8795853   9.9944000  23.5707550  47.6779671  10.4214211
  68.6622772  59.6726990  45.4197083  68.9624176  60.3596649  44.8245392
  67.8094406  59.4109573  45.0727158  68.8183594   9.0410051  31.4856071
  69.5194092   9.0379333  32.1373405  68.3607635   9.8692579  31.6299572
  66.6816711  53.5947266  79.6120224  67.5784912  53.3069000  79.7826233
  66.6739807  53.8151894  78.6805878  85.9097748  20.6466236  74.6394272
  85.8800964  21.5044880  75.0630035  85.0117722  20.4933929  74.3455887
  63.0634041  18.0788994  21.5453281  62.3522530  17.9255447  20.9232540
  62.9077644  18.9645214  21.8734741  21.3950787  49.1650658  84.2639084
  21.3820343  48.4125252  83.6725235  22.2248859  49.0856094  84.7343750
  65.3339920  31.3592396   4.0411820  66.2288589  31.0642204   4.2097373
  64.7811127  30.6802998   4.4279580   3.4296014  47.0513573  22.0301819
   2.4940839  47.2245216  22.1353130   3.5878596  46.2651443  22.5527306
  44.3169785   1.5574213  55.3818054  44.0315781   1.3076642  56.2606659
  43.5172272   1.8490725  54.9441147  59.0060692  58.4067268  87.3781662
  59.5742111  57.9159012  87.9719162  59.4566383  59.2416344  87.2510834
  47.9132690  25.4911385   5.4141464  47.2820854  25.6561623   6.1145792
  48.7370758  25.3183403   5.8699055  10.2162018  30.3617916   9.1871881
  10.2580881  29.6931877   8.5034876  10.0463314  29.8715153   9.9915543
  57.3977127  15.9182234  87.4261017  57.6338425  15.0123920  87.2262497
  56.5762978  15.8498211  87.9127579  57.8111801  36.1980591  55.3923225
  58.7277451  36.4508781  55.2817574  57.4675026  36.1471443  54.5004005
   9.4072781  15.0804224  86.9601669   8.8895035  14.7133255  87.6766663
   9.6218386  14.3274708  86.4094772  31.1682415  34.6169395  88.7851639
  31.7163200  34.4891434  89.5594482  31.1519241  35.5654030  88.6571732
  85.3180847  18.1610718  10.4509659  84.4079285  18.4265842  10.5826826
  85.2766418  17.4968319   9.7629995  84.9987259  40.7487755  38.7392235
  84.4884109  40.0324707  39.1169968  84.6907425  40.8114166  37.8350906
  83.2425842  24.7972393  69.1548538  82.3222198  24.9055653  69.3944778
  83.5826035  24.1662960  69.7893066  76.4872894  22.6856709  28.6710987
  76.7566986  22.8112125  29.5809822  76.3502808  23.5722847  28.3373680
  45.5726624  19.7495975   0.4745828  45.4329720  19.4477444   1.3721371
  46.0772133  19.0486145   0.0619333  73.3640900  12.3468695  56.7951965
  74.2966995  12.5255203  56.9158096  73.3385620  11.6040468  56.1920433
  52.4508018  45.1173210  23.0759163  53.0280571  44.8115883  23.7755833
  52.8285866  44.7508392  22.2764149  36.0836372  67.5416489  18.6567059
  35.8885384  66.6235962  18.8447208  35.4880219  68.0336838  19.2218342
  48.5374832  10.4472027  63.1051750  49.2425728  10.7533636  63.6755638
  47.7436218  10.8290529  63.4796143  41.3329315  31.1991978   9.7340918
  41.4599190  32.1282005   9.5415754  41.5902252  30.7503548   8.9287519
  57.1559753  69.4377136  44.5885811  56.3518562  68.9197083  44.6245384
  57.6421432  69.1799698  45.3718033   4.1443629  65.0824890  72.7363358
   3.3235269  64.5901489  72.7286301   4.4111161  65.0890274  73.6555862
  79.6886978  43.9845200   7.2798810  78.7889328  44.3110771   7.2759442
  79.9877930  44.1174049   8.1793890  17.7370548  43.1918182  37.0928879
  17.0360413  43.8398323  37.0229454  17.8043652  43.0120583  38.0306435
  85.5245514  53.9326324  81.1946793  85.0721741  54.6985474  80.8411865
  86.0119858  53.5780258  80.4511185   4.8058662  66.5588760  34.8292542
   5.3769031  65.7909927  34.8518829   4.9896665  66.9692154  33.9842300
  71.3643646   0.9479664  59.3162766  70.4608841   0.7153869  59.1021309
  71.8245544   0.9183484  58.4774818  71.3045120  32.5164375  27.6606178
  71.8225250  32.6784935  26.8721828  70.5842667  33.1446419  27.6073017
  82.4872055  52.7874184  52.1995010  82.0883484  51.9572601  52.4602280
  81.9082718  53.4564667  52.5647964  37.8049965  40.8756676   5.3064837
  37.6481476  40.5034027   4.4387002  37.6075897  40.1616554   5.9126573
  57.5191269  17.1166000  31.8893051  57.0932579  16.8327579  32.6981964
  57.9804153  16.3386917  31.5757694  25.9148827  65.1126785  27.0398045
  25.4998055  65.6902542  26.3992214  26.6945229  65.5902863  27.3231487
   5.8250527  16.0908947  71.3134842   6.5975552  15.5774021  71.5496979
   5.2417927  15.4634619  70.8864441   2.5813298  57.0602684   5.4145827
   3.3200283  57.1669273   6.0138993   2.3362765  57.9540215   5.1750298
  71.6925354  26.4729652  56.5597191  71.0155487  26.4630661  55.8830948
  72.2528076  27.2133942  56.3271446  43.9000168  57.9516830  88.4167557
  44.3925781  57.3208275  88.9417725  43.1523705  58.1881790  88.9656906
  55.1467590  50.5538445  14.0371752  54.5686226  50.9540749  14.6866398
  55.5328560  49.8040543  14.4899235   7.6435351  64.2338943  87.0321274
   7.3574567  65.1427841  86.9409332   6.8455844  63.7523994  87.2504501
  82.4821701  47.1931458  63.3095245  82.5236664  47.8566475  63.9982033
  81.5659027  47.1923714  63.0325851  39.5636253   4.8073392  69.2308197
  39.6623917   4.0258751  68.6869507  39.3856087   4.4678063  70.1078949
  53.0240211  71.2986298  62.9806671  52.8413086  72.1531906  62.5900574
  52.3032799  71.1567688  63.5943756  59.8217010   9.9464617  62.0672951
  59.3394127   9.4180088  61.4313965  59.3885803  10.7998257  62.0471458
  73.3305817   3.5566666   6.7987056  73.6635361   2.9087825   6.1777248
  72.4852676   3.2065487   7.0799427  52.7067413  26.4851952  60.8374710
  53.4205666  26.9015770  61.3204956  52.8940010  25.5481853  60.8938293
  60.5857544  36.1647377  65.9563828  60.7295990  36.9220810  65.3889542
  61.0054245  35.4377136  65.4964447  37.0889473  45.6386528  36.4212990
  37.1892090  45.5784035  37.3713226  36.5623245  44.8744240  36.1870880
  56.4255104  31.4310398  82.7555389  55.6767540  30.9016953  82.4809647
  56.8025932  30.9489956  83.4915237  64.0309753  64.0072861   7.3101859
  63.1342354  63.8744926   7.6175261  64.0941849  63.4736099   6.5180817
  28.2372322  71.1211777  34.3774605  29.1440125  71.1082458  34.6837502
  28.2701149  71.6047134  33.5520248  50.1693420  58.5746002  22.1873722
  49.6548729  57.8694916  21.7944660  49.6538048  59.3650703  22.0273438
  20.7194633  24.4494858  22.9189415  20.7216835  24.0827446  22.0347862
  20.2985249  25.3037720  22.8228321   0.8165031   4.2698836  40.4299355
   1.5791682   4.0418677  39.8983498   0.5127181   5.1024332  40.0682602
  30.4567909  70.9962463  78.8386536  31.3731327  70.8406067  79.0674057
  29.9602966  70.4831619  79.4761963  73.3607330  26.9733753  70.4482574
  73.2582855  27.9148064  70.5876999  73.3464432  26.5978985  71.3286209
   3.7733839  30.8183727  55.5584412   4.2898612  31.4038639  56.1122284
   4.1668882  29.9556999  55.6895218  19.3657036  65.0325012  74.2120743
  19.8813210  64.2515030  74.4130936  18.9441128  64.8325958  73.3762970
  50.3609276  38.9261780   3.0849516  49.9741783  39.2853546   2.2864244
  49.7927780  39.2401047   3.7884333  50.6882782  36.0809135   2.9430676
  50.4920197  37.0174904   2.9663138  50.6405067  35.8491402   2.0155816
  73.3656311  24.3185406  23.6261387  72.7598343  23.6764793  23.9962807
  74.1082230  24.3231373  24.2300930  58.5719948  39.7290382  10.8378515
  58.2002411  39.5790443  11.7070646  57.9189568  39.3756142  10.2338095
  23.9007111  38.6979218   8.4165020  23.2546616  38.7324181   7.7110505
  23.5492268  38.0545273   9.0319147  22.4529610  37.8339920  58.7710304
  23.1130505  38.0335503  59.4348755  22.5368404  36.8916359  58.6255569
  60.0193481  19.5164165  79.7958527  59.5402603  18.9625664  79.1794510
  60.9110641  19.1685581  79.7872772  58.8785248  56.2045517   7.3694458
  58.6976318  56.9843178   7.8943038  58.7029877  55.4721642   7.9602284
  62.5597038  14.2390099  17.4486294  62.4150162  15.1849556  17.4266644
  62.7791138  14.0092430  16.5456886  78.4703064  20.3646679   0.5741684
  78.9208069  20.6918774   1.3527679  78.2190475  19.4694061   0.8013334
  11.3720016  15.4451609  15.3933716  10.5346422  15.3505926  15.8473730
  11.4273071  16.3776875  15.1846437  60.0651970   2.2446587  11.5727129
  60.1107788   3.0093818  12.1466064  60.3282318   1.5115854  12.1291733
  68.1569595  20.7388744  63.0640144  67.4846878  20.4962158  63.7007294
  68.9633179  20.3557625  63.4093246  79.4684906  24.1598759  58.0414619
  78.9509277  23.4590282  58.4379234  79.2143936  24.9470882  58.5230865
  76.2531357   6.9993567  49.1743774  76.7827454   6.3168154  49.5865479
  76.7842941   7.3028092  48.4381599  66.3760071  53.6319504  57.5640526
  66.5962067  52.7200432  57.7542419  67.0617294  53.9236374  56.9632721
  40.8784447   5.7400112  49.8012619  41.1717148   5.2108464  49.0595016
  39.9431763   5.8722153  49.6462479  85.1520920  68.5078812  23.8612003
  85.0417786  67.6755753  23.4015007  84.3219604  68.6405487  24.3189278
  14.4559622  16.7296658   5.9806714  14.7196121  16.1306210   5.2821984
  15.2547207  16.8715973   6.4886799  33.1323624  51.3687706  36.5440178
  32.8990898  51.5339661  37.4575424  34.0779915  51.2213898  36.5611725
  42.7602348  23.2794170  65.5124054  42.3177185  24.0978928  65.2876740
  42.3761101  23.0217285  66.3504257  16.6164951  45.0938416  42.9066849
  17.4868221  45.4841919  42.8267326  16.7678204  44.1522675  42.8243942
  22.8936729  29.9138165  70.9212341  22.3591232  30.5948696  70.5130005
  23.7527027  30.0041904  70.5087662  13.2284689  28.8313732  82.0546188
  13.9047852  28.4915161  81.4686813  13.1386948  29.7519703  81.8083038
  42.7128372  10.2870159  16.1969166  42.4644852  10.2252464  15.2745609
  42.1864777   9.6163568  16.6321125   9.5031052  37.6922073  79.6764450
   9.4130640  38.5970573  79.9753952   9.5669127  37.1790657  80.4819565
  79.1324844  57.1127739   6.1125798  79.8013763  56.7005463   5.5658808
  79.5537415  57.9024773   6.4518986  16.3000336  44.1953621   5.6129961
  17.1879444  44.3886986   5.3122168  15.8281574  45.0222282   5.5137243
  69.1413116  45.6332054  78.5088730  69.2570496  46.1616440  77.7191925
  68.5593338  44.9229317  78.2385864   9.2985916  58.6764412  88.5827560
   9.5390444  59.5984764  88.6736450   8.3589096  58.6907616  88.4010315
  38.8321609  34.6049805  21.3357906  38.9551620  34.2126579  20.4713917
  38.2966805  33.9708557  21.8126297   1.3789426  30.0424786  16.7971382
   1.9359285  29.3926830  17.2258167   1.0169197  30.5596542  17.5166531
  54.9273643  64.7874451  32.5041084  55.6528969  65.1430359  33.0173149
  54.2567787  64.5743408  33.1530609  17.2928257  48.7384949   4.8656783
  17.2873802  48.6661377   5.8201241  16.5289898  48.2356224   4.5829949
  40.6136131  15.5664711   2.5498314  40.8606033  16.1282597   3.2844195
  40.6827354  16.1328926   1.7813138  32.0088539  19.9037933   2.9019141
  31.7304306  20.8030491   3.0752604  31.2045212  19.4474316   2.6548955
  49.7923737   4.2631083  62.4673462  49.1278496   4.1716008  61.7845154
  49.3672905   4.7866740  63.1466217  57.5257149  64.9903030  86.2404861
  57.2926636  64.2919388  86.8522034  58.2906799  65.4089966  86.6351395
  80.4684219  50.4911690  77.2454300  79.9803238  51.0803986  77.8205795
  81.3508377  50.8609848  77.2168121  60.8554115  49.7136421  54.8201561
  60.9213791  48.9583397  54.2358627  61.6593857  50.2088318  54.6631813
  43.5696373   3.3540239   6.4590969  43.4205894   3.0009584   7.3362293
  44.5033455   3.5639968   6.4409022  48.0889740  70.3212662  66.5433044
  47.5723763  70.9652176  67.0277405  47.4403000  69.7192383  66.1785812
  57.9152184  24.8044510  34.4622078  57.8124580  25.6023159  33.9434738
  57.2228775  24.8563480  35.1211433  48.5628395  62.7413788  85.4205704
  48.6515617  62.0056381  86.0264130  48.3606720  63.4903374  85.9813080
  46.2299576  65.0191040  40.5940895  47.1595993  65.2449722  40.6253891
  46.1568909  64.2303543  41.1314659  35.5836105  16.9669762  68.7668839
  36.4852486  16.6456203  68.7630463  35.2978973  16.8896332  67.8566055
  51.0977249   1.4194231  65.7960205  50.2307777   1.8209268  65.7374878
  51.6807098   2.0443962  65.3650131  60.6268883  38.5235481   8.6316872
  60.0553093  39.1645203   9.0544004  61.2250862  38.2426453   9.3241358
  26.2521229  11.4050531   3.4091985  25.7953281  10.8406525   2.7854822
  26.5571880  10.8087158   4.0929737  37.8298759  70.1687546  10.2905931
  37.3875084  69.4896317   9.7813473  37.7402458  69.8829956  11.1997356
  50.5285645  59.5916634  42.2659264  51.1577568  59.8108025  41.5786667
  50.6784592  60.2482605  42.9461060  51.3136749  64.6874542  29.9927044
  50.9095688  64.2464523  30.7399998  51.8111305  65.4077225  30.3799706
  68.8659439  17.1963196  24.1766090  68.9438553  16.5425396  23.4818192
  69.6383972  17.0568619  24.7244301  31.6357994  64.3011627   1.5166556
  31.5926228  63.5049248   2.0461571  32.4223518  64.1911392   0.9823708
   2.7457333  43.9104538  85.0273743   3.4225607  44.5734367  85.1637344
   2.8112381  43.6888313  84.0984955  64.3206711   6.0918336  43.5832939
  64.4012680   5.3315210  44.1591949  63.7031670   6.6685810  44.0330544
  79.4371872  45.4759293  69.5488358  80.0450745  46.0313988  69.0608215
  79.9599304  44.7160492  69.8048553  23.9142036  48.6837540   0.9161215
  23.2342510  48.3258667   1.4869205  23.4700050  49.3665810   0.4134614
  31.5705090  10.1041384   2.2184312  31.5652924  10.9812431   2.6016951
  32.4938049   9.9267797   2.0387068  25.4192638   8.0263090  86.9701157
  24.5922890   7.5708857  86.8122101  25.3877964   8.2656889  87.8963699
   4.1801929  44.1493835   0.0410950   4.4076834  43.4816589   0.6881055
   4.5969348  44.9481049   0.3645210  25.1573086  54.8463097  47.5793800
  25.1364536  53.8955154  47.4708176  25.1933746  54.9784775  48.5267258
  15.7185831  51.0573807  69.2836914  14.8123550  51.0548515  68.9755096
  15.7946043  51.8614349  69.7974548  42.3506851  64.9552689  48.7652092
  42.2448845  64.5973282  47.8837814  41.7008171  64.4902573  49.2921524
  13.7957878  43.6801338  88.7881165  14.5145502  43.4442062  89.3745880
  13.0275621  43.2527275  89.1667786  86.8012390  53.6222420  19.6719036
  85.8465195  53.5691833  19.6279793  87.0838013  52.7226105  19.8363819
   2.1232386  56.6571541   2.6558020   2.0967493  57.5970612   2.4766257
   2.2703593  56.5973244   3.5997343  48.6246948  49.5789032  88.4271774
  48.8285637  49.4752655  87.4976959  47.8020210  50.0680962  88.4388428
  59.6254158  66.7803802  24.0622349  59.0864067  67.3516846  24.6093292
  60.0163460  67.3675308  23.4152012  75.0804977  44.5036011  20.5498142
  76.0124359  44.6728325  20.6879406  74.6379929  45.2370148  20.9770451
  83.6268234  20.5135040  66.5468979  84.0617371  20.4731693  65.6951599
  83.9142303  21.3452797  66.9234314  10.0185070  44.2331696  51.5383797
   9.0809889  44.0437393  51.5008583  10.3090763  43.8421555  52.3623390
  37.9677429  33.9633636  69.5313110  38.3630371  33.1256828  69.2899246
  38.3356361  34.1625595  70.3922501  46.1610565  27.4828396  11.3104162
  45.7555923  28.1387787  11.8774920  46.5214500  27.9868565  10.5808153
  40.3081779  69.6596222  35.7712479  39.9882164  69.7563324  34.8743057
  41.2485046  69.8275757  35.7095184   5.0499511  62.9411201  25.1283417
   5.5218554  63.7719688  25.0715122   5.5395899  62.4312210  25.7737007
  48.0627403  55.3427086  60.9159966  47.4362869  54.6233215  60.8367958
  48.8895950  54.9758110  60.6030540  72.8240738  47.6279259  13.3031054
  72.9447861  48.5267448  12.9968662  73.0415421  47.6610527  14.2346869
  47.0969238  57.7368355  27.8215523  47.0355225  58.0906944  26.9342823
  48.0292664  57.5581131  27.9441414  33.3052673  68.0114136  17.4574814
  33.8481483  67.2266769  17.3819599  33.5302658  68.3768768  18.3130760
   5.3386030  66.3532257  55.4298515   5.4450817  67.2447510  55.7616234
   5.3544250  66.4485703  54.4775429  24.8771515  57.9717522  31.4838696
  24.2756615  58.2218323  30.7825108  25.6285172  57.5898361  31.0301971
  20.7742825  64.1687317  39.7425385  20.8467522  65.0741348  40.0445786
  21.4563084  63.7003555  40.2238846  57.0352249  59.5373535  63.6677055
  57.9491081  59.5922890  63.3883705  57.0121651  60.0018005  64.5043564
  72.3227844  32.0464897  86.4749908  71.9051208  32.4680481  85.7239380
  73.1224213  31.6596260  86.1184235  30.1854649  20.9880390  65.7489166
  30.5758152  20.9293766  64.8768997  30.9189491  20.8541508  66.3491669
  22.9909496  51.4002228  42.7862167  23.3459549  50.6861992  42.2567139
  23.7525139  51.7667007  43.2355995  74.2908173   4.4720778  77.7394180
  73.8930283   5.1014881  78.3409500  75.2258301   4.5055504  77.9415894
  11.3281355  45.7616158  55.9956284  10.5351353  46.1314354  55.6075363
  11.0076237  45.1269608  56.6365013  75.0505600  54.3575363   2.5777385
  74.8452759  53.4407234   2.3945990  74.4277496  54.8532486   2.0461366
  49.2686501  64.3886719  32.0594559  49.6480522  63.7707672  32.6843414
  48.9317513  63.8380547  31.3526630  34.0763626  27.1027946  71.6222916
  33.7539635  27.5755997  70.8549957  33.7474327  26.2109585  71.5097427
  56.4699745  52.0507774  86.1621399  56.5209351  52.9002075  85.7238464
  56.7941742  51.4264832  85.5130005   6.2262440  28.8875828  87.2959976
   6.5699701  28.7189445  86.4187088   6.8017349  28.3914776  87.8781662
  65.8661118  10.8937502  23.4698353  66.0008774  10.7194557  24.4013367
  66.2392273  11.7644978  23.3326626  59.2292290   1.0987095  55.7333221
  58.2750473   1.0654893  55.8016586  59.5355988   1.0642940  56.6395149
  76.2275925  65.4556885   7.1441197  76.4449692  66.3391037   7.4417195
  77.0374069  64.9583588   7.2585263  61.6710472  42.9221611   1.3956002
  61.6522408  43.7910004   0.9943547  62.3808022  42.4652252   0.9442809
  70.4351349  19.3557129  28.1791897  71.2639389  18.9095612  28.0052319
  70.0660248  18.8910522  28.9302464  17.9510250  44.2054672  65.4532928
  17.5536976  43.7731400  66.2092361  17.2787304  44.1644020  64.7731705
  78.4163971   4.9626322  25.3679543  78.8269119   5.0943151  24.5133400
  77.5029297   4.7598982  25.1661892   1.4279954  66.5074005  24.4691410
   1.9621865  66.0799255  23.7997093   2.0610330  66.8314590  25.1098270
  69.0628510  68.8073044  45.9636955  68.1875839  68.6052856  46.2943459
  69.0670929  69.7591934  45.8631363  17.2474899   8.8550997   1.3104124
  17.2620335   8.2211781   0.5933603  16.3617191   8.7922344   1.6677498
  40.6608810  36.3256912  50.6620903  40.9445801  36.5913391  51.5368347
  40.3867416  35.4144554  50.7656403  35.0038071  62.5125694  56.5435143
  34.8319550  62.0889931  57.3845139  34.8900833  61.8160477  55.8968620
   0.1855272  56.9548988  62.5119438   0.9526741  56.4197388  62.7152214
  -0.5078195  56.6009521  63.0689240  24.2953644  41.2918053  22.1859093
  24.5566387  41.2283478  23.1045704  23.3637791  41.0718460  22.1861038
  60.1166420  52.4033775   0.9225938  60.0211411  52.0916328   0.0226352
  59.2856750  52.1811295   1.3425076   6.9133148  63.4807930  56.0286980
   6.6096354  64.3727112  55.8599129   7.1075377  63.1257286  55.1612663
  23.0716496  25.7300682   3.4872179  22.1288986  25.6971169   3.6495903
  23.3967667  24.8825550   3.7909460  41.7218323  11.1913147  69.4882736
  41.3142738  11.4374828  68.6578903  42.4357643  11.8190403  69.6000519
  18.7014923  55.0093918  32.3191605  17.7752247  55.1660995  32.1355820
  19.0769062  54.7720718  31.4712372   1.5677276  26.3324909  15.7997017
   1.9405465  26.9651070  16.4137325   0.7692779  26.7518806  15.4790411
  42.1015129  17.0612373  67.8858948  42.4664764  17.6134739  67.1944733
  41.1912231  16.9211960  67.6251373  62.5083847  38.1173630   3.1106622
  63.1669769  38.4055214   2.4786394  63.0141907  37.7178688   3.8183305
  69.3417664  19.3697033  60.0424767  68.5006943  19.6187153  60.4256592
  69.6548691  18.6544647  60.5962219  41.2078819  13.5778418  42.1854057
  41.1034050  13.4300003  41.2454796  41.6767960  14.4100943  42.2462921
  66.0555725   3.5318825  66.4520264  66.7918930   3.1546981  66.9334793
  66.4197922   3.7584043  65.5962982  25.7690201   7.5839992  68.4835815
  26.1583538   7.7926474  69.3327713  25.6976223   8.4285841  68.0388184
  79.2610168  35.5243034  65.3263092  78.6219254  35.9356804  64.7444458
  79.9365845  35.1856003  64.7388458  67.7737122  35.2229729  41.1463776
  68.3844833  35.0976143  41.8726540  68.1751251  35.9076729  40.6113243
  63.6788483  23.1330013  69.7871780  63.6730194  22.4381771  69.1288376
  64.2650528  22.8097706  70.4713669  41.3588409  52.8579941  84.6470642
  41.5975990  53.2652702  83.8143845  40.4016685  52.8509865  84.6445084
  66.7889633  18.8535938  41.3634186  66.4003754  18.1411018  41.8709526
  67.0858154  19.4821892  42.0214272  49.9437103  38.3034744  87.0967865
  50.4537926  37.5909538  86.7116089  50.3814430  39.1003799  86.7975159
  47.8975410  50.4259109   2.8158190  47.2873993  50.0364304   2.1895070
  48.7127571  50.5274544   2.3245544  18.6309814  46.8672333  66.0253448
  18.1595860  46.1208954  65.6552048  18.2039623  47.6337967  65.6428986
  17.8067970  54.6683311  22.0931778  17.4698925  54.1098061  22.7937355
  18.0438175  54.0589638  21.3940887  59.7992935  43.0966339  41.5620155
  59.7856483  42.5077324  40.8075333  60.7260132  43.1738091  41.7888832
   6.7733688  70.3078537  68.4165649   7.1663532  71.1260605  68.1127014
   7.1691504  70.1563034  69.2748337  78.7003326  28.8381844  81.0680084
  78.9761810  27.9255180  81.1527481  79.4364319  29.3438530  81.4125214
  44.0735626  25.9026527  71.0528030  44.9549828  26.2256756  71.2398376
  44.1964760  24.9755020  70.8490524  82.6730804  49.2793655  88.4771194
  82.4828720  49.7004814  89.3153992  83.3053818  48.5935059  88.6916428
  66.0769424  61.6419678   3.0707948  65.6256866  61.7739830   3.9045634
  66.7533035  62.3190956   3.0546772  75.2713470   4.8179622  22.6052933
  74.6576309   5.5370388  22.7553425  75.4398346   4.4609718  23.4773045
   3.9755011  59.2767830   7.2096033   4.6645055  59.4259491   6.5621042
   3.9515882  60.0836029   7.7240953  28.8063602  41.5105591  50.4587517
  28.9432278  41.7735176  51.3688889  28.9625626  40.5661926  50.4562149
   7.8683362   4.6383276  70.2610474   7.6360226   5.2391963  70.9690170
   8.0822716   5.2090816  69.5230103  20.2608910  10.7307873  18.0762157
  19.3280792  10.8146429  18.2738571  20.2893009  10.5031452  17.1469116
  67.2660446  49.5321388  75.5401535  66.9270782  50.1980247  76.1384201
  66.9628143  49.8100357  74.6758270  37.1193161  58.9381104  65.0160141
  37.0289574  58.1413002  64.4933624  36.2254601  59.2687302  65.1051483
  58.0708618  69.9021759  67.8673859  58.7243156  70.5986862  67.9314423
  57.2310333  70.3527679  67.9561996  53.5900307  24.3798561   6.9393272
  52.8007050  23.9926090   6.5608606  53.4019470  24.4398766   7.8759456
  73.7306976  47.5875282  79.7334366  74.2787247  47.5144615  80.5148163
  73.8879318  46.7742844  79.2537079  58.3379326  21.9605064  45.0070877
  57.7794266  21.9694176  45.7844086  59.1910706  22.2595062  45.3217010
   5.5938373  42.7735596  25.4101868   4.9867382  42.0341339  25.4403896
   5.6024466  43.1131020  26.3050995  17.1580715  69.3755493  31.2371387
  16.8938103  69.8148193  30.4287834  17.6127243  70.0516586  31.7395306
  65.3784561  15.6473198  38.5373192  64.8259430  16.1512241  37.9397926
  65.8858490  16.3079090  39.0089188   4.2458396   1.9661074  53.8057442
   3.4058826   1.6746371  54.1603546   4.0210080   2.3978894  52.9815788
  68.8646927   8.9239407  24.9679985  67.9363861   8.6977129  25.0253639
  69.2146149   8.7214851  25.8356380  85.5868912  41.5091095  26.0747070
  86.3834839  41.9042473  25.7203903  85.2250137  41.0049591  25.3459358
  71.6102905  33.4965897  59.4126129  72.4050064  33.5940552  59.9371758
  71.4174881  32.5594597  59.4417763  51.6045265  45.2808075   5.7377496
  50.7902756  45.4714966   6.2034359  51.6105156  45.8956451   5.0041485
  13.4823027  52.3696404  76.0252533  12.7399483  51.8287315  75.7558975
  13.2629995  52.6523438  76.9130707  67.9162369  70.9343643  77.2534637
  68.1837616  70.9405746  76.3344269  68.0671387  71.8309097  77.5529099
  56.2595177  40.3957481  14.2048826  56.0149956  39.4945831  13.9943113
  56.2516136  40.8492546  13.3619709  42.0747490  26.0492420  13.1860895
  42.5717468  25.4890194  12.5899563  42.2207718  26.9366798  12.8584270
  85.4097061  30.5892849  22.3417244  86.1975174  30.1118298  22.6017551
  84.9292908  29.9746666  21.7870369  11.0516977  36.1113319  24.8874092
  11.7083044  36.1890793  25.5795479  10.5868626  35.2990685  25.0883884
  42.9062691  41.2047462  24.5643520  43.7587395  40.9541550  24.9203472
  42.7917252  40.6420326  23.7985420  78.8382797  45.2952232  60.3967400
  78.3043823  45.2305641  59.6049042  79.7001038  44.9741440  60.1313934
  34.4955177  46.1329346  13.7642517  35.1549644  46.2672653  13.0835800
  34.9985008  46.0721817  14.5763779  77.7910690  48.1197815  66.3719025
  77.1066895  48.6730385  66.7484207  78.5889969  48.6436081  66.4436340
  44.6495743  24.6320553  62.0830421  43.9044800  24.3840790  61.5357056
  44.7782784  25.5636349  61.9046402  38.5215225  64.9009552  28.5442696
  39.4154053  64.6938248  28.2716904  37.9689980  64.3409805  27.9989452
  40.7783165  47.0363808  57.4386482  41.4738197  46.7358398  58.0236130
  41.0945473  47.8745117  57.1013489  34.8163910  48.0984764  28.9446049
  35.6052704  47.6142540  28.7008190  34.0975609  47.5895996  28.5696850
  56.3147049  39.5838242  62.7056580  55.4452820  39.5003204  62.3140450
  56.1496773  39.9245338  63.5848122  86.3337402  58.7611885  30.7406845
  86.8359528  58.6940346  29.9285870  85.4426727  58.5151596  30.4922867
  67.2975693  65.7948990  25.6729698  68.0655365  65.9086609  25.1130428
  66.5997696  66.2701263  25.2219105  44.3722992  47.9179077  11.9530592
  44.1150742  48.5198288  11.2546606  45.2753525  47.6796570  11.7433882
  65.9141769  52.9836731  19.9333916  66.8218002  53.2252617  19.7487297
  65.5200424  52.8558769  19.0705166  60.4874878  35.1215935  49.1237183
  61.3274574  34.8254547  48.7730141  60.0677872  34.3238831  49.4458008
  81.8598099  43.5429726  29.2008400  81.4802704  44.2125854  28.6318054
  81.8445358  42.7440720  28.6738110  18.8865108  70.9527130  67.0033493
  19.4259872  71.5342712  67.5390625  19.4713840  70.2323074  66.7684631
  72.5222244  37.4214439  49.3498764  72.2859421  37.6449623  48.4496307
  71.7195358  37.0596352  49.7253914  56.9648285  15.6158113   7.9219279
  57.5421371  14.9422121   8.2813826  56.3125496  15.1285381   7.4186077
  74.1732483  21.3922482  86.4132004  73.3186035  21.7536030  86.6482162
  74.8029175  21.9497948  86.8702469  42.5664444  40.9004364  27.7164097
  43.2969627  40.6339455  28.2745800  42.9314079  40.9078331  26.8315487
  46.8991966  45.1681938  23.4218464  46.1823273  44.6354942  23.7661667
  46.4646072  45.8731308  22.9418163  81.3852386  42.7604332  21.1185894
  82.2264709  42.5487785  21.5232639  81.0138550  41.9111290  20.8798828
   2.1049104  45.3684921  53.9731445   1.8520005  45.0677528  54.8459702
   1.6293278  44.7927780  53.3743095   5.8117223  53.4198494  85.8858490
   5.3097754  53.2280426  86.6779938   6.5320644  53.9736214  86.1869659
  28.1225414  28.4490833  11.0587435  28.5872555  28.0956631  11.8172722
  27.3196201  27.9305744  11.0068235   3.3976951   6.8345165  24.2508793
   3.0004916   7.4774337  23.6634102   3.9500403   6.2988682  23.6814690
  83.8724518  15.6140718  83.8456268  83.2776642  15.3571758  84.5502243
  83.3553314  16.2062798  83.2996368  57.9286804  54.4913445  67.0447769
  58.0210152  54.3946533  66.0969620  58.6364708  55.0851746  67.2950363
  83.4077911  49.7685547   5.8687057  83.6878433  48.9101486   6.1864262
  82.7138748  50.0328217   6.4727578  11.9775467  18.1530819  52.7161064
  12.1679411  18.1794643  53.6538086  11.0840950  18.4888134  52.6435776
  16.9629593  33.7340546   0.7006812  16.9438648  32.8253899   1.0010079
  16.3955345  34.2010078   1.3140444  82.6137848  24.8165169  54.8930168
  82.3474274  24.1191273  55.4921303  82.2223358  25.6094818  55.2593613
  19.1389771  42.0829048  15.6105614  18.8051796  42.5354576  14.8359594
  19.4096527  41.2234001  15.2877359  63.0165634   2.8255370  48.7036781
  62.4568901   2.4687347  49.3933792  63.5776405   2.0934391  48.4478340
  37.2686348   4.5139718  79.3509064  37.3025169   4.5060921  78.3943405
  36.9492722   5.3888044  79.5720596  84.9897232  41.1880112  28.8629169
  85.4754333  41.3208046  28.0488644  84.7702255  40.2563171  28.8616028
  77.2305984  59.2413330   8.2006531  77.2149658  60.1981468   8.2228374
  76.8708344  59.0157356   7.3428011   8.2029343  48.9588051  43.3654633
   7.7862935  48.1095772  43.5119438   8.4449091  48.9503174  42.4393921
  51.7225075  14.7758121  22.6309586  52.1041298  14.8309746  23.5070591
  51.3640862  13.8896465  22.5811996  81.8126373  23.2085705  35.9569435
  82.6872787  23.4005508  36.2951431  81.3677063  24.0560360  35.9486504
  76.7194138   7.3357229  80.7297897  76.1693420   7.7655549  81.3846893
  76.3441620   6.4597936  80.6394272  31.6310997  36.5099487  62.8403282
  32.1865768  35.7521706  63.0232010  31.8447952  36.7516594  61.9391403
  26.3129272  16.8802128  76.4808044  26.3266850  17.2542152  75.5998001
  25.3829556  16.8058739  76.6949463   2.8781335  41.4283218   3.5707324
   2.5280936  41.2609100   4.4457617   2.1987665  41.9433594   3.1354990
  69.2162704  17.8540764   5.9444656  68.6653442  17.3015938   5.3899608
  69.2146835  18.7068882   5.5097914  66.5918579  63.3491173  85.7651367
  66.9670486  62.7524414  86.4127731  65.9179459  62.8314285  85.3245926
  23.3610687   3.0917842  87.1917648  24.0385590   2.4442310  87.3864746
  23.7758083   3.9348059  87.3748932  35.0408936  22.1067028  84.8902130
  34.3303108  21.4670620  84.8436737  35.3719788  22.1625347  83.9938354
  78.4829865  32.1595116   2.5695050  78.2810211  33.0897179   2.4686925
  77.8853149  31.7178955   1.9661858  15.3619261  40.4579086  65.0721207
  15.0599146  39.9027519  64.3532181  15.9737139  41.0692177  64.6619415
  54.2611885   6.6563053   6.0623641  53.9950676   5.9771099   5.4426022
  54.9965897   7.0955276   5.6351619  12.2014580   4.5534081  53.0180855
  13.0950499   4.7088718  52.7122154  11.8259478   3.9590631  52.3684845
  21.6094055   1.3572106  12.1998062  21.5303345   2.1273763  12.7626781
  21.8644619   0.6514485  12.7940092  75.1088257  51.4961586  82.6823578
  74.7298050  51.3320389  81.8188477  74.3526917  51.5978279  83.2604141
  64.4157028  61.3744431  62.9471283  64.2557449  62.3008537  62.7670975
  64.1451187  61.2572212  63.8577766  52.8060913  47.5061035  85.5859756
  52.1684990  46.8724518  85.9149094  52.7101479  47.4704132  84.6342697
  84.4504166  50.6033287  65.6226654  84.9033203  50.6923676  64.7840958
  84.5305481  51.4654045  66.0308685   8.6456184  55.3131065   9.6514387
   9.3690815  54.9599266  10.1692171   8.0048361  55.6021233  10.3011312
  25.7148571  48.9500046  12.7584190  25.1759605  48.8352280  13.5411377
  25.2841892  48.4161987  12.0907288  41.5610847  45.7212372  64.1455078
  40.7597084  45.6086998  64.6567383  42.1577072  45.0543938  64.4854889
  46.8126335  31.4027538  13.3312798  45.8653450  31.2739925  13.2833452
  47.1826324  30.5852871  12.9979916  27.4026279  36.0326424  82.7170334
  27.7085438  35.1807785  82.4056244  26.9950409  35.8462143  83.5628128
  75.8054504   8.4298992  20.6512356  75.9600677   8.9225788  21.4572086
  74.9972610   7.9449615  20.8182602  47.5622635   5.1451621  73.8047485
  46.7695847   4.6090016  73.7842331  47.2613869   6.0261116  73.5819626
  11.6804638  61.1740761  79.8466110  11.3733730  61.1805153  80.7531891
  12.4942541  60.6708031  79.8729553  43.7851181  29.2410889  38.5294380
  43.0860329  29.2517567  37.8756790  43.4085922  29.6838665  39.2899704
  81.6000977  68.7961349  12.5638971  82.5212708  69.0134354  12.7068863
  81.4412079  68.0415268  13.1309557  61.1313782  59.2136192  34.6155128
  60.7849312  59.1386147  33.7263680  60.3649712  59.1145325  35.1803398
  18.3382759  32.2564354   9.0253897  18.9359360  31.8889427   9.6765299
  17.4865646  32.2688179   9.4620447  70.7877579   3.2078657  81.4486694
  70.4743500   3.8374610  80.7993469  71.4715347   2.7156053  80.9944000
  33.9099655  41.8611794  66.6567993  33.8257904  42.7912865  66.4469376
  34.5525169  41.5311356  66.0287628  40.0017242  60.1018372  45.7900848
  39.7820129  60.9905090  45.5104065  39.2451248  59.5754890  45.5317345
  38.9233513   2.8790896  71.3176651  38.0174141   3.1845789  71.2709351
  38.9909019   2.2228463  70.6241150  14.4933853  22.9291763  71.1744156
  14.5692482  23.8829403  71.1459122  14.6439590  22.7042618  72.0925522
   7.0746636  29.5742588  38.6764717   7.3419008  30.4911785  38.6126251
   7.1438346  29.3689899  39.6088409  72.1980896  59.8677063  45.0591202
  71.8022919  59.5687408  45.8777771  72.6079865  60.7033806  45.2824326
  60.7650871  63.5588989  77.5624619  60.1631622  64.0361176  76.9913330
  60.3573380  63.5994835  78.4275208  74.8627548  67.9582138  50.6396713
  75.5930939  68.4216690  50.2297363  74.9093628  67.0722427  50.2803421
  64.1089554  57.9023132  27.1305752  64.6359024  57.1832695  26.7819538
  63.7181168  58.3095474  26.3575058  75.0447540  71.0466843  45.2407112
  74.1402130  71.3486786  45.1580315  75.1901550  70.5097656  44.4617348
  61.9008026  13.9878826  61.6884727  61.5351219  14.4594641  60.9400597
  61.8346481  13.0644608  61.4452667   8.8565416  44.7689171  21.0744934
   9.2742825  44.2953415  21.7938328   8.7844324  44.1225891  20.3721466
  50.7622910  68.6913223  37.8261070  51.0657692  69.1863098  38.5871048
  50.4338264  69.3576126  37.2224464  65.7151947  36.5873833  70.0314789
  65.9511337  36.3299675  70.9227219  66.1171799  35.9202156  69.4751282
  29.6799526   5.3856730   1.7476634  29.6948357   6.3427353   1.7411720
  29.1459274   5.1595960   2.5091996   1.2857478  34.9126511  40.2267838
   1.2096763  34.8573837  41.1793556   0.4266966  35.2180290  39.9352264
  19.0275860   3.4148939   5.5567307  18.4853134   3.1144524   6.2860513
  18.4925594   4.0754571   5.1166911  26.9080029  29.9229183   2.0802529
  26.7551689  30.8358383   1.8364275  26.3335018  29.4211597   1.5019653
  44.9040222  38.9065361  49.0486336  44.6292610  38.2318764  48.4276924
  45.8082161  39.1033897  48.8038635  83.6937561  47.0264931  85.3371658
  83.2933884  46.5945587  84.5825958  83.3449478  47.9176254  85.3159561
  54.9630470  33.2167511  74.9479752  55.4009781  33.0911789  74.1061401
  55.0002708  32.3573647  75.3678589  63.8021545  51.4674149  45.4878120
  63.7764931  51.9783058  46.2968636  63.7899933  52.1227531  44.7902336
  34.2639389  41.2350197   8.8369799  33.3414764  41.1792679   9.0863419
  34.2509499  41.2877083   7.8813200  54.7716331   2.8542075  70.7151947
  54.7590446   3.4221661  71.4855881  54.4214630   3.3989301  70.0102921
  72.9627075   0.3890851  53.0136719  72.2477570  -0.1489978  53.3535881
  73.6663895   0.2847620  53.6541252  68.8466339  42.3470116   7.9852777
  68.3848267  42.8819199   7.3396482  69.0193710  42.9451256   8.7123613
  11.9621592  60.2333336  85.7577667  11.1779461  60.0519104  85.2397614
  12.3114176  61.0440559  85.3876572  35.9566650  56.5328827   6.2157927
  36.2177124  55.6959915   5.8314757  35.0421143  56.6413536   5.9549136
  41.5421867  24.9500408  61.5129547  41.6101608  25.7453480  60.9846573
  40.6007805  24.8033142  61.6049080  52.1758652  70.3185730  30.4117146
  51.3962555  69.9255753  30.0192871  52.8698807  70.1654510  29.7705193
  76.7227707  30.4291420   1.4136606  76.6045761  29.5838547   1.8469610
  77.4233780  30.2772617   0.7793822  33.9027367  45.3680000  23.1497784
  34.1709557  45.8156586  22.3473492  33.9404564  44.4373932  22.9289265
  85.3015823  50.1542892  73.4203720  85.3692932  49.9058762  72.4984512
  84.4060364  50.4784966  73.5159149  12.1901312  29.4307652  70.0030746
  12.6477642  29.9116211  70.6927032  11.2872467  29.3667526  70.3144226
  69.6162109  26.3876705   5.8678241  69.2264786  26.9679604   6.5217385
  70.2132645  26.9498672   5.3741689  57.9600792  48.8017006  52.7730980
  58.7499390  48.2710037  52.8766022  57.3862724  48.2717590  52.2197952
  80.7094650  68.9213409  23.1189499  79.7820969  68.6966095  23.0433216
  80.8178253  69.6850510  22.5521660  27.1443310  34.6258698  76.0102997
  26.9733887  35.4003410  76.5462189  28.0564060  34.4026146  76.1960754
  41.6693001  28.0252342  81.2648087  42.3109169  28.0096836  80.5546570
  41.3421593  27.1268978  81.3117447  22.9495735  69.3814163  82.5882339
  22.2167759  69.9972305  82.5844269  23.1661396  69.2611237  81.6636429
  21.7552109  65.2544937  66.9900818  21.7455616  66.1855164  67.2121964
  22.1275387  65.2223434  66.1088486  82.7607117   8.8438683   4.5335522
  82.1725922   8.7911863   3.7801826  83.2024612   7.9949064   4.5523796
  62.4546585  61.8968735  73.4887848  62.7426147  62.0297318  74.3919296
  62.9635277  62.5279579  72.9798508  48.2924576  28.9449615  37.7009621
  48.5840149  28.3565292  37.0045624  47.5178909  29.3769474  37.3408699
  66.4145737   5.4994531  23.9749527  66.0813217   4.8158879  24.5562515
  66.5261154   6.2625866  24.5418911  47.0285950   9.9409771  65.6494217
  46.9086113  10.8670359  65.4390564  46.4889374   9.4779339  65.0086441
  62.7622032   5.2155113   8.5098524  61.9954262   4.8654265   8.9634237
  63.2175789   5.7332215   9.1738110  11.7995367  56.8796616  45.8150139
  12.3305922  56.4452057  45.1475868  11.0763159  57.2732353  45.3268738
   5.7746687  23.3604393  82.9292221   4.9859958  23.5503178  82.4211121
   5.5029578  22.6837425  83.5492859  61.0775108  58.9577713  12.4244747
  60.3162117  58.6194267  11.9531202  61.2861748  59.7810059  11.9829111
   6.7356381  42.2503853  16.0808411   6.0372376  41.6003456  16.0039177
   7.5187263  41.7379379  16.2818470  61.9839592   5.5273666  55.5961189
  62.3664284   5.5871015  56.4715538  62.1858292   4.6375623  55.3067589
  40.9413986  19.6499405  56.9490547  40.4275246  19.1664524  56.3022118
  41.6924133  19.9830379  56.4578743  47.7709961  67.4057465  18.5565052
  47.4519081  66.5271454  18.7625866  47.0046654  67.9696198  18.6614742
  68.2957382  19.2622643  88.2507248  67.4459686  19.6330204  88.4887695
  68.9094925  19.6500874  88.8745346  40.0643616  39.6741791  51.4156303
  39.5015869  39.0216789  50.9987869  39.9441948  40.4650192  50.8899269
  32.4611168  63.9686508  32.7280464  33.1746902  63.8009033  32.1124954
  32.1844788  63.0989799  33.0167999  81.4632339  34.1904030  11.8081017
  82.1802673  34.7807579  12.0395594  80.8463974  34.7405510  11.3253098
  71.7217407   7.7169256  80.7308121  71.2453079   8.5122795  80.9688263
  71.8628616   7.2643600  81.5623779  82.3350372  28.5045681  67.0344467
  82.0182266  27.8812218  66.3807602  83.0999222  28.0782433  67.4209976
  43.5457153  46.5864906  17.5038013  43.3877831  46.2391930  16.6259212
  42.6804161  46.8512306  17.8158913  43.9128876  41.8389664   6.1675544
  44.0825119  41.4350319   7.0186114  42.9588966  41.8983154   6.1164794
  70.4491959   7.9603887  66.4131470  71.3052139   7.5399547  66.3312378
  70.3405457   8.4440079  65.5942841  76.8372421  33.7310677  61.8943253
  77.4748001  33.9141083  61.2042160  76.3386078  32.9823151  61.5672722
  18.7953930  33.9020195  83.6577911  18.2389240  33.9686470  82.8818130
  18.5216446  34.6326561  84.2122879  43.2256203  46.9862099  75.4768295
  43.5226898  47.8601036  75.7303925  44.0064049  46.5615578  75.1214752
  14.8130884  57.8306580   0.3316406  14.6288385  57.0338783  -0.1657756
  15.4489498  57.5583153   0.9932612  83.2721405  51.7209663  49.6459808
  82.6372757  52.3468094  49.2974205  83.6795883  52.1778030  50.3818588
  28.0784473   6.0013599  83.7322540  28.8631325   5.6858149  84.1805115
  28.2687817   5.8798389  82.8020782  79.3732452   8.2287407  22.8967228
  79.1768799   8.9648981  22.3172894  78.5792236   8.1169510  23.4194584
  84.6273727   6.5605125  27.9255428  85.1497116   6.0316205  27.3224945
  85.1804199   7.3168163  28.1214390  57.2132721  56.2301903  21.1606846
  56.5289879  55.8689575  20.5972157  57.9268761  56.4482651  20.5611458
  70.6419449  67.0968781  59.2705040  70.0339966  66.8153305  58.5868645
  71.0573273  66.2880173  59.5695724  81.1469116   1.7235485   4.8216577
  81.3546524   2.3379431   4.1176734  80.1977844   1.6111581   4.7691483
  11.5218744  68.8842545  13.4883261  11.9518309  68.0316010  13.4223928
  11.6837902  69.1651382  14.3889475  69.4944229  36.0648346   9.2692232
  70.0270996  35.2695618   9.2743330  68.5972519  35.7514572   9.1546869
  42.2908058  18.0551281  11.5082598  41.6688080  18.6535969  11.9220057
  41.9051056  17.1874828  11.6293278  46.2192230  50.2761765  63.6985130
  46.4858208  49.3602180  63.7771263  45.5329208  50.2694511  63.0312958
  67.0108871  47.1791420  48.9973068  66.1231918  47.4100418  49.2710228
  67.0092316  46.2226219  48.9612617  76.0328140  22.7542439  77.5145493
  75.1893921  23.1639576  77.7069244  76.3499451  23.2128334  76.7365036
  63.0144768   5.0791698  68.7405014  62.6964073   4.8509231  67.8670197
  62.4974327   4.5341458  69.3336639  17.7571831   8.0690298  87.3622284
  17.3089714   7.2978544  87.0149155  18.4176655   7.7143941  87.9573975
   3.5845852  64.0290604   9.6171703   4.4492965  63.8706017   9.2384911
   2.9725475  63.8275375   8.9093351  20.5598831  57.1182442  68.8547745
  19.9552517  57.5289345  69.4728241  20.0147800  56.8912354  68.1014099
  73.9657745  12.3366165   4.5394049  74.5121613  12.0583076   3.8043973
  74.5898972  12.6070843   5.2128668  44.2598381   8.8556051  88.0327072
  44.9310341   9.5244389  88.1683197  43.7944527   8.8105068  88.8679428
  34.3528976   7.7519622  65.2276993  33.6944199   7.1457558  65.5670395
  34.7117043   8.1765957  66.0069199  21.4057655  57.1352921  36.0507545
  21.1139717  56.6972275  35.2512627  20.6627007  57.0607872  36.6495323
  13.4038525  62.3474274  67.7212830  12.9838915  63.1120758  68.1152039
  13.4875755  62.5711060  66.7943573  81.6836395  33.6035767  75.1960144
  81.9917603  34.1186523  74.4503708  81.0755997  34.1843567  75.6534119
  44.1378479  11.4825678  58.3769302  43.2797165  11.3149719  58.7664871
  44.7625732  11.2420025  59.0610924  79.9606857  52.8377190  70.4406052
  80.3897476  53.5011673  70.9809494  79.0440979  52.8610649  70.7154770
  52.2952042  70.3033981  68.8562546  52.6429329  71.0605087  69.3275375
  52.5590973  69.5503159  69.3848953  10.8634663  64.9024582  69.7253265
  10.9222145  65.8537521  69.8137512  11.7370920  64.5861206  69.9554214
  79.8044586  23.6035519  49.3225861  79.6237030  23.1100388  50.1225891
  80.6872330  23.3339119  49.0691376  33.6691017   4.1278577  85.4007034
  34.5990295   3.9871681  85.5786743  33.2578239   3.2858453  85.5958939
  51.7077332  29.8602791  52.0512199  52.0316887  30.2550621  51.2416344
  52.4668770  29.4059563  52.4166298  78.5538406  49.1386681  51.5071602
  78.6422043  49.5617752  52.3612099  79.3864136  49.3107452  51.0673294
  14.5524817  36.0923958  74.8588943  15.0419741  36.1110878  74.0365295
  14.0212297  36.8884048  74.8395538  16.0786228  45.8080444   1.1142994
  16.9794369  45.6487045   0.8325613  15.7211981  44.9354401   1.2787395
  17.1710339  50.5352821  54.7286911  17.8683472  51.0666313  54.3444328
  17.6085472  50.0194511  55.4059906   7.9477053   5.0056343  76.0982666
   7.7938056   5.9323130  75.9143829   8.6578703   5.0035295  76.7400589
   0.4616975  21.0675926  86.0741196   0.9720317  21.0881481  85.2645721
   0.4746257  20.1487713  86.3421402   5.1725392   4.2196121  86.0115814
   5.5068192   4.3918486  85.1313400   5.0208097   5.0880909  86.3843460
  55.6491318  24.9213810  54.5807953  55.0424080  24.1874275  54.6779060
  56.2615623  24.8239517  55.3099518  53.7205086  52.4408569  65.7740021
  53.0790176  51.7524147  65.5985947  54.4500885  52.2437210  65.1865616
  73.9360504   4.2853756  73.2879868  73.1389465   3.8456395  73.5837631
  74.6323395   3.9045248  73.8231201  42.1080666   2.8415897  49.9523621
  42.5122528   3.3240969  49.2312164  42.8421097   2.5875788  50.5117302
  83.7141647  69.3176727  15.7599573  83.0978928  70.0279236  15.5811043
  83.2801208  68.7863541  16.4274483  55.3495026  11.9509172  64.5517273
  56.1640701  12.4326277  64.6954956  55.4279861  11.6079493  63.6615334
  43.7441711   7.4977574  12.6351862  42.8044052   7.5361819  12.8129311
  44.1121788   7.0388079  13.3902807   2.3453863  18.8014393   2.8716340
   2.1968160  18.6077080   3.7971756   1.4959253  19.1045017   2.5510082
  36.9639549  67.7857208   8.8535709  37.7010994  67.2810593   8.5098152
  36.5606346  68.1782837   8.0793209  78.3939743  66.8544922  17.2908268
  78.3268051  67.0045853  16.3478565  77.4867706  66.7779007  17.5863800
  28.9287453  21.1540051   4.5604191  29.7561302  21.4819641   4.2081256
  28.3112392  21.8738537   4.4310603  51.9433479  51.3713417  56.5219460
  51.4243774  52.1574440  56.6920700  52.8333168  51.6114082  56.7799339
  70.1918488   2.2091873  11.6781588  69.7583008   1.6333656  12.3080015
  70.2797623   3.0440936  12.1379776  73.9522781  39.0152168   1.4663320
  74.4048080  38.3371696   1.9680263  74.0610428  39.8110962   1.9868923
  78.4488449  38.0791435  30.1801701  77.9417114  37.9678535  29.3760166
  78.8782654  38.9283600  30.0769272  53.5877037  42.6398315  67.2236710
  53.7280388  43.3535309  67.8459015  53.9601059  42.9612617  66.4025574
  59.9931641  17.4280472  38.5315666  59.3902817  17.1632080  39.2262764
  60.8620338  17.3483944  38.9252167  40.4252167  12.9581299  14.3112478
  39.6446037  12.4046278  14.2886648  40.1962013  13.6709824  14.9075899
  58.7454605  70.9738846  26.0950069  59.0439453  70.6590271  25.2417755
  59.1471291  71.8380203  26.1853390  33.8748207  68.9104080  20.3374901
  33.7042923  67.9758530  20.4547863  34.0813103  69.2283630  21.2164116
  19.1876221  55.4213409  56.4224091  20.0535450  55.0384483  56.5631294
  19.1273880  56.1223869  57.0713577  65.1106644  10.8217831  59.0629311
  65.5180359  11.5074863  58.5336952  64.2116089  11.1229143  59.1942444
  81.8172836   8.6459484  41.0367241  82.1724014   9.4724426  41.3638802
  80.8678360   8.7612000  41.0753937  53.7833939  47.2904243  79.4547806
  54.1149254  47.1049843  80.3333817  54.4940338  47.7676353  79.0264130
  42.7398300  66.6998749  19.3537998  43.0402260  65.9463272  18.8456993
  42.2046738  66.3206863  20.0509777   5.3002419  62.0369072  57.6570778
   5.3746548  62.3479271  58.5592766   5.6379757  62.7583885  57.1263885
  47.5613213  70.5028458  15.7644672  46.7775726  70.8580475  16.1837540
  48.0322571  70.0618515  16.4715576  39.8888550  54.4505997  88.1984406
  39.4363136  53.6072464  88.2123566  40.8171844  54.2234268  88.1452408
  60.7803383  27.5895958  18.5215721  60.9957390  27.4812546  17.5952358
  60.0120430  27.0345592  18.6553288  64.5361252  44.7675705  70.3894806
  64.8316422  44.0064468  70.8890686  64.6180878  45.5008469  70.9992523
  35.3631744   1.0881245  29.9010639  34.9673233   0.2169788  29.8758049
  34.6695442   1.6752042  29.6003170   3.0922017  39.0304871  44.9261856
   3.1619203  39.6753731  45.6300964   2.9071140  39.5493965  44.1434250
   3.6973634  27.5086098  14.5399513   4.1926069  27.2685032  15.3230963
   2.9623628  26.8956223  14.5240688  71.3279648  19.4210892  22.0875568
  70.9960098  19.8488979  21.2982426  70.6305466  19.5352192  22.7331734
  34.3407135  48.5482292  37.1949692  33.8572845  48.4856682  36.3711853
  33.6788979  48.4085350  37.8722572  79.6503601  20.8467083  60.8523064
  78.7914047  20.9008999  60.4333878  79.5699692  20.1202946  61.4704437
  14.1681414  71.1668472   7.5642862  13.4062128  70.5997925   7.4453564
  13.9959278  71.9208298   7.0002966  81.6092148  29.2200165  75.5824509
  81.2389908  28.4174767  75.9500046  80.9987869  29.9083214  75.8467255
  36.9760857  53.8473778  17.3995094  37.1176910  53.5317574  16.5070076
  36.0517960  53.6688652  17.5728626  46.1208839  52.3267212  50.5673599
  45.8493614  53.2154541  50.7968369  46.1713066  51.8676758  51.4057884
   8.5335579  38.1975021   4.0899324   7.9060941  38.5538292   3.4610031
   7.9911084  37.7815437   4.7599759  63.6661072  45.8075905  62.9854584
  63.4152489  46.5702286  63.5066910  62.9564095  45.1800232  63.1222801
  54.0336037  17.1484737  18.7773495  54.5775642  17.1978512  19.5634193
  53.8492241  18.0612793  18.5559483  67.4548569  58.6752892  60.5398254
  66.8978958  59.3545418  60.9201469  67.9993057  59.1400146  59.9043465
  29.2647343   2.5847564  78.2682724  30.1932259   2.7575314  78.4241028
  28.8359432   2.8200469  79.0910797  48.3280144  31.8540020  55.2213058
  48.1133537  30.9915009  55.5766106  47.7756691  31.9370594  54.4439697
  37.1084213  16.4177704  13.9613256  36.5327568  17.0733337  13.5675230
  36.6990166  15.5795965  13.7466602   7.8490114  30.4341373  41.1762428
   8.7944794  30.5336227  41.0647812   7.5002794  31.3184986  41.0643425
  45.9582672  41.9625854  26.6125336  46.5606499  42.1566696  27.3306541
  45.6747055  41.0627823  26.7743301  11.2293301  48.0724831  81.8384399
  11.7668772  48.1244164  82.6287384  10.8691015  47.1857529  81.8516312
  48.0401115  48.4426155  12.7005262  47.6568222  47.6023598  12.9521055
  48.5148125  48.2563820  11.8904600  12.5373545   1.9356681  82.5104675
  12.2660046   2.7408874  82.9511719  11.9692087   1.8800138  81.7421265
  39.6983643  63.0497322   9.2097712  39.9800301  63.1895447   8.3056984
  39.9841728  63.8364792   9.6740723  62.2290993  31.9483089  21.7153492
  62.7381706  32.6088066  22.1852627  62.2483368  31.1802216  22.2862263
  56.6817970  39.5259361  24.6508121  57.1785126  40.3151016  24.4346676
  55.9634628  39.8382454  25.2009850  28.6410255  36.8367805   0.6415522
  28.6174431  37.4505920   1.3756585  29.3239174  37.1792564   0.0648357
  47.3428764  13.4016714  75.0481720  48.1171074  13.4607639  75.6079102
  47.4121170  14.1561298  74.4631653   8.1628418  32.5275650  14.2112017
   8.1495247  32.0535164  13.3797388   7.2843947  32.8997765  14.2887897
  16.3977242  55.1560974  76.5963440  15.6552010  55.7511253  76.4922485
  17.0971451  55.7055016  76.9501801  32.6434784  20.7921448  12.4154339
  32.4589539  20.3308811  13.2336140  32.5445518  20.1246109  11.7365799
  86.2863541  31.3020687  32.8255959  85.5321045  31.3247375  33.4145203
  87.0022507  30.9679279  33.3660316  12.2199345  59.8858948  12.4740276
  12.6273251  59.0214691  12.4189653  12.1635761  60.0647621  13.4126768
  70.8023605  51.9636650  69.3782425  70.5112610  51.0921783  69.1099167
  70.9947281  52.4154587  68.5565948  10.7178268  68.5140762  38.9142647
  10.6601982  67.8359985  39.5874062  10.4626942  69.3198700  39.3635368
  72.0398636  50.9311562  71.4526443  71.6611328  51.4947548  70.7779999
  72.7656097  50.4870987  71.0140839  51.3566513  45.8246002  79.9215393
  52.0817299  46.4193916  79.7299271  50.8281784  45.8262825  79.1234512
   1.7175653  34.2112236  17.1450024   2.2480550  33.4492035  17.3776779
   0.9122710  33.8410721  16.7834492  43.9225845  31.2647552   6.1747999
  43.3225555  30.5806828   6.4718575  43.4872246  31.6519794   5.4153581
  24.8363724   0.2328640  87.9892197  24.6417255  -0.2041510  87.1601410
  25.7890015   0.1831220  88.0683060  73.3793869  28.2764950   4.1935534
  73.0170441  28.0393486   3.3399138  72.6294632  28.2499580   4.7878127
  61.8840790  20.1546993  23.0699272  61.7489166  20.9266148  22.5202827
  61.0530052  19.6817150  23.0271530  70.5938492  42.9645424  32.2858543
  71.4288712  42.5124474  32.1650963  70.1885147  42.5235596  33.0324936
  77.2956619  33.6456795   8.0085592  78.1070633  34.1242790   8.1782665
  76.7221909  34.2874451   7.5896182  38.3462715  27.7564163  74.5227814
  38.6599655  26.8784523  74.7396011  37.5413666  27.6074276  74.0266342
  22.8029976  60.2345428  38.0945320  21.9664707  60.3868179  38.5341530
  22.5809002  60.1943970  37.1643219  58.8257599  69.4823456   0.5145584
  59.5827789  69.1046066   0.0668271  59.0186691  70.4186630   0.5628241
  14.3349962  58.1030922  46.3436699  13.5588827  57.5431557  46.3250198
  14.1334534  58.7700233  47.0000381  47.3931122   3.8475659  44.8232460
  46.9825134   3.3016362  44.1527214  46.9198570   4.6783848  44.7785187
  86.5395279  33.1862679  15.4424486  85.6159210  32.9530525  15.3486586
  87.0072479  32.5189133  14.9403486  74.0478058  36.0574913  70.1730270
  74.0423660  35.1986427  70.5956116  74.9251328  36.1343536  69.7980194
   4.9763761   8.2931604   6.7593713   4.1902490   7.8049831   7.0041556
   5.3821692   8.5277996   7.5939422  71.1428299  45.6756668   5.1446109
  71.8013687  45.8099747   4.4630499  70.7285767  44.8433838   4.9167242
  74.1293335  32.1871185  76.9924774  74.5495911  32.6073074  76.2421036
  74.4012070  32.7129173  77.7447052  25.1733990   0.5892435   6.7412629
  25.0225143  -0.3366288   6.9315948  25.7580204   0.5857812   5.9833455
  39.7826500   1.9448215  87.1495361  39.4990044   2.8308544  87.3747559
  40.2849922   2.0521894  86.3418503  67.3371277  36.1636925  17.4622345
  67.5644989  36.0833893  18.3885612  67.5288162  37.0764275  17.2468147
  59.0996246  61.7401428  15.1929579  58.8495178  60.9501114  14.7138653
  59.6930008  61.4281578  15.8761864  39.2773170  51.1367989  44.6427422
  39.3577118  50.2556496  44.2775764  40.0806923  51.5819740  44.3732262
  11.2777834  10.5795031  19.5132599  10.4780445  11.0697451  19.3227024
  11.0633535   9.6743364  19.2875957  61.2337914  11.6322985   8.6328745
  60.5226364  12.2727766   8.6162376  61.6461678  11.7098799   7.7725492
  58.7174377  33.1979218  40.3615646  59.3853531  33.0847511  41.0378151
  58.8348389  32.4461594  39.7807846  63.8816338  19.8782978  59.6199303
  62.9392166  20.0175095  59.7131805  64.2662888  20.3338394  60.3687668
  56.1825104  69.7744370  61.5038681  56.8341331  69.8601990  60.8079758
  55.6518898  70.5680542  61.4342575  51.9533958  56.7526207  12.8971672
  51.1732483  57.0116615  12.4067602  52.4993248  57.5387459  12.9114218
  37.2162285  60.2899475  72.4915237  36.6449547  61.0515938  72.3926926
  37.6478386  60.4221954  73.3355942  70.9189301   5.6546879  44.6424522
  70.1729202   6.1354470  45.0010223  70.7370224   4.7387481  44.8526840
  79.8102722  43.6065865  80.4274216  79.1373138  44.2510719  80.2083588
  79.9795456  43.1478958  79.6045151  35.7332077   1.6207889  60.8438377
  36.4847031   1.4233723  61.4028702  35.7389641   2.5745354  60.7628059
  71.4783936  25.2060242   7.5847244  72.2255249  25.4474144   7.0372214
  70.7133484  25.3818703   7.0369935  21.3285446  15.4073486  11.8241596
  21.7152500  15.0232019  12.6110029  21.4019127  14.7205753  11.1614437
  12.5920734  51.9974747  58.6182137  12.8049355  51.2285881  58.0893135
  11.9595432  52.4840965  58.0896873  22.6278419  46.1731949  85.3912125
  22.9946632  45.3054504  85.2218246  23.3893013  46.7235527  85.5742798
  43.3418274  37.1116104  24.9491081  43.5326881  36.1855316  24.8001575
  43.8244591  37.5693474  24.2607975  33.4102783  41.0469742  41.6390915
  32.7920265  40.3324280  41.4860687  34.2695923  40.6603775  41.4706993
  41.8896484  48.3141823  23.3910961  42.3764915  48.7254601  22.6769028
  41.1331367  48.8850937  23.5251770  77.8869247  45.4795723  65.7909851
  77.7589798  46.3816452  66.0844650  78.6797485  45.5120468  65.2556305
  78.6260910  31.7522354  53.8806000  78.5541916  31.8811150  52.9348450
  79.4775848  32.1250420  54.1090851  10.8061285  32.1578102  87.9092255
  11.2967396  31.7151623  88.6017532  10.2215452  31.4841919  87.5617599
  26.1914978  61.6358223   2.8696039  26.7545567  61.5929184   2.0967159
  25.3022842  61.6671333   2.5166898  53.3655167  23.6448402   9.6974230
  52.9700928  22.7961311   9.8963289  53.9258194  23.8305187  10.4509592
   5.6207080  18.0527573   0.2617627   5.8154101  18.1536961   1.1934998
   6.4279304  17.7025490  -0.1150375  79.8490524   4.4104409  43.9861832
  80.2778625   4.9292049  44.6667976  80.5422897   3.8474269  43.6417046
  13.3205404  51.2210388  68.0886917  12.4573126  51.5671501  67.8622513
  13.2233582  50.2712708  68.0199203  41.1530228  56.7124634   5.4322534
  40.2188263  56.8686256   5.2939634  41.2108498  55.7818069   5.6485124
   8.7588720   5.5038342  86.4533615   9.6878662   5.2807341  86.3948212
   8.6975260   6.3774080  86.0669250  73.4652557   1.0467325  23.4041481
  72.6035843   1.2329105  23.0311890  73.6861877   1.8341701  23.9015026
  16.5874081  54.6840019  12.7565079  16.0260448  55.1118507  12.1099386
  16.3203087  53.7650757  12.7349186  22.9222164  55.7533188  76.0440521
  22.2725811  55.2186852  76.5005341  23.7523556  55.3006630  76.1930695
  20.2826309  52.4631348  28.5874786  20.2494259  52.9119339  27.7426682
  20.5536804  53.1399231  29.2077389  34.8486900  53.0218658  26.0391521
  34.0769386  53.5004501  26.3417892  35.2277298  53.5822525  25.3620052
  24.7975426  49.2319183  52.7159462  25.6016273  49.5143776  53.1517181
  24.8415127  49.6337166  51.8482704  23.7541351  70.2722321  34.5084114
  24.4407349  70.7127991  35.0091248  22.9627323  70.7792587  34.6896286
  84.0082474   9.7726212  85.6116409  84.0622864   9.1599798  84.8781738
  84.8608475   9.7070875  86.0417709  78.4977341   2.3530145  14.5463314
  78.2417526   2.4954865  13.6350651  78.1970520   1.4659592  14.7436953
  12.0843077  60.3251495  59.6491127  12.1726913  61.2072792  60.0100403
  11.8437004  59.7822075  60.3998146  74.5475235  67.4715424  -0.0643938
  74.3705826  68.4118881  -0.0383981  74.3276672  67.1620712   0.8143122
  41.0858688  66.1355515  52.3960457  40.5622292  65.9153748  53.1664696
  40.8094559  65.5055237  51.7305412  57.5412216  56.1545639   1.7485129
  57.0500412  55.5586128   1.1829904  58.2084160  55.6024437   2.1562464
  39.7368164  30.0562096  64.3441010  38.7953529  30.2270279  64.3177109
  40.0255737  30.4338856  65.1748962   3.0394442  63.4869537  78.7095871
   2.1855023  63.7692833  78.3820114   2.8713136  62.6359787  79.1143188
   4.1279292  55.7065735  68.2637482   4.8747144  56.1426811  68.6740570
   3.7476912  55.1744232  68.9626465  55.1385193  49.0300941  37.9271660
  54.7493515  49.0510902  38.8014297  55.8846664  49.6270905  37.9827385
  41.6876411  60.7005501  60.0478020  41.1577873  60.0325699  60.4828720
  41.1772842  61.5056000  60.1353416  81.0693817  50.9687729  25.1687565
  81.4053421  51.1754646  26.0409031  80.3958511  51.6298065  25.0086803
  28.8605671  54.1238518  13.5322685  28.0232849  54.2700195  13.9725275
  29.4144955  54.8476524  13.8246870  65.9091721  16.0227814  33.7068062
  65.7773132  16.5851231  32.9435120  65.0756607  16.0567780  34.1762047
  16.3096333  51.2793694  82.0725861  15.3855009  51.3584442  81.8360291
  16.3957653  50.3865700  82.4068222  30.2817230  23.4094753  87.8823547
  30.4804726  22.5350742  88.2172546  31.0978603  23.8980865  87.9891815
  28.1462860   1.4898248  24.8178272  27.5737247   1.1904691  24.1115761
  28.9141293   0.9211238  24.7610016  18.1117058  31.7731609  85.3974075
  17.4499760  31.9039536  84.7182617  18.8017693  32.4010963  85.1835480
   9.9461403  53.3682556  30.2794628  10.2841959  53.1376648  31.1447830
   9.8536797  52.5297279  29.8271885  39.5133324  11.5715303  62.0787048
  39.3580971  11.6455622  61.1370850  39.1740913  10.7068977  62.3101273
   4.8857832   8.0837955  77.7361221   3.9319441   8.0559006  77.8112564
   5.1100869   9.0040703  77.8740158  21.3347607  32.2104836  81.1311722
  21.0066814  32.1745148  82.0296707  21.9440079  32.9487534  81.1280289
  41.6903725  34.0975685  27.4132843  41.5551376  34.2730103  28.3444996
  42.6283226  34.2323112  27.2779179  77.8230896  43.0363312  73.3975677
  77.3834000  42.3722572  72.8666153  78.6301041  42.6130524  73.6904678
  64.7834549  29.3938007  76.7623749  64.4452972  28.4984779  76.7455673
  64.0720901  29.9114609  77.1394958  40.0884857  40.1178513  28.1359158
  40.3113823  39.1875687  28.1693935  40.8841553  40.5434380  27.8165092
  53.1868248  14.7612391  42.1712074  53.7871513  14.6371717  41.4360542
  52.3442688  14.9580402  41.7618179  46.9696884   2.7048407   8.5834208
  46.9574547   2.3041329   7.7142167  46.5250359   3.5443795   8.4664059
  82.3330231  11.9272757  48.0302124  82.0809021  12.6122150  47.4109192
  82.1076508  12.2857656  48.8886566  79.0779724  50.1913452  20.3374138
  79.9864197  50.4927788  20.3465157  78.9443817  49.8072128  21.2039165
  47.4039192  26.1537952  14.9150877  46.7535477  26.4998226  15.5262451
  48.2367401  26.2358952  15.3797388  44.6907349  56.2515450  35.8535500
  44.1507339  56.7086525  36.4982872  44.4284210  55.3340645  35.9287376
  77.9764175   8.3629885   8.2591314  77.5874100   7.4939113   8.1611052
  77.6217194   8.8680792   7.5274868  19.8846264  34.7298088  68.0370407
  19.7124004  34.3382492  68.8933411  20.8072338  34.5391579  67.8676910
  23.1910591  25.3761787  10.9643574  22.6031837  26.0097446  10.5529861
  22.8575821  24.5235329  10.6850357  29.8989124  42.5764885  53.1986160
  29.9823475  41.8968086  53.8674278  28.9764004  42.8300705  53.2286148
  71.9489822  53.0645256  39.3791580  72.8647842  53.1763573  39.6341782
  71.4523849  53.4968948  40.0739098  82.4318542  57.4901581  40.9413147
  82.7859955  56.9108620  41.6160202  83.0859756  58.1834335  40.8534203
  28.0885506  41.7559052  86.8972549  28.7764416  41.4230652  87.4736633
  28.2003613  42.7063904  86.9149246  69.2970810  38.2227097  86.1748886
  69.5180511  37.3929024  86.5977707  68.4789505  38.0447197  85.7109833
  61.5593834  62.7663536  26.7936325  61.6850090  63.0606155  27.6957741
  60.6558380  62.4514084  26.7680569  57.3245430  37.6162605  66.9564438
  57.5128288  37.6523933  66.0186386  58.1518364  37.8522835  67.3760986
  21.0035877  21.1822338   5.5711350  21.7199078  20.5651436   5.4217472
  20.7634239  21.0528564   6.4886403  16.9632835   1.4117408  12.8341713
  16.1148758   1.6075288  13.2317963  17.1780338   2.1962426  12.3295221
  46.3233910  64.9307404  10.8992596  45.7247849  64.4303055  11.4537573
  46.7478371  64.2720413  10.3495359   3.4462724  19.8601151  69.2293625
   3.7321210  20.7218952  69.5324478   3.9195967  19.2414455  69.7856445
  65.4307556   0.9616207  31.3898563  65.7071457   0.9720601  32.3062248
  66.1591415   0.5501726  30.9246693  38.8734283  63.1408119  61.2481728
  38.5601463  62.4414597  60.6745987  39.6468887  63.4871407  60.8031425
  86.6880264  59.1992493  10.0194407  86.8618088  58.3605080   9.5921841
  86.0603790  58.9901390  10.7112284  58.9764595   3.4272716  19.9455242
  58.7162933   2.8924251  20.6955147  58.1577797   3.6046653  19.4823513
   9.3690538  65.8846054  16.7713184   9.2976933  66.8193665  16.5780258
   8.7581511  65.4671402  16.1640701  59.4206963  50.8890915  20.2124500
  60.1709976  51.0435143  19.6384830  59.4652367  49.9554901  20.4189281
  74.7837219  41.1487885  43.3530464  74.8288651  40.2509499  43.0242996
  73.8934555  41.4344559  43.1479759  67.3109894  30.1640224  84.0418167
  66.4510727  30.5322647  83.8389130  67.6187057  30.6732006  84.7916718
  59.5843391   4.6700611   0.6897696  58.9932442   4.0622897   1.1341224
  59.2977180   4.6583767  -0.2234347  17.5429573  13.4271812  11.9306459
  16.6177464  13.5870981  12.1167717  17.8992825  13.0957470  12.7549133
  48.5022392  61.3102531  18.8458481  47.7488747  61.7841072  18.4935169
  48.4828949  60.4637489  18.3994331  42.6182861  32.1485443   3.8825169
  42.8442612  31.6823463   3.0776405  43.0202293  33.0112534   3.7805083
  22.4559612  52.6233063  23.6966362  23.3407669  52.4995193  23.3530884
  22.0497322  53.2457123  23.0934601  28.3429565  13.5522013  83.2674332
  27.9709930  12.9352102  83.8976669  28.1575432  13.1627226  82.4129410
  61.0483513  70.0435181  22.9259281  60.8757858  70.9597397  23.1427078
  61.7618484  69.7892151  23.5111465  69.3799591  67.7705460  32.6741486
  70.2266312  68.0194931  33.0448265  68.8709412  68.5811844  32.6738892
  46.9837837  30.9094543  35.1244965  46.6449966  30.3518410  35.8248711
  46.4245491  30.7155247  34.3722458  57.7945328   7.9205375  60.2821999
  58.3815193   7.9124999  59.5261497  56.9750481   8.2827692  59.9453506
  79.1999969  60.8356972  19.8106766  79.6859055  61.6431313  19.9785366
  78.5661392  60.7844810  20.5260963   1.8912786  48.3122101  72.5534897
   1.9599345  47.8801613  73.4048767   1.6300800  49.2094879  72.7606125
  47.2032738  12.3609734  85.1433640  47.9399185  12.5117350  85.7356949
  46.5638885  11.8843813  85.6727753  33.1560135   5.7358489   4.0369482
  33.8293152   5.2167377   4.4767451  32.9961891   5.2732625   3.2143285
  68.7840652  35.4617767   5.3323560  67.9354935  35.8157806   5.5985184
  69.1237717  36.1000557   4.7051144  61.0954018  17.0044212   7.2986946
  60.6454544  16.7271175   6.5006471  61.4468918  16.1948090   7.6691198
  60.2856598  67.9643097  74.0082321  60.5658951  67.1437759  74.4137268
  59.8962021  67.6989670  73.1750717  20.8914795  29.5892525   8.1278477
  20.6504917  29.4613800   7.2103481  21.6028004  30.2292290   8.1016951
  20.2423859  10.6274672  11.2989340  20.9068394  10.9157391  11.9247398
  19.9172554   9.8019171  11.6580830  85.2396088   8.9532394  72.0648727
  84.3604813   9.2621298  71.8458710  85.7346268   9.0425148  71.2504883
   2.4781706  56.5717735  28.1636524   1.8308320  56.6486816  27.4627457
   2.3257289  55.7033463  28.5362473  61.4519348  18.2025337  57.5347366
  61.7001724  18.4073505  56.6332626  60.6717987  18.7335491  57.6948776
  37.6195679  41.1812363   9.5259743  38.3032761  41.2075996   8.8565845
  36.8051300  41.3179207   9.0419922   6.3140035  52.0240326  74.0511169
   6.6864777  52.1887589  74.9173508   7.0182662  52.2448730  73.4416275
  20.8657970  29.9979744  67.3267746  19.9331818  29.7864494  67.2853165
  21.3078136  29.1682835  67.1465912  41.2501297  47.8885117  45.2766266
  40.7746391  48.5837135  45.7314148  42.1270714  47.9078522  45.6598129
  52.4761238  37.2631683  12.0063133  51.8338280  36.8464851  12.5808229
  52.7515373  38.0461693  12.4830627   2.0094335  18.0670681  77.6715546
   2.5479922  18.8312702  77.8769379   1.7369058  17.7297878  78.5249023
  58.6977081  13.8222990  77.8568039  58.5354614  12.9160862  78.1188812
  59.6450119  13.9302263  77.9416733  50.5160141   2.9282858   5.1388202
  51.2563744   3.1867485   5.6877246  50.9142456   2.6571038   4.3117132
  62.4107437  49.3956070  84.1993484  62.5360794  48.7264824  83.5264511
  62.8762550  50.1620750  83.8646011  77.4339447  53.7794113  76.8660660
  76.6094971  53.4797783  77.2491302  77.9724655  52.9901085  76.8092194
  72.8751450  65.1565628  59.8249931  72.9364319  64.8929520  58.9068527
  73.1425552  64.3794174  60.3156700  81.3242645  14.1930227  46.7727432
  80.4543457  14.5916958  46.7498131  81.7891388  14.6717978  47.4589653
  36.1172447  59.0940247  27.8474197  36.1365585  58.2230263  28.2439327
  35.2050858  59.3731346  27.9267616  70.7683334  18.8703175  74.4667206
  71.2332916  19.2599640  73.7263031  70.8714142  19.5054932  75.1753540
   0.0685789  23.8152332  16.1327019   0.5817860  23.1743546  15.6406403
   0.6152819  24.6008415  16.1456127  35.8689690  37.6257095  63.0563126
  35.1251678  38.0988655  62.6833305  35.8633728  37.8632965  63.9835396
  69.8401184  19.1283131  82.0028000  70.0942307  18.2057438  81.9798813
  68.9199142  19.1168156  82.2660828  20.6835747  43.4557991  12.0029402
  20.9106922  42.6030540  11.6321611  19.9584637  43.2718697  12.6001139
  86.4668274   5.8162832  21.8030090  86.2926254   5.0181088  21.3042049
  87.2943420   6.1433759  21.4502316  26.9952068  64.9313583  57.2150040
  26.3845654  64.2384338  56.9635963  26.9952812  64.9149094  58.1720657
  40.2388954  30.7672157  59.9423370  40.8221779  30.1134605  60.3278389
  40.5892220  31.6064930  60.2408600  77.6391754  37.7762680   2.9777288
  76.8751984  37.5594711   3.5121231  78.1542816  38.3686409   3.5254414
  76.5230942  15.5888891  77.4866791  76.3424454  15.7442808  76.5596161
  77.2113342  14.9236431  77.4883575  56.5835533  64.2518387  78.3134766
  56.3809395  63.4291115  77.8681717  55.7905960  64.4578781  78.8084488
  69.1006393  11.5254345  20.3769150  68.7378616  11.0638752  19.6208782
  68.5208130  12.2771044  20.4994850  14.3519106  12.9105625  80.4629135
  15.1033421  12.8027906  81.0459747  14.7172270  13.3077402  79.6723251
  45.9193230  33.1350517  57.8461266  46.5604286  33.0314560  58.5493164
  46.2923203  33.8103714  57.2795181  46.1170540  64.7511444  56.1264877
  45.7457886  64.0924149  56.7134056  46.4568481  65.4285965  56.7111511
  65.2557983  70.3415680   3.5342321  65.4506912  70.4012146   2.5989830
  64.3287888  70.5706024   3.6007955  18.7333698  41.5120506  21.7679424
  18.7179451  40.8058167  21.1220112  18.1925583  41.1892357  22.4887371
  13.8910971   7.9825377   9.4614420  13.1194305   7.7037315   9.9544220
  13.5490160   8.2354927   8.6039886  35.2589149  24.0847950  45.9983940
  34.6922379  24.4171906  46.6945381  35.9617271  24.7312813  45.9324837
  51.9778442  15.3686285  18.7943668  52.5424500  16.1389942  18.8575439
  52.4137383  14.8039017  18.1561565  28.5826836  62.1787415  65.7199554
  28.1023865  61.4156990  65.3985291  28.6838512  62.0201721  66.6584854
  57.3505974  11.1554604  58.8521233  56.5788765  10.6209745  58.6650238
  57.2633629  11.3866348  59.7768822  79.8817062  45.0065002  21.7373981
  80.4206619  45.7962685  21.7824440  80.4618530  44.3414459  21.3667717
  31.8799725  49.5272522  21.6829643  30.9341125  49.4403915  21.5644970
  32.2024994  48.6262665  21.7036991  56.6338501  65.9585190  34.2204971
  57.1769867  66.6897812  34.5145950  57.1936417  65.1886597  34.3213730
  60.2687035  30.9024372   5.2594104  60.6278954  30.2673016   4.6398840
  59.3529892  31.0001698   4.9983525  30.4086246  39.1897316  68.9727249
  30.8286743  40.0004234  68.6853790  29.7351074  39.4747925  69.5902634
  80.1241379   7.1072512  86.6329041  80.6440277   6.9920626  85.8374939
  79.3822174   7.6460581  86.3581696  18.9727669  47.5332603   3.0418894
  18.2557373  47.8500671   3.5911925  18.5767174  46.8491631   2.5020895
  79.6270828  67.9097977  73.7029800  79.8620834  66.9820251  73.7188950
  78.8369598  67.9659958  74.2403564   9.0812435  71.0658264  57.0637703
   9.7572899  70.7619476  56.4580879   9.5065184  71.0572586  57.9212646
   6.7227802  37.5891914  35.7109833   5.9223652  37.0648804  35.6851196
   6.8373146  37.8059654  36.6362495  69.0297241  38.4030914  37.4629898
  68.1141281  38.6435547  37.6047134  69.4847717  39.2395897  37.3658752
  14.9232788  67.5475540  48.8581009  14.4224110  66.9375229  48.3166046
  14.8366842  68.3901749  48.4123116  65.1550217  10.5214138  35.3000450
  65.7125702  11.2162523  34.9499321  65.6321182  10.1925278  36.0619164
   4.9440112  30.4689007  59.5717583   4.7169938  31.1775055  58.9696159
   4.5566368  29.6869698  59.1783638  21.0901203  12.5282383  74.8314285
  21.2463932  11.6126795  74.5999908  20.4516830  12.8326969  74.1865005
  82.3582764  27.1898422  81.1445312  82.6534653  26.6195469  81.8543625
  82.8183289  28.0158443  81.2938690  71.7578506  13.7838345  78.8811111
  72.1953049  14.2403822  78.1624832  71.4951935  12.9431934  78.5061874
  81.2453003  46.3394394  56.2257805  81.8615112  45.6165047  56.3435783
  81.1202774  46.6934662  57.1062737  74.7481308  68.0088348  78.3689499
  74.2721024  68.5176239  77.7126236  74.5479126  67.0971756  78.1567459
  74.4612503  61.8099327  35.1813736  74.2533646  61.9454117  34.2568932
  74.3358612  60.8711586  35.3199844  80.1387711   5.3964939  59.6184349
  80.5114746   5.6413126  60.4654236  79.4816666   4.7329912  59.8286896
  41.5829048  43.5940857  81.5687943  40.9625931  43.2475853  82.2101822
  41.3057289  43.2112083  80.7364426  49.0972061  11.5424204  32.9359932
  48.4688225  12.2222567  33.1792755  49.8644295  12.0246687  32.6277084
  81.6650543  23.4131756  19.8248711  81.8603745  22.4761257  19.8204937
  81.4983292  23.6273727  18.9069633  85.1209641  52.1909828  23.3294754
  85.1298218  53.1413116  23.2153454  86.0132370  51.9738617  23.5995655
  21.6363773  51.9798203  63.1380424  22.1493282  51.4051094  63.7062149
  20.7541599  51.9578362  63.5087738  84.7921143   2.6171675  34.8361588
  83.8781815   2.8335652  34.6514244  84.7664566   2.1727295  35.6835365
  72.5807037  38.2739525  36.9885979  71.8291626  37.9424438  36.4971428
  73.1797714  38.6017609  36.3178635  76.6662750  28.1237946  16.1120033
  76.6463165  27.2395802  16.4780617  77.0932770  28.6524963  16.7860775
  11.4346600  60.8972778  10.0356417  11.9750195  60.8228760  10.8222218
  10.5490656  60.6883354  10.3327932  57.5799179  53.0518227  72.5347443
  57.4088936  52.3038177  71.9624939  57.1213417  52.8409538  73.3480530
  60.7427025  57.3435631  23.3242664  59.9684334  57.9012184  23.2484169
  60.7639503  56.8504028  22.5041599  56.6492653  55.5543251  29.2901535
  57.4185333  56.0999832  29.4536018  56.9296761  54.9428101  28.6092358
  52.5917740   1.0558693  51.6921120  53.1486206   1.5401776  51.0825233
  51.7999039   0.8617457  51.1906242  20.6349163   7.2764487   9.5106497
  19.9793701   7.2564240   8.8134489  21.4708920   7.3555708   9.0511761
  70.2521362  61.2165260  10.1115389  70.8111343  61.5949669  10.7901707
  70.5046844  60.2937737  10.0802574   3.1531084  28.8184032  77.7901306
   3.2739551  27.8809967  77.6388168   3.7083147  29.2403870  77.1344604
   1.6452301  67.5672836  69.5835876   2.5066812  67.1822205  69.7444000
   1.0485964  67.0563278  70.1305618  17.2803898  29.5135765  33.6882057
  16.6590710  28.8979015  34.0769730  16.8987885  30.3756504  33.8538589
  41.7737846  13.1855516   1.5813310  41.6350555  13.2081661   0.6345075
  41.3881836  14.0018463   1.8994629  56.1115150  47.9035797  76.8117828
  55.4901237  47.8565140  76.0852203  56.3509674  46.9924965  76.9815521
  48.4347115  21.7695026  80.0388031  47.8038750  22.4340153  80.3157501
  48.9172211  22.1813030  79.3219757  14.5267735  13.4219799  12.3726912
  14.7772446  13.0147266  13.2019329  13.5736961  13.3383436  12.3430223
  37.6946678  43.8281898  64.6449127  37.4716797  43.6016693  63.7420311
  38.6153412  43.5816574  64.7333069  84.6292267  69.1404877  53.2343025
  83.7304230  68.8414536  53.0966377  84.8132629  69.7010040  52.4805222
  10.0481691  32.1154594  57.3256569   9.0940733  32.1917381  57.3150215
  10.2626152  31.9193439  58.2376785  57.6117096  18.2929916   9.3564281
  58.5155296  18.6019306   9.2939568  57.5353622  17.6346111   8.6658220
  86.1403732  16.9264240  66.2249374  86.5837555  16.4217491  65.5430679
  86.8412552  17.4181366  66.6529770  54.2638435  58.3700447  51.0830231
  55.1842003  58.6131706  50.9826889  54.2792625  57.6072350  51.6610489
  22.6774616  58.1754112  29.9602375  22.1071301  58.2100143  30.7281933
  22.1689091  57.6968384  29.3055840  84.3956757  41.3926201  76.6055222
  84.1026917  40.5323753  76.9061432  84.1280746  41.9933243  77.3010635
  75.9112244  65.0845642  14.1635895  76.3934555  65.2023621  13.3451691
  75.7404709  65.9747467  14.4712324   9.4236183  60.0853462  83.9478607
   8.5463238  59.7286530  83.8087387   9.2998400  60.7804031  84.5942383
  60.6447525  68.8795090  59.8208618  61.3714485  68.9097900  59.1985817
  60.4330978  67.9490967  59.8968430   4.6707273  16.2892857  21.7537880
   5.5308423  16.0254269  22.0806103   4.4007378  15.5703478  21.1824169
  41.7829285  54.7336197  21.2372055  41.9394608  54.5804138  20.3054028
  41.3566093  55.5899773  21.2708302  65.5489120  25.8276577  64.6846924
  65.6372299  25.4747181  63.7993317  66.4402466  25.8249874  65.0336227
  81.2126541  26.4501190  59.3360252  81.7506104  27.0415306  59.8623924
  81.7733002  25.6897850  59.1817665   6.9880371  50.2385826  65.4412003
   7.3387637  49.3658752  65.2634125   6.6744046  50.1912537  66.3443222
  61.7474442  49.6986084  58.7007637  60.9711266  49.2229462  58.4052925
  62.4621010  49.0676575  58.6147308  10.7793732   4.4433198  19.7142525
  11.1798277   5.0210357  20.3639545  10.0591421   4.0201378  20.1816025
  41.3635406  46.1650047  80.7711868  41.5368004  45.2549171  81.0119247
  42.0097046  46.3604240  80.0925751  67.8537674  41.0317650  31.3211975
  68.6365891  41.0491295  30.7706356  67.2616119  40.4252586  30.8765221
  30.2898884  62.4780502  10.2283659  30.6925220  62.8801003  10.9980879
  29.8160820  63.1936836   9.8045616   2.0748370   2.4895439  19.5871258
   2.5592875   2.2007668  18.8137264   2.7319589   2.5240951  20.2822723
   8.6090584  53.0183563  23.5698872   8.7902880  53.9477386  23.4297695
   8.2178020  52.9795456  24.4426079  56.9086761  28.2852268  43.0099564
  56.8169136  29.2365818  43.0622482  57.8538971  28.1369820  42.9814491
  27.6028500  23.6620350  71.6352005  27.1472893  23.2490139  72.3687592
  27.1283779  24.4803658  71.4887619  34.0808640  65.0513840  56.0442467
  33.3995781  64.9810333  55.3755684  34.4599342  64.1738052  56.0932083
  62.8801613  22.4509315   6.2306399  62.1992798  23.0874691   6.4484749
  63.3763428  22.3437996   7.0421543  44.3646965  33.0647736  61.4912224
  43.9794846  32.6239052  62.2485085  44.7076187  33.8869133  61.8415413
  43.6347275  36.5721321  76.8468704  44.1462097  36.5085182  76.0402908
  44.2895851  36.5936203  77.5446777  84.4066391  70.8784790  34.5510368
  83.8936920  71.1493759  35.3124352  84.0928040  69.9962845  34.3523788
  53.2441978  30.9200001  27.4917164  52.3012314  30.9015846  27.3282833
  53.6070557  30.2869091  26.8722324  55.0975914  60.4270859  30.5881081
  54.3962631  60.4116898  31.2393627  55.6885948  61.1173820  30.8888416
  53.6916580   3.2700963  55.0424805  53.2263069   3.2737496  54.2060204
  54.5459785   2.8890245  54.8396111  84.4513092  49.0677032  31.6776333
  84.8434296  49.3815727  32.4924698  85.1541061  48.5829849  31.2447815
  49.8857956  60.9596939   8.8212423  49.0827103  61.3580399   9.1568069
  49.6417580  60.6161728   7.9617825  60.9516335   8.8971748   9.6463509
  61.3069954   9.7853823   9.6785440  61.7145462   8.3298082   9.7572203
  59.1878395  19.3410740  72.6149673  59.1459236  19.7670574  73.4711304
  59.1745071  18.4045715  72.8124924   0.9322462  24.2025032  72.1082916
   1.4811130  23.7097721  72.7183685   1.4082572  24.1705685  71.2784576
  44.0136528  12.8911781  42.3280716  43.8937874  11.9759808  42.5816040
  43.6016426  12.9569912  41.4665909  15.7493086  29.4134083  86.7939911
  14.8673878  29.7682648  86.6820831  15.6248598  28.4645557  86.8146133
  48.7919960  49.9654732  46.4208260  48.7368088  50.5346489  47.1884384
  49.4026489  50.4124107  45.8346672  54.9463501   5.6851459  54.0407791
  55.0045738   4.7300420  54.0656433  54.0122108   5.8707318  54.1365509
  61.7935867   9.3711987  31.8382149  62.0614471  10.2736444  32.0116348
  61.9225769   9.2598724  30.8963013  70.2018738  12.4693079  35.0481949
  70.4659348  11.5836058  35.2972641  69.2722397  12.5138893  35.2718468
  83.4352036   9.1504221  13.6598425  83.5591431   8.2206955  13.4688473
  82.7894363   9.1658115  14.3662291  78.7199402  64.7612305  19.6259460
  79.2807541  65.5360489  19.5888195  77.8875504  65.0843430  19.9708462
  79.2467575  25.6841679  16.2012978  79.4567795  26.5580177  15.8718958
  78.2946320  25.6877136  16.2996273  49.9143982  18.4206142  78.4021683
  49.8366508  17.9589157  77.5672913  49.0139389  18.6456680  78.6361694
  85.3380203  47.6662178   0.3611235  85.4741974  47.9683876  -0.5368646
  85.9708405  48.1631470   0.8796083  53.2079201  71.3136368  20.1654015
  54.1185532  71.2106476  20.4417610  52.7983932  71.8135223  20.8715439
  16.5971336   1.6995308  81.7033539  17.2256985   1.0987569  81.3030930
  16.0000038   1.1318022  82.1905441  23.5954971  49.7694511  55.6286850
  23.8123951  49.7940903  54.6967087  23.5644722  48.8370247  55.8428116
  84.1354523  69.7614899  83.2789841  84.9186554  69.4277725  83.7165375
  84.4434891  70.0411453  82.4169312  36.3129578  24.7090149   5.3263340
  35.5976486  25.0701027   4.8027115  36.9379578  24.3773556   4.6816583
   6.5079494  39.0629883   2.3092632   6.9804249  39.3178101   1.5167580
   6.2686429  38.1480141   2.1616786  74.5612946  15.4584484  15.6546259
  75.1417084  14.7640028  15.9662275  74.2748871  15.1616249  14.7908564
  82.1097717  48.0170975  19.0189228  82.3134842  48.7472000  19.6034622
  82.8361206  47.9993401  18.3957615  71.7742615  61.5371666  12.5091209
  71.5699310  61.9419708  13.3521013  72.2811661  60.7571411  12.7345972
   9.9204416  40.7060738  59.9785919   9.0861855  40.2722931  60.1577110
   9.7429562  41.6355362  60.1229248  45.2154579  37.4735298  46.7154465
  45.3086777  37.4843102  45.7628593  44.9995079  36.5647888  46.9247017
  74.8151245  57.7847252  86.4814758  73.9589157  57.6317406  86.0817947
  75.0178299  56.9660759  86.9341965   1.6325190  26.6776276  31.5190792
   1.8482350  27.0934277  32.3538284   0.7881556  27.0561333  31.2740955
  60.9183273  21.5309162  40.5090218  60.5380058  22.3339958  40.1531372
  60.5417519  21.4556503  41.3858109  19.5726967  67.9941711  30.8092670
  19.2736473  67.1931381  31.2395592  18.7709465  68.4079819  30.4896011
  33.4759293  24.8371716  81.9337311  33.5164642  24.5764866  82.8538513
  33.4759674  24.0109177  81.4504700  59.7786560  36.9367981  73.9743042
  60.2700005  37.6288490  73.5317230  58.8733978  37.0678482  73.6922302
  11.5973911  69.8350601  48.4124222  11.2127342  69.5860443  47.5720291
  11.2068005  69.2302628  49.0432091   7.5270615  42.0698814  32.9563675
   7.3436441  41.3580666  32.3432503   7.7906585  41.6285515  33.7638168
  57.4057388  60.6984673  84.1730270  57.1531525  61.4866409  83.6921768
  57.3695259  59.9983711  83.5212708  -0.2073515  32.9643707  50.3540573
   0.6018093  33.2693176  50.7645454  -0.0398176  33.0332184  49.4141541
  75.9302979  24.1003551  62.2514992  75.4935379  23.7985592  61.4550056
  76.2904053  23.3047314  62.6433372  38.6219788   9.9125662  84.2950745
  39.1092072   9.0888672  84.3140259  39.2766075  10.5826445  84.4917603
  78.3405304   8.6794977  52.3920288  78.9504318   8.4355478  51.6957970
  78.8949432   9.0579987  53.0743675   0.9695616  35.4547729  25.9779129
   0.4285770  35.7358017  26.7158775   0.3833372  35.4947243  25.2222843
  48.8874664   4.4601998   7.2365174  49.1277466   3.7572582   6.6328869
  48.6116219   4.0076046   8.0335751  72.7652893  37.1839294  54.5828362
  73.0842590  38.0801964  54.6886406  72.7839661  36.8171349  55.4667740
  78.7664490  68.1425247  63.1526909  79.1729355  67.3978577  62.7094307
  79.0195770  68.9014206  62.6271057  30.8637371   4.4063401  34.6136513
  30.0438671   4.0983686  34.2273941  30.5905972   4.9804044  35.3292465
  86.2759399  66.0217514  26.0565071  87.0051193  66.4415588  25.6001148
  85.5019150  66.5040207  25.7657814  67.4052811  59.4784775  22.5887108
  67.8496704  59.2116737  21.7840004  67.6113739  60.4088593  22.6789532
  58.8257675  16.9980145  81.4425278  58.6831856  17.9443684  81.4247360
  59.7483826  16.8904171  81.2113647  14.1595545  39.8875275  84.8994217
  14.0658655  40.6503181  85.4700317  13.4427891  39.3071976  85.1557312
  56.6007538  14.0048552  31.0700684  56.9529762  13.2101326  30.6693363
  57.3387604  14.3769684  31.5528812  66.4395370  58.2173424  71.0135193
  67.0045929  58.9356384  71.2981033  65.9193802  58.0007782  71.7873154
  29.3841896   3.0679286  83.9343643  29.4806824   2.1787539  83.5933533
  29.8476219   3.6182044  83.3029709  26.6918011  44.6633606  76.8117752
  26.7842655  43.8652458  77.3320618  26.0565510  45.1919060  77.2948151
  55.3733597  24.8519001  51.8205719  54.5704422  24.3335648  51.7668839
  55.6254158  24.8082218  52.7429581  54.6537781  28.6510162   4.2359538
  53.8396912  28.3785458   3.8125725  54.9238739  27.8890457   4.7484775
   7.4082570  34.8087158  64.9121628   7.5566230  35.6650047  65.3134003
   7.5705132  34.9499207  63.9794388  53.0369225  59.5202484  40.2265167
  52.7367554  58.6118202  40.1967163  52.6195946  59.9352798  39.4716568
  44.4684181  67.0696106  64.8911896  44.2820282  66.4099808  65.5593033
  45.3600121  67.3599854  65.0834656   8.8613243  23.3120842  62.1598206
   8.9769707  24.2509956  62.0138664   7.9164333  23.1740322  62.0938301
  27.1871872  63.4183273  10.9778004  26.6892738  62.6972160  10.5926886
  27.8498878  62.9895096  11.5192537  23.4992561  66.7886810  45.4344788
  23.6930122  66.5373688  44.5314102  23.9073658  67.6484680  45.5366402
  61.7372589  45.4988670  85.3673019  60.7866096  45.4033546  85.4254150
  61.8730659  46.1035919  84.6378479  45.7310333  41.7466965  79.5984726
  46.6628227  41.8676109  79.7811813  45.4231606  42.6151237  79.3390884
  19.8930073  64.4653015  45.7809105  20.6520958  63.9795570  45.4583168
  20.0751858  64.6048126  46.7102013  74.0478058  65.7529144  62.3288269
  73.6557541  65.9129410  63.1872673  73.4890366  66.2324066  61.7171860
  45.6441536  29.5675411  89.0568008  45.5372314  30.5058384  88.9005890
  46.0983543  29.2453499  88.2782593  46.1617012  10.5156469  60.0666351
  46.7386589  11.0606804  59.5315781  46.4314270  10.6939335  60.9675751
  56.5158653  58.5521431   2.6107781  56.9596901  57.7268867   2.4153161
  55.9277191  58.3418503   3.3360994  47.0468941   4.2073607  86.5629578
  47.6569977   4.9369173  86.4545593  46.4561234   4.2757125  85.8129196
  37.7872353  15.4202080  19.7408257  37.1278534  15.4136438  20.4346561
  37.5001717  16.1114197  19.1441250  54.3353157  29.4451962  55.8230476
  54.0383873  30.1369171  55.2317886  55.1468658  29.7846584  56.2003784
  34.0598984  44.7115555  54.0784645  34.9307823  44.7694931  53.6854820
  33.4696045  45.0453720  53.4029236  81.9046631   9.6676769  74.4747543
  81.4710770  10.3477983  73.9593201  82.8329239   9.8992662  74.4442825
  46.9257278   8.3574514  83.5088882  47.6539917   7.7664738  83.7002182
  47.3439598   9.1589622  83.1944122  59.4330444  51.0849838  33.8080711
  59.0002670  50.9663887  32.9625702  59.5142212  50.1992950  34.1619034
  35.2185173  16.3963966   3.1127775  35.9906998  16.0514011   2.6645045
  35.5230331  16.5907192   3.9991992  41.8856163  39.3823128  11.9517412
  41.8622627  39.1630669  12.8832016  42.5052338  40.1094818  11.8923054
  77.2180557  66.0044327  25.1110878  76.3678970  66.1321106  25.5319939
  77.0485306  66.1489182  24.1801662  66.7449188  17.5073357  55.4791794
  67.4740982  17.0574398  55.9059296  66.4433441  18.1433964  56.1278038
  39.0579147  46.1861954   4.4512358  39.2259407  45.9277382   5.3574352
  39.8185081  45.8663864   3.9660029  21.0243549  58.0081520  32.2619133
  21.1422367  58.5650482  33.0314636  21.1685963  57.1189041  32.5854225
   9.1086760  36.2712059   7.2937384   9.0926676  35.3586540   7.5822239
  10.0067892  36.4119377   6.9940391  56.9626923  11.5523863  45.0592995
  56.8966599  10.7967339  44.4754677  56.1683540  12.0580473  44.8873444
  53.2473984  28.1773815  77.3993073  53.7119904  28.9976883  77.2335281
  53.6796112  27.8088131  78.1697464  83.6112518   6.6899824  42.0960426
  83.3749771   7.2783618  41.3789520  83.3962936   7.1807389  42.8892517
  28.1409531  69.4442596  -0.0728000  28.0791130  70.1879044  -0.6723015
  27.9134045  69.8071365   0.7832209  85.8331833  63.2317429  55.5519066
  85.8968353  62.5182762  56.1868439  86.2672043  62.8944206  54.7682762
  72.5145721  35.0576210  41.0694656  71.9925995  34.8404427  40.2970619
  73.4182053  34.8875618  40.8034439  86.2501450  33.6205902  23.6885986
  86.5168915  33.1655807  24.4873753  85.5891418  33.0496140  23.2970695
  60.4297943   7.9572439  54.8737907  60.7868271   7.1599889  55.2651291
  61.0645752   8.1978331  54.1989555  84.4647064  47.4058800  74.0863647
  84.5739594  48.3462181  73.9447327  83.5847092  47.3195305  74.4529572
  41.0318375  71.4967041  26.3627167  41.8988228  71.6782379  26.7255077
  40.9234810  70.5509567  26.4629784  35.8727112  55.2127151  66.4867935
  36.3496590  55.8349037  67.0360031  36.5474625  54.8085213  65.9412918
  63.1685448  37.5758667  25.0544395  62.8284950  36.8253708  24.5672493
  64.0859985  37.6381607  24.7886887  58.5119553  58.5895042  80.8840866
  58.7467270  58.0665398  81.6506500  58.9613571  59.4241638  81.0167923
  75.1778870  67.2989655  36.2563744  75.3028793  66.5320129  35.6974602
  76.0133667  67.7642593  36.2149162  17.9474201  64.1707306  20.0729046
  18.8135853  64.5717163  20.0008278  18.1205730  63.2794647  20.3760490
  34.3267174  61.5210800   7.7667174  33.6716576  61.4867859   8.4638195
  34.1855850  62.3696823   7.3469658  82.4046555  41.9265709  24.2253437
  81.7380295  42.5692139  24.4679394  83.1923752  42.4467773  24.0668449
  70.6845474  64.5338974  45.6911278  70.1237411  64.3552322  46.4459839
  70.3850479  65.3828430  45.3658371  30.2298565  69.0346909  39.3997154
  29.7587318  69.2908859  38.6068497  29.5442696  68.7518082  40.0048409
   1.0542488  43.4946404  52.3767204   1.5440613  42.6772614  52.4673271
   0.4441983  43.3298492  51.6577530  44.0606995  38.9645882  54.3452225
  44.4440155  38.0880508  54.3765907  44.7209320  39.4990768  53.9040375
  79.6368332   0.3544597  54.1243477  79.5221024  -0.1022333  53.2909813
  80.5657272   0.2484515  54.3296585  45.7013702  35.9468117  17.9198208
  45.6998024  36.8461609  18.2475471  44.8936996  35.8758926  17.4110279
  55.2214966   9.6360502   6.6321735  55.0094032   8.8393755   7.1185441
  54.5201225   9.7158718   5.9856973  15.5036221  28.4161835   0.6397350
  14.6166887  28.0593853   0.6874298  15.6538982  28.5602856  -0.2945473
  85.6879959  51.5878868  57.3543129  85.4531631  50.9055977  57.9832573
  86.6313934  51.7036247  57.4675903  48.2569313   8.6700602   2.7962205
  47.4071846   8.5376902   2.3759317  48.3819160   9.6190462   2.7901216
  55.4784698  60.0217400  86.2893295  55.3894272  60.9322472  86.5708923
  56.0743523  60.0595703  85.5411835  22.2280369  71.0675964  65.7572937
  22.9504490  71.2001190  65.1434631  21.5066109  71.5800552  65.3923874
   2.7383623  43.6311913  45.1248627   1.8611807  43.8940010  44.8460846
   3.3258235  44.0582542  44.5013733  36.0441628  11.0070057   9.8249931
  35.8954887  11.3114529   8.9297619  36.0671692  10.0528116   9.7527637
   6.6790118  26.8469849  41.5525970   6.6245227  27.7626476  41.8261337
   5.8447332  26.4653778  41.8257027  30.6153889   7.3209572  88.6392822
  30.5536137   7.4974599  89.5780411  31.1801472   6.5506268  88.5770645
  68.2845612   9.0099916  14.2048225  67.3481674   8.9215994  14.0270958
  68.4660568   8.3452044  14.8691635  65.3915710  34.1463547  41.2501411
  65.4374771  33.2163239  41.4718781  66.2766876  34.4743958  41.4088707
  39.3610344  42.1723747  22.2225971  39.7110214  42.0493965  23.1049881
  40.1360397  42.2498055  21.6661758  62.9115829  63.0377655  69.6306076
  62.1172066  62.5239563  69.4850006  62.6136208  63.9473572  69.6209869
  42.7910805  39.5452423  45.9030495  42.5028992  40.4516487  46.0108032
  43.7456741  39.6009636  45.8596916  60.2441750  60.8254089  30.5545883
  60.7354698  60.4005089  29.8515110  60.0061226  60.1113129  31.1458836
  86.6883621  40.1518669  58.2727509  86.1039276  39.5879250  58.7793427
  86.1920624  40.3621674  57.4817429  83.6578369  48.1828499  56.4461899
  82.8190994  48.1602097  55.9855003  84.3091507  48.2890778  55.7528343
  11.7066212  44.5208817  39.9601135  12.0613184  45.1920280  39.3770294
  10.9687586  44.9476280  40.3956375  80.3293304  24.7507725  22.0191307
  80.4861298  24.5300865  21.1010113  81.0339432  25.3587322  22.2430401
  63.7962837  28.7905636  51.0998917  63.8743134  27.8850155  51.4001007
  63.6477852  29.2959118  51.8991432   1.5794359   6.4613652  35.2471428
   1.8971574   7.3641419  35.2638588   1.8887993   6.0832958  36.0703011
  12.6096754  29.0416222  61.5106773  13.4027891  28.9387169  62.0366173
  12.0475130  29.6126652  62.0342369  81.2027740  66.7141876  71.1494064
  80.8469925  65.9598694  71.6191559  80.4578094  67.3067322  71.0486374
  59.4227066  62.1854782   3.1987276  58.5309753  61.8700333   3.3455091
  59.3153076  62.9570618   2.6425321  76.0512848  50.3986206  54.1134186
  76.2991257  49.9366951  54.9143105  76.8659515  50.7938347  53.8030052
  66.5738831  54.9416618  64.7220993  66.6389465  54.1518860  64.1852036
  66.1613312  54.6462135  65.5337296  35.5044746  65.9359283  58.1649399
  36.0439796  65.2387238  58.5378571  35.0067940  65.5072403  57.4686852
  28.5757370  55.0278206  74.3366470  28.5909157  54.8764305  73.3916168
  27.6980858  55.3679390  74.5106659  64.1591339   2.3115442  17.5347843
  64.5795364   2.1704123  18.3830624  63.8746948   1.4397298  17.2604370
  33.0203323  67.8487320  12.4479208  33.3041115  68.2914505  13.2477350
  32.9287987  66.9304352  12.7020550  21.8181267  70.9558868  56.3965874
  22.0415955  71.4238663  55.5920410  21.2458992  70.2445602  56.1088448
  70.0267487  22.1379166  69.9304352  69.5663910  22.8779430  69.5346298
  69.4764938  21.3800545  69.7327042  24.6251163  59.7338104  33.5446701
  25.0652599  60.5499039  33.3069839  24.8055420  59.1426926  32.8137398
  44.4978867  48.9367714  35.0880737  45.0768776  49.6277084  34.7662010
  44.2770805  48.4268913  34.3086510  48.7441025  61.3487320   6.1727166
  48.0332336  61.0414772   6.7352934  48.7467270  60.7385178   5.4352450
  14.0658436  38.2073212  81.9833527  13.2932148  37.6625023  81.8335190
  13.7161160  39.0893440  82.1096802  43.1887321  49.9591141  30.4920635
  43.7258301  50.6481247  30.8832397  43.3469391  50.0371780  29.5512600
  74.2664108  56.1518517  68.3745728  74.2398987  56.3069229  67.4303894
  75.1576004  56.3887444  68.6312637  57.0945778  11.8086777   5.5263481
  56.5860863  11.2324104   6.0969501  56.7123032  11.6837502   4.6577325
  53.3955956   3.3529389   5.6481633  53.3461647   2.4012613   5.7381501
  53.8922310   3.6404824   6.4142618  20.4074097  14.5345650  20.4814243
  21.0494480  14.4195738  19.7808571  20.1968098  13.6439276  20.7618599
  49.9169083  64.3195953  56.0109634  50.3121452  65.0332108  56.5117378
  49.4697418  64.7551880  55.2853394  59.5215912  10.1170397  45.5478630
  60.2513123  10.7231445  45.6758270  58.7719536  10.6813049  45.3584442
  17.7528000  66.1206360  76.2327576  17.4128895  67.0135498  76.2910614
  18.2207718  66.0965271  75.3981018  26.3806744   3.4606063   9.2737427
  26.4922523   2.6226916   9.7228317  26.7313042   4.1084785   9.8849325
  45.8944206  22.4267635  51.1598740  45.1969872  22.9713955  51.5248260
  45.5504684  21.5346718  51.2056808  55.5119934  62.1200256  43.5756569
  55.8983650  61.2762794  43.8102646  55.2974014  62.0351753  42.6466904
  50.5644455  66.3808441  27.7782116  50.0544968  65.8434753  27.1720581
  50.9812012  65.7499237  28.3651466  32.0098763  68.2316055  29.2981033
  32.1446609  67.3431320  29.6277657  31.0724010  68.3890457  29.4102764
  10.4013453  38.7726440  24.8804607  11.2172880  39.1666145  25.1890945
  10.6347246  37.8669548  24.6767654  46.4010887  68.0295486   8.9749537
  45.8338776  68.4373169   8.3205605  46.5970650  67.1640625   8.6161222
  30.6968861  29.9948215   5.5440359  30.6136742  29.6965275   6.4497552
  29.8204498  30.3013153   5.3113313  19.5735264  31.2513485  17.8894138
  19.4051151  32.1914787  17.9528694  20.5176620  31.1676044  18.0229263
  34.8084221  57.2053947  62.0350990  34.4031448  58.0169830  62.3405647
  34.1298981  56.5403252  62.1513557  47.8363228   9.0944471   8.9602089
  48.6622543   9.3931847   9.3407650  47.3652115   8.6967659   9.6924219
  81.7468262  70.3003998  44.8628387  80.8571091  70.6477509  44.7997665
  82.1794662  70.6036224  44.0646439  83.4605713  45.7811203  24.7211075
  83.3020020  45.2274818  23.9565334  83.6707230  45.1654091  25.4232216
  58.1746101  53.3737717  16.4453468  58.2203674  54.2973061  16.1979160
  57.7490997  52.9473190  15.7014980  39.2024612  24.2202473  56.7677002
  40.0498543  24.6521549  56.8754730  39.2313271  23.8532848  55.8841095
  44.5249329  59.3221359  65.7942200  44.3199005  59.9057159  66.5247192
  44.7388878  59.9106598  65.0702744  13.7318163   4.4316430  81.1402206
  14.0256214   3.5446026  81.3477554  12.8054342   4.3319464  80.9208832
  46.6840057  62.0654640  32.1182518  47.1215630  62.1285133  31.2692509
  46.3731270  61.1611633  32.1609116  41.8857384   2.2785516  54.0362930
  41.3192101   1.6805831  53.5487328  41.4002266   2.4671273  54.8393784
   6.8601527  69.5130997  75.7735367   6.1905856  70.0155182  76.2377472
   7.3776731  70.1729355  75.3119888  59.8719292  21.3484364  26.1365967
  59.5341301  20.8299332  25.4063358  60.4868393  20.7645588  26.5806694
  23.6576462  68.4034348  26.7465744  22.9242020  68.2975464  27.3524437
  24.0238857  69.2612991  26.9614658  32.8710403  49.0510674  39.4082985
  32.4068336  49.8369560  39.6966171  32.3440208  48.3253632  39.7427139
  57.0877495  55.3362732  36.5414276  57.3257790  54.4117546  36.4719048
  56.4205246  55.3608894  37.2273102  59.1645775  44.5908012  85.0543213
  58.6777763  44.3272095  84.2734375  58.7414017  45.4010849  85.3382034
  72.9276505   6.3112593   2.4045534  72.6983337   7.2330832   2.5224013
  72.8961334   5.9418950   3.2870550  45.3148499  54.6202812  45.4765816
  44.8362122  55.2906265  45.9642067  45.9218636  54.2468643  46.1155815
  27.4895802  31.4241924  18.2922726  27.8853931  30.7107811  17.7916622
  28.1579227  31.6666126  18.9331970  11.9362144  53.8973923  52.2883606
  11.9271774  53.2949982  53.0321808  11.9042912  54.7680283  52.6848564
  39.9413528  14.6290140  16.7463722  39.9458923  15.5854845  16.7834644
  40.0629082  14.3535061  17.6549702  48.0601654   5.5881662  14.1623182
  48.0738411   6.4454145  13.7366772  48.5071564   5.7280803  14.9970961
   8.7287064  25.3127708  11.0491066   7.8017049  25.3524132  10.8138857
   9.1396418  25.9959965  10.5194197  26.4549007  50.7442093  64.1610870
  27.2889442  50.4362640  64.5157318  26.2306957  51.5025597  64.7004089
  77.2712936  26.4337177  25.5394497  76.8400726  25.5886765  25.4122276
  78.1934357  26.2633514  25.3474693  20.8976746  60.4977379  18.0795898
  21.6128826  59.9748878  18.4419899  20.1029587  60.0470428  18.3651276
  42.6687317  61.4701691  13.6270151  43.1601601  60.6498032  13.5854349
  42.3972588  61.5406227  14.5422039   5.9182715  52.0956764  17.3402004
   5.8258514  51.1480751  17.4389267   6.1001735  52.4120674  18.2250957
  35.9130554  30.5266762   3.8135402  36.1562576  29.9217052   4.5143218
  36.4870377  31.2822647   3.9394765  27.9534245  39.6842041  34.7108459
  27.9666767  40.5827599  35.0404778  28.6036243  39.2245865  35.2420921
  72.9195862   4.2723475  68.8588715  73.5395813   4.8936915  69.2406693
  73.4306335   3.4735622  68.7284698  56.8456001  10.6839647  36.3342247
  55.9087296  10.5457468  36.4735222  56.9403191  10.7425022  35.3835258
  72.2335663  14.9962778   0.1475933  71.3585205  15.0536432   0.5312981
  72.6556396  15.8206692   0.3893946  60.7893982  23.6077328  24.5503197
  61.5500984  23.7219906  25.1199780  60.2233849  22.9995480  25.0256824
  38.8590813   1.8368323   3.7699533  39.7532349   1.8042897   3.4298658
  38.3096771   1.9252672   2.9911287  50.7378998  49.3439407  48.3405762
  50.6216812  48.3938255  48.3371811  50.2779388  49.6386948  49.1265678
  70.6147766  35.0427055  32.5597801  71.3593292  34.7072067  33.0590935
  69.8834305  34.4792824  32.8126068  75.1562881  54.5681343  26.7977638
  75.0265350  55.4717941  26.5100327  74.8959503  54.5703392  27.7188778
  76.6304398   9.1216698  15.9587250  75.6898880   9.2985907  15.9761133
  77.0262070   9.8892183  16.3716049  77.3725204  40.4201012  89.1753235
  77.8653488  40.3387032  88.3587952  76.9893951  39.5535164  89.3112488
  70.8080597  69.7236099  70.4977570  70.1687546  70.2115250  71.0168533
  71.5218735  70.3443985  70.3517303  85.3152618  17.9420471  21.0433483
  85.8500748  18.3528786  20.3640690  84.8262482  18.6663227  21.4338856
  63.8530159  63.8263626  21.1068935  64.0869141  62.9920425  20.7001591
  64.5181046  63.9582291  21.7825394  40.0024910  55.2776489  45.6820984
  39.1774712  54.9410477  45.3324165  40.5496445  55.4200630  44.9097137
  69.7857895   9.8038425  40.0107079  70.6627274   9.6492014  39.6595802
  69.9009399  10.5192165  40.6361771  47.3956184  50.6947975  59.0031013
  47.0089493  51.5562477  59.1600380  48.3376122  50.8336296  59.1011124
  22.1092567  10.4958439  67.3899841  21.5831909  10.7290459  66.6250687
  21.4791298  10.1328382  68.0123978  62.5996971   7.9766564  78.1373291
  63.3724327   7.5806818  78.5402145  62.3660736   7.3779602  77.4279556
  42.8894386  62.8072510  67.0064926  42.4702950  63.2624016  66.2761612
  42.3827362  62.0016861  67.1091690  61.1643753  42.2987328  38.2516975
  60.3941994  42.0280342  37.7519150  61.9072266  42.0315247  37.7103958
  85.8532257   9.6169720  39.9029350  86.0615158  10.2740631  40.5670700
  84.9225311   9.7470551  39.7209244  45.4884644  66.8656082  29.5129356
  45.5548096  65.9448090  29.2600403  46.2340202  67.2860031  29.0843925
  41.9157600  52.8865700  38.0346107  41.8910561  52.3635597  38.8359108
  41.4501610  53.6920013  38.2598534  18.6426220  52.6042442  52.7879448
  19.4748020  53.0704880  52.7084274  18.0269165  53.2654076  53.1041756
  38.6195145  36.2184982  78.0787735  38.1635780  36.5965309  77.3268127
  38.8614311  36.9727631  78.6161652   4.1679492  50.0879097  61.0161858
   4.7594151  50.8403358  61.0321770   4.4386840  49.5867424  60.2469215
  20.4954510   4.9171500  34.0151825  20.0967770   4.4045024  34.7183762
  20.0433674   4.6284714  33.2223930  74.1600189  54.3699722  40.2864037
  74.2963104  55.2718849  39.9962234  74.5102005  53.8339348  39.5748787
  42.8850365  62.8727646  71.8663864  43.0696678  63.4897881  72.5744934
  41.9692459  62.6263466  71.9961166  48.7810974   6.4598556   4.1872115
  48.2328911   7.0210671   3.6388102  48.2361145   6.2636566   4.9492698
  15.4384136  21.3049984  69.0568619  15.1718540  21.9156895  69.7440567
  14.6150236  20.9793663  68.6932297  43.1967545  65.8385315  77.1478653
  43.0651398  66.6458130  77.6450577  44.0410957  65.9596939  76.7135391
   7.5099568  59.0556374  50.2587166   7.6817040  58.1140251  50.2687874
   7.9121904  59.3810921  51.0640221  14.0779266  28.4786949  79.1123505
  13.3118324  27.9107838  79.0298386  14.4366436  28.5272312  78.2262344
  20.6202984  41.1362648  55.9323502  21.3092880  41.0573349  55.2725792
  19.9059200  40.5934906  55.5987511   5.2913742  44.9222527  71.8704605
   5.4321733  44.0751495  71.4475861   6.0846314  45.0673141  72.3861465
  79.5490036   2.6721559  67.7658005  79.8566589   3.5206299  68.0846634
  78.9987411   2.8847647  67.0119858  66.2646637  19.1923332  25.8322792
  66.6072311  18.2985649  25.8247871  65.3515472  19.1011410  25.5599880
  54.5217934  43.3217850  33.2330360  54.4657249  44.2272453  33.5383759
  55.4609680  43.1449661  33.1790123  26.9299278   1.4204276   3.5806496
  26.9837971   2.3641818   3.7311759  26.0380154   1.2790356   3.2632656
  56.1758423  29.1408215  34.7376976  56.7382469  29.4744873  35.4366989
  56.3629189  29.7070179  33.9889259  43.7434349   7.0076518  71.7476349
  43.2789612   7.2848139  70.9579010  43.0583420   6.6609359  72.3191833
  59.8449554  40.0967865  88.9727325  58.9827003  40.3935318  88.6817245
  60.4249802  40.2863617  88.2352600  57.2793121  15.1958532  16.0339031
  57.5806503  14.3859682  15.6221828  57.6894722  15.8922606  15.5210514
  82.9048157  42.8178596  88.3065643  82.8052979  42.3330231  89.1258621
  82.2400360  42.4467812  87.7263947  68.4268265   0.6012475  13.0580721
  67.6541748   0.9593847  13.4950829  68.1206970  -0.2136759  12.6600561
  70.5479889   6.0004525  55.5209579  70.2638702   5.3694339  56.1822586
  70.2831726   6.8507357  55.8718452  84.3870163  13.0724020  33.3323135
  84.8688202  13.8991737  33.3089256  84.5052567  12.7014637  32.4578667
  82.7101135  61.4608383  16.6916199  82.8130264  62.4018593  16.5497646
  81.7775497  61.3468056  16.8747845  38.5447159  63.1027946   3.7594666
  38.2009048  62.4958649   3.1039805  38.7504845  62.5498886   4.5132461
  27.3213024  66.1531525  60.6636620  27.3221645  65.2606277  60.3177795
  27.9972191  66.1480179  61.3414116  84.0620041   7.4328909  37.2072639
  83.8534622   8.1005058  36.5537872  83.3167725   7.4445944  37.8078728
  52.5416374  61.9595184  70.8889313  52.0718193  61.9596481  71.7229004
  53.4597092  61.8384628  71.1312485  59.2373962  36.5004807  38.4035988
  59.4992142  36.5779076  39.3210335  59.8130035  35.8241653  38.0465164
  82.2493820  56.9575653  78.2521210  81.3981628  56.7138214  78.6157837
  82.5367584  57.6959152  78.7892380  12.0781307  36.1560059  18.4269161
  12.0895929  35.2786484  18.0443649  11.5028057  36.0779762  19.1879292
  24.8632526  66.8575821  73.9159088  24.5999680  67.4228516  73.1896973
  25.2368679  66.0839005  73.4939346  74.1494446  32.1561661  16.6631336
  75.0743713  32.3634071  16.5297050  74.0535431  31.2637653  16.3304882
  83.6022720  29.0850124  45.3584938  82.8443985  28.6522217  45.7516212
  84.1553650  29.3223019  46.1028175  61.9748230  19.9268589  16.3749142
  61.4554787  19.3127518  16.8939362  61.6273155  19.8435669  15.4869213
  50.1820335  16.8561535  53.2783470  50.6280975  17.6030579  53.6775894
  50.8756828  16.3775921  52.8244057  78.0477219  65.7087555  43.8792572
  78.3511276  65.5294724  42.9892921  78.5236664  66.4971466  44.1403008
  20.9334469  58.1955528  58.0774384  20.1353607  58.6365585  58.3686447
  20.9972286  57.4215965  58.6370392  60.3592186   6.4289651  76.0023499
  59.5386772   6.9171014  75.9340591  60.4620399   6.0124326  75.1466827
  52.1234322  17.4466801  76.2635422  51.1789055  17.4093800  76.4142456
  52.2127342  17.8576756  75.4036942  29.5544777  33.9038887  77.5083389
  29.2779884  34.4082680  78.2734451  30.3046150  34.3867798  77.1614380
  16.2370529  65.4539566  73.7349243  16.1220093  65.2092743  74.6531372
  15.3492069  65.6206589  73.4184265  11.2261572  33.5944138  49.9750328
  11.0812502  32.6930542  49.6873055  10.8448019  33.6300468  50.8522606
  41.0248222  54.2724342  48.6745033  41.3337822  55.1067581  49.0276070
  41.7080536  54.0047646  48.0598717  15.3348904  26.9444294  83.6500168
  15.6524420  27.8426380  83.5572205  14.9175863  26.9256973  84.5112610
  73.3391571  41.0633354  10.0822029  73.8657837  40.5829124   9.4433842
  72.5060425  41.2189026   9.6372919  57.5077248   7.0059314  85.5772095
  56.6547318   7.1348772  85.1624680  58.1178246   7.4987054  85.0284119
  51.5011215  32.9382210   2.6321170  51.6366615  33.8853798   2.6046481
  50.9731636  32.7945023   3.4175076  41.9653397   3.6279964  82.1290054
  42.8179970   3.1930413  82.1335831  42.0596962   4.3466477  82.7541962
  34.9996109  65.0515976  10.6965904  35.7529488  65.5331879  11.0383301
  34.9792595  65.2687607   9.7645702  41.4894142   2.4523923  85.1966705
  42.3505402   2.8522453  85.0749512  41.4107170   1.8287694  84.4747696
  55.2243576  54.8477173  87.5511398  56.1566086  54.6573677  87.6555939
  54.8667946  54.7870407  88.4369736  55.6762924  49.2155876  79.1911240
  56.1929016  50.0165749  79.2792816  55.6781235  49.0315704  78.2517853
  34.8105850  13.7200136   4.8610148  34.5878448  14.2348080   4.0853829
  35.7479897  13.8681688   4.9857287  72.0669403  69.2885056  20.3227577
  71.9610367  70.2300797  20.1869087  71.6006317  68.8868027  19.5896645
  20.7743111  66.8294525  86.4916229  20.1616955  67.5459595  86.3256378
  21.0737991  66.9734879  87.3892822  48.5671310   4.9118547  51.2766914
  49.0047722   5.7449865  51.4515991  49.1724930   4.2489491  51.6088448
  83.5192413  67.9261017  60.0494003  84.4225082  67.8691330  60.3610001
  83.0156860  68.1859283  60.8208618  35.2709961   3.7847974  15.6262989
  34.4910583   3.2299180  15.6203022  34.9334221   4.6736603  15.5158596
  84.9518356  43.9681702  29.2164669  84.7457504  44.4728775  30.0032539
  84.9602280  43.0575790  29.5114002  73.8674240  60.5556564   6.5946035
  73.1214828  61.1527290   6.5370636  74.0818863  60.5294762   7.5271015
  23.2870560  44.3054848  23.2750797  22.5150375  44.8490753  23.4323254
  22.9379578  43.4955139  22.9031754  75.0390167  40.6379852  51.1206436
  74.1412201  40.3110580  51.1782112  74.9562149  41.4918785  50.6960907
  85.7345657  59.7514458  87.7478104  84.8815994  59.3344650  87.6261826
  86.0893555  59.8337135  86.8626022  20.4773502  24.7669678   4.7117443
  21.2620564  24.2540054   4.9049745  19.8674049  24.1365299   4.3286667
  77.1928864  11.0014477  48.3064919  76.7560272  10.2431574  48.6942863
  76.7330017  11.1458035  47.4795074  84.7857590  67.2185593   8.3821650
  84.4656143  67.3720627   7.4932480  84.0436630  66.8224792   8.8389435
  19.3130627  38.2029190   4.1459055  18.4918442  38.0547409   3.6770000
  19.1091385  37.9949188   5.0577078  39.9366379  69.6965485  68.3237991
  39.4172325  69.5134125  69.1066818  39.8234596  68.9209061  67.7744293
  85.6192398  65.3164444  12.4402332  86.2967987  65.6696548  11.8636971
  85.3457565  66.0626907  12.9736643  55.0084038  27.5226154  38.7353935
  54.2467766  27.6741123  39.2950439  55.5216904  26.8635254  39.2026901
  14.7330360   1.4621145  19.6477242  14.0401850   2.0759804  19.4040890
  15.5237265   1.8213228  19.2452183  43.5609970  66.6458740  47.0906944
  43.2516556  65.9492798  47.6697350  43.3529243  67.4552994  47.5573578
   5.5148044  53.4904442  66.3124313   5.8308539  54.1605568  66.9184799
   4.5917602  53.3781815  66.5396347  62.6366196  69.1311951  57.4259949
  62.8358879  69.1940613  56.4918823  63.2304573  69.7572861  57.8402443
  79.5629730  40.4082603  54.8895264  79.2678528  40.1869659  54.0062599
  79.4341736  39.6047020  55.3934479   1.1681513  33.8632812  70.5952682
   1.0901085  34.7772064  70.3216324   1.1856316  33.3686180  69.7759781
  29.5314426  26.7796535  12.8922367  30.3661003  27.1993961  12.6839304
  29.6388378  26.4654331  13.7899914  53.8799248  44.9867325  68.5724716
  54.7834930  45.1163940  68.2844086  53.7107468  45.7177963  69.1667404
  58.9392738  34.8445892   0.5942321  58.0826035  34.7588158   0.1759133
  58.9526253  34.1537094   1.2566049   4.1824903   3.6436169  15.0408955
   4.0811691   2.7059700  14.8772364   5.0445700   3.7237179  15.4491053
  53.9675026  15.0880327   7.8142304  53.8985214  14.2700138   8.3064890
  54.5074387  14.8662491   7.0556059  23.9733829  43.7931786   3.4231091
  24.7252235  44.3812370   3.4949117  23.8453121  43.6820869   2.4810433
  83.5521011  65.7793274  46.6986389  84.0154037  66.0384674  47.4951439
  82.7027130  65.4640274  47.0074539  44.5403328  36.8637772  74.2752075
  43.9269485  36.3670006  73.7337265  44.3087349  37.7796021  74.1207352
  30.6331310  22.0457821  85.3357391  30.9598045  22.9204178  85.5467606
  30.2875462  21.7129040  86.1639862  19.5717201  26.7577477   6.6124272
  19.6730824  27.4958458   6.0114532  19.9144917  26.0062313   6.1287313
   8.0908403  66.8191376  44.6957741   8.8856058  66.5183105  45.1363220
   8.0641251  66.3174744  43.8810043   6.0052423  27.3709373  78.7706146
   5.2577477  26.9459839  78.3500214   6.6206336  26.6581364  78.9421997
  40.3109932   2.5949941  67.6197128  40.3466873   1.8835591  68.2591019
  39.7597198   2.2558124  66.9145279  80.0208969  57.9255905  25.5404053
  79.9866867  58.0837440  24.5969810  79.8847275  58.7879295  25.9329109
  86.7005768  48.6786842  55.7912102  87.2901917  49.0496101  55.1347046
  86.3045197  49.4401398  56.2149467   5.5252824  65.9864731  16.6113091
   5.7691855  66.2310638  17.5040112   6.3321257  65.6420441  16.2284184
  51.8716812   8.0736151  43.3282089  52.3706131   8.6210423  43.9345284
  52.3940201   7.2763505  43.2400932  44.9847717  13.3114109  80.9870834
  45.2625160  12.4063873  80.8455811  44.8289261  13.6544771  80.1071701
  80.7416763  24.7802963   8.4877377  79.7989120  24.7868576   8.6532488
  81.1376572  24.8704262   9.3545189  33.3367653  43.7333107  39.7714691
  33.6054420  42.9109459  40.1810532  33.0959320  43.4884148  38.8780174
   9.0482979  47.6537132  28.6377048   8.7695446  47.8796616  29.5251026
   9.5398245  48.4188118  28.3389435  78.5983505  31.0396576  12.2369585
  78.6455688  30.1899490  11.7987833  77.8197861  30.9806709  12.7906647
  68.8654861  52.5388641  77.7745972  69.7045364  52.6468430  77.3267441
  68.6713638  51.6047211  77.6975861  45.6201744  66.7575150  68.8336716
  46.3744087  66.2687302  69.1629944  45.5063972  66.4460144  67.9357529
  12.7569237  51.5173607  81.8576126  13.0434389  50.9813919  81.1181030
  12.7328901  52.4095497  81.5116959  83.7119370  16.3759651  55.0364418
  83.4970703  16.8615818  55.8328323  84.2634048  16.9743881  54.5324516
  81.7457657  68.0618896  48.2139626  81.0418320  67.5250244  47.8499718
  82.5274811  67.5145493  48.1393204   4.8149810   6.7493176  71.9157867
   5.2582049   6.9829192  72.7313919   4.9792380   5.8118320  71.8139420
  41.3575439  25.5246620  65.0682220  41.8771362  26.3133144  65.2240524
  40.5929947  25.8337021  64.5822296  41.5480461  69.8346558  44.9617081
  42.3443031  69.5691528  45.4218292  40.8595963  69.7824097  45.6246834
  50.3576584  60.3495102  30.0562534  50.2496948  59.4090195  30.1978607
  50.9861488  60.4128456  29.3370762  60.6483459  36.0565033  76.3681564
  61.0817871  36.9042854  76.4662323  60.0479584  36.1781235  75.6326447
  -0.2423881  24.7156754  32.6488533   0.1478971  24.8315964  33.5151520
   0.3454944  24.1075535  32.2007294  38.4986038  48.8725471  39.0895424
  37.8205795  49.5442047  39.1629219  39.1030006  49.0629578  39.8069572
  82.1565933  50.9909172   1.3409166  81.4790726  51.6613045   1.4291192
  82.6731033  51.0653648   2.1433558  12.1509752  58.5422745  76.1123505
  12.1895237  59.4921227  76.0003967  11.4325829  58.2631569  75.5446930
  81.1218033  35.3489609  63.2885323  81.7701492  34.7005424  63.5632057
  81.1697235  35.3454704  62.3325386   7.0438428  51.0696678  31.2225494
   6.8926730  51.3547401  32.1237221   6.8248525  51.8340340  30.6896152
  61.3187294  55.5523682  82.8133087  62.0148849  55.9074821  83.3660278
  60.6778030  55.2011337  83.4314423  78.9514923  45.4400330  72.4316330
  78.6357803  44.5690613  72.6723938  79.8677979  45.4476013  72.7083435
  29.6733742  34.4970512  62.4522133  29.3569736  34.4080925  61.5532074
  30.2993774  35.2202339  62.4153481  24.2582836   1.0619419   3.4168370
  23.7996616   1.5509871   2.7336586  23.9752254   0.1558631   3.2938299
  54.3490715   8.5482874  17.6397762  54.1069489   9.2570009  17.0436764
  54.7855949   8.9877377  18.3695450  46.0596008  48.1096344  79.2104721
  45.8903580  49.0508614  79.2514877  47.0132980  48.0393677  79.1686096
   9.3232450   3.0358341  57.8546638   9.9017763   2.3346691  58.1544991
   9.1957207   2.8590200  56.9226189  19.1251373   8.2996254  67.1717148
  18.4388008   8.5514250  66.5538406  18.7599525   8.5053854  68.0322571
  37.1785164  39.2928581   3.0670445  36.4965286  38.6481934   3.2555504
  37.1454506  39.4056892   2.1170931  74.8142242   3.8848228  85.4046860
  74.0238876   4.1523743  85.8737335  74.5144196   3.2099152  84.7957153
  45.1767998  47.0467453  72.8319321  46.1250572  46.9573975  72.7367859
  45.0075264  47.9767189  72.6811676  60.8471832  48.2151337   4.4868550
  61.5283089  48.5222321   3.8885331  60.8351173  47.2653198   4.3687806
  68.0642776  42.2527046  74.1806641  68.4108963  43.1346855  74.0457687
  67.1891403  42.2775078  73.7937012  25.1248951  22.4821320  87.8784027
  25.9381008  22.1717930  87.4801331  24.9881458  23.3500252  87.4985428
  69.0927200  12.8173733  76.9698715  69.9571228  12.4153109  76.8839645
  68.5004883  12.0813713  77.1241226  25.1914959  29.1680756   7.9718366
  25.7053223  28.4542694   8.3495884  25.2765198  29.0498009   7.0257850
  35.8724747  45.7467842  72.0482025  35.1101227  46.0132484  72.5620575
  35.5080757  45.2309914  71.3288956  52.0003891  22.0957394  32.0218506
  51.5153160  22.3355503  32.8114281  51.8847809  22.8420944  31.4337864
  46.4791489  27.1736145  52.9189262  45.7253113  27.6912556  53.2017860
  46.1229782  26.5665073  52.2702370  52.3657913  17.5933819  86.9382629
  52.5974998  18.0883923  87.7240753  52.8348122  18.0347958  86.2301559
  81.6193848  36.0404282  56.6902313  81.5180588  36.9412270  56.9976845
  81.1231689  35.5156860  57.3184433  69.3090668  50.7247391  14.4711008
  69.2732773  50.4174538  15.3769312  68.8650970  50.0415573  13.9687128
  56.2986069  34.6491699  51.0378151  56.4754906  34.1920891  51.8600235
  57.0866241  34.5105820  50.5124092  35.3184166  21.9629192  72.0308151
  34.3800850  22.0566177  71.8665237  35.5302353  22.6816807  72.6264191
  59.4079666  63.0400810  20.6930084  59.3084946  62.0887794  20.7299080
  60.2346649  63.1766853  20.2302551  63.0208740  26.2285671  25.5190353
  62.9547920  26.9735489  24.9216499  63.8577805  25.8191013  25.2995987
  81.1233063  28.9850845  28.9793015  80.4686432  29.3888588  29.5490570
  81.2585373  28.1131115  29.3502560  67.3120728  58.6188240  36.0971222
  67.9536057  59.2837143  36.3472977  67.7584381  57.7859306  36.2496719
  10.5541344  53.2862968  74.3758163  11.1032171  52.5429192  74.1265640
   9.8548107  52.9011116  74.9038391   8.0205069  43.8903580  88.4688110
   7.6017056  43.5341530  89.2523651   7.3620625  43.7944832  87.7807083
  11.6277418  13.8344765  11.0711441  11.5014725  14.7149372  10.7174826
  11.7100010  13.2755184  10.2984657  44.3959808  23.1029644  36.3126869
  43.5413361  23.0583935  35.8839340  45.0162926  22.8215942  35.6401711
  52.3134727  15.4647369  51.9504623  52.4373207  14.5648594  52.2523155
  52.2904091  15.3961697  50.9960022  65.6486282  67.3941650  18.6797142
  66.5178757  66.9933701  18.6790848  65.1290970  66.8403397  18.0969639
  17.4757328  61.1347084  43.3111649  17.3805008  60.2383080  42.9892616
  16.7317677  61.2577820  43.9007416  48.7885437  47.5427856  82.5675125
  47.9055214  47.3381767  82.2598724  48.8796043  47.0469093  83.3811722
  54.7481918  26.9184017   6.3953857  54.1993484  26.1808128   6.6617775
  55.6447983  26.6027603   6.5080862  26.5760727  65.8253021  37.9934883
  26.4477749  65.8471375  37.0451775  27.5167370  65.6875000  38.1048088
  83.7570801  37.6312752  54.2677574  84.4224701  37.1763916  54.7840576
  82.9547577  37.1310425  54.4169998  71.0863190  34.3620949  53.2122269
  70.6406174  34.3669739  54.0593147  71.9524384  34.0000992  53.3993835
  40.5988197   0.6621940   6.9789648  40.9434547   0.0405529   6.3378549
  40.3470650   0.1202445   7.7267218  15.5612316  46.9824028  66.8217316
  15.3894510  47.0542488  67.7606506  15.2294207  46.1168518  66.5830841
  34.3822899  49.2595215  25.7027740  34.1067734  49.2993774  26.6185989
  33.9467087  48.4812279  25.3552704  44.9720955  42.8249550  18.5030384
  44.6784592  43.6625977  18.8613205  45.9272232  42.8654671  18.5512218
  36.8602295  38.9505997  83.8697052  36.4212837  39.1449814  83.0415955
  37.7848511  39.1293869  83.6984253  45.9933472  52.0521469  74.4274216
  45.6717148  51.8253479  75.2999725  46.9466820  52.0350761  74.5116425
  81.9513855  23.6831722  84.0328445  82.3787994  23.7624722  84.8856430
  82.1262436  22.7824593  83.7601242  30.0833797  54.7862167   5.5427222
  30.5926800  54.0339851   5.8443723  30.4581795  55.0023537   4.6888838
  74.2497940  42.6202126  49.4902382  74.2007141  41.9026375  48.8586464
  74.1615448  43.4123230  48.9601364  64.0643921  19.6013546  85.4881744
  64.8211288  19.5146732  84.9084549  64.4016266  19.3817883  86.3566742
  63.7327423  39.8206978  18.3642082  64.2412109  39.4764252  19.0984879
  62.9689789  40.2287025  18.7721691  85.6485748  62.5364571   2.7004423
  85.0764160  62.2447357   1.9906759  85.2105713  63.3081932   3.0593393
  54.8327713  68.3953552  78.5452957  54.0236549  68.5221481  78.0498352
  55.5251236  68.6864090  77.9518585  39.7943344  54.4717903  57.9980087
  39.9548950  53.6577835  57.5206718  40.3097954  54.3848915  58.7998695
  30.4233875  55.9201126  44.2211189  30.9907284  55.2794571  43.7922630
  30.1651936  56.5185699  43.5201073   5.0573373  17.2617741   4.9062767
   4.8143096  17.0324268   5.8032541   4.2907615  17.0275269   4.3830929
  84.1127625  50.8124161   3.3753090  83.9161301  50.2659531   4.1361933
  84.4515762  51.6270218   3.7466035   1.4729669  15.3463402  78.2893066
   0.5493362  15.5948906  78.2524109   1.8041523  15.5239925  77.4089737
  72.8704834  42.4984703   6.8994803  73.6790085  42.5259590   6.3878469
  72.8035583  41.5898438   7.1929903  85.5664902  37.8412132  50.8841629
  86.1680298  37.4555969  51.5210953  84.7683945  37.3184395  50.9614601
  82.7424545  35.0805969  73.0199280  83.6464081  34.7759171  73.0991669
  82.6046677  35.1792412  72.0778503  21.6366272  27.8260174  73.8208084
  21.6128769  27.2506561  74.5854187  22.5690060  27.9504414  73.6435547
  49.1143456  61.8158226  12.8861141  49.2301979  62.5912895  13.4351664
  48.5996933  61.2152977  13.4253139  56.3772049  25.5638866  58.4182205
  55.6267128  26.0061970  58.0215416  56.9186630  25.2978039  57.6750793
  23.2048054  71.0236282  18.5448608  22.6401596  71.5339508  17.9643631
  23.8209572  71.6629257  18.9024811  68.5291443   7.6456614  50.1289330
  67.8866272   7.1845636  50.6681862  69.0889740   6.9528613  49.7784309
  72.3282547   9.8722973  78.3245544  72.6380920   9.1431084  77.7874146
  73.0577011  10.0620136  78.9145889  56.7637062  32.5707359  34.9652290
  55.8856850  32.5525551  34.5844612  56.8413315  33.4452515  35.3465767
  -0.0759409  34.4019279  35.9176407   0.0228336  35.0450287  36.6197052
   0.4092911  33.6359901  36.2244301  28.0113964  56.7668037  59.7999458
  28.4532585  57.3428802  60.4237404  28.5077438  56.8676300  58.9877205
  23.2937908  44.3865433  15.1351204  22.5960369  43.9865761  15.6541548
  22.8349915  44.9400101  14.5031319   7.5905795  47.4979095  14.3314867
   7.5931277  48.4459457  14.1993856   7.6348104  47.3883209  15.2813635
   9.2867651   0.9558011  60.3771896  10.1449213   0.6626769  60.0707932
   9.2696762   0.7187020  61.3044014  76.3383102  13.8546343  32.7069969
  76.0356522  14.7203417  32.9811897  76.8975143  13.5579119  33.4249687
  68.5890884  53.9885101   0.9958552  69.0947266  53.5589180   0.3059189
  69.1711197  54.6712036   1.3296211  34.6388168  68.8107834  63.7748642
  34.2279091  69.5055389  64.2893600  35.0616417  69.2688065  63.0484619
  57.3750114   3.4590068  74.4990463  58.0435028   3.7568462  75.1160049
  57.2752151   4.1861148  73.8845596  44.9339943  19.8818073  51.0910339
  44.6565666  20.0327282  50.1874352  45.0789032  18.9370384  51.1424675
  62.8387451  49.8561554   6.7959762  62.1006889  49.4965668   6.3038378
  62.9890442  50.7177086   6.4069095  39.3194733  39.4972801  12.6090260
  39.5999985  38.9118080  13.3124189  40.0722351  39.5411606  12.0194006
  68.2947540  30.8867931  37.2862549  67.7769089  30.4221764  37.9436722
  68.0651703  31.8080730  37.4077797  19.5983906  12.3463888   2.7366021
  19.8383923  11.4386110   2.5506685  19.5080547  12.7517033   1.8741685
  74.9558258  41.9718285  60.8612556  75.8208618  41.9894104  60.4518280
  74.4041443  42.4930687  60.2779961  32.2228127  60.0256920  45.3971901
  32.2223015  59.1001396  45.6412926  32.4325142  60.0269623  44.4632454
  32.1658897  56.1617165  36.3397102  32.3224983  55.2999077  35.9537125
  31.2125149  56.2437401  36.3637161  14.3880777  40.6555824  47.4365578
  14.4834757  40.5009651  48.3763580  14.2245150  41.5959053  47.3639221
  60.3760567   6.2621293  58.6247749  61.1477814   6.1872482  58.0634651
  59.7891121   6.8489666  58.1479645  32.6390762   3.0424700  77.2171402
  32.9626617   3.4179354  78.0360184  32.6454697   3.7736235  76.5994034
  15.3959427  56.3983231  24.3638229  15.8471642  55.6146469  24.6776352
  15.6824532  57.0931816  24.9565430   3.4882195  26.6087456   3.2875440
   3.9731920  26.9644070   2.5428708   2.5810678  26.8701210   3.1294584
  74.1265335  19.6626263  47.6560173  74.4125366  18.7499790  47.6171875
  74.8279419  20.1519279  47.2260857  41.5270042  69.3865585   6.9175339
  41.0320702  69.0125656   6.1885614  41.2044830  68.9215851   7.6895547
  75.2350922  37.7853584  56.6029434  75.1967392  36.9779816  56.0901985
  76.1650925  38.0108070  56.6255074  81.6744690   7.7427673  51.1123695
  81.3413696   8.6319551  50.9914398  82.0161133   7.7345161  52.0064850
   1.0666176  50.9348450  21.1221237   0.8082100  50.3376198  20.4201412
   1.9714879  51.1693611  20.9161034  60.9591751  48.6234245  62.5242538
  60.3095970  48.3247452  61.8878021  61.0628128  49.5570946  62.3405418
  81.1698303  28.5058231  46.1815224  81.0627365  27.7541294  46.7643776
  80.3228836  28.5921898  45.7439537   5.2278786  60.7217636   4.8366070
   4.4882360  61.3240585   4.9165907   5.0186520  60.1857681   4.0716457
  51.0337334  34.1428452  84.3056030  50.6606522  34.2751999  83.4340973
  51.8162766  33.6130943  84.1532211  61.6930656  36.3409767  83.3857574
  62.2896004  36.6541328  82.7058182  61.0154457  35.8625488  82.9080811
  48.0734367  59.7335167   3.9754364  47.1787682  59.4139214   3.8585427
  48.6215973  58.9565582   3.8654995  21.9895363  44.9471893   9.2446785
  21.1917477  44.4360542   9.1086502  22.6716347  44.2919502   9.3917656
  71.8369293  20.3527870  72.3821106  71.5272369  20.3186035  71.4770432
  72.2766418  21.2000580  72.4529648  25.6024055  39.4385490  74.7800369
  24.7149696  39.7542725  74.9503479  25.4979534  38.7986794  74.0758362
  55.1939812  13.5906744  44.5974159  55.0508881  14.1568003  45.3558731
  54.3333015  13.5216913  44.1842537  22.8799858   4.0616722  33.2439537
  23.4226456   4.3447957  33.9798851  22.0660343   4.5556216  33.3425903
   9.4044313  18.4593086  68.2491913  10.2227726  18.9276581  68.0842743
   9.1402569  18.1290245  67.3904953  22.4087219  23.2718525  88.7709198
  22.9845810  22.6402683  89.2018738  21.7769203  23.5194359  89.4460220
  11.7408915  11.1594639  15.5806465  12.3472958  11.4368362  16.2673569
  11.7217875  11.8938608  14.9670277  12.8036814  30.3708858  58.9644814
  13.4312449  31.0922394  58.9192429  13.0984726  29.8431473  59.7066574
  80.8648758  49.0285225  36.3607368  81.1494217  49.8403320  36.7805367
  80.4000244  48.5530128  37.0492363  15.2450180  44.2800407  36.5675888
  15.5270405  44.1830826  35.6580315  14.5201578  43.6618805  36.6607895
  70.1712570  20.6678162  12.6290579  70.3579483  20.2110481  13.4492645
  71.0287170  20.7867012  12.2205725  34.5266762   8.1459932  68.0396194
  34.5404167   9.1028671  68.0604935  33.5990067   7.9183688  68.1016617
  16.9345837   5.5287180  22.5179691  17.7717991   5.9914360  22.4834232
  16.6403503   5.6331773  23.4228153  24.6102390   5.4691434  73.7810440
  24.6849518   4.8215771  74.4819717  24.3641548   4.9593229  73.0091858
  50.8134232  19.3814392  84.5167313  51.7176170  19.2079296  84.2548981
  50.4512558  19.8998070  83.7981491  82.8139725  29.1599522  26.9708900
  82.7809677  28.5750561  26.2138958  82.0263062  28.9480724  27.4718018
  61.5321159  19.3596153   4.3314109  60.6350555  19.6769123   4.2272949
  61.4335976  18.4426365   4.5876880   8.8415480  13.7045212  75.2471619
   8.1368046  13.4468536  75.8414459   9.0422983  12.9088049  74.7544479
   5.9653344  63.6578751   8.5871124   6.4710097  63.6320648   9.3994293
   6.5346880  63.2457008   7.9373579  74.9571228  60.5951691  28.1816521
  75.3276672  59.8932800  28.7167034  74.2804031  60.9859428  28.7344437
  54.5670586  66.0997391   7.0025826  54.8417397  65.3329086   7.5053329
  53.6857567  65.8833847   6.6980705  34.3295021  60.7426605  43.3892937
  33.6182518  61.1385460  42.8856812  34.7379227  60.1253052  42.7824211
  78.1548080  32.0764236  36.0360336  78.4448929  31.3084202  35.5438461
  78.4932098  32.8212395  35.5390816  61.1291389  11.4810457  82.8498917
  60.4546738  10.8914366  82.5127106  61.8118286  11.4725981  82.1790009
  48.0272484  29.3666191  56.6324654  48.6151314  29.0013256  57.2936630
  48.0082932  28.7076130  55.9385033  85.3965759  55.5109444  39.1380577
  85.9628296  56.2801552  39.0756607  84.8887482  55.5209160  38.3267326
  51.5178909  40.4982376  26.9245777  51.4873238  39.5416069  26.9372635
  51.3992424  40.7538147  27.8393650  53.3267822  31.6910534  71.4282303
  53.6721878  32.5826111  71.3829269  52.3925095  31.7864532  71.2431107
   9.8200884   2.5363631  83.3296204   9.0003996   3.0105851  83.4691086
   9.6639433   2.0145478  82.5425034  77.8666534  55.8999481  67.6178513
  77.3460617  56.7029152  67.5965881  77.5169754  55.4073830  68.3603668
   0.4553718  50.2501488  46.5706558   1.0715503  49.9845161  47.2532921
  -0.2322355  49.5847473  46.5965462  43.8976059  42.7388878  84.7395172
  44.3983917  42.8382111  85.5491943  43.6037292  43.6252975  84.5293961
  60.9486656  48.8675842  50.1969872  60.4427452  49.2031288  49.4569283
  61.7810059  49.3380432  50.1510735  69.4170456  30.8831158  29.0050430
  69.3021851  30.0357304  28.5749550  70.2399445  31.2213345  28.6519432
  68.4575806  38.2867241  76.9224091  69.1509857  37.7518692  77.3088760
  68.7033615  38.3681450  76.0008926  54.9792595  70.9711075  80.3296585
  54.0968666  70.6002426  80.3381195  55.3121834  70.8173370  81.2138290
  11.6673775  44.7061081  49.4885139  11.1838951  44.4764404  50.2820702
  12.1958370  43.9312477  49.2973251  15.8798389  36.9081841  80.4018173
  15.1317701  37.3898544  80.7548370  16.0643654  36.2371445  81.0589981
  16.2923393   3.2072277  55.6656036  16.1768093   3.9942000  55.1331024
  15.9088221   2.5045328  55.1408501  23.1432362  64.7470322  51.8464661
  24.0149746  64.6050949  52.2154617  23.0040054  65.6913986  51.9173279
  14.8153296  15.8000736  50.5345993  14.8781147  15.4649878  51.4290276
  14.1108322  16.4471073  50.5701332  30.1613522  63.1775284  57.3298302
  29.5780811  62.4520226  57.5526886  29.5739727  63.8804474  57.0521240
  28.2128258  61.1482201  23.0111217  28.3985023  61.5466995  22.1608448
  28.5854607  61.7580338  23.6479130  80.1509476   8.3860359  71.3328171
  79.7969284   8.2324142  72.2087784  79.4728622   8.8926916  70.8859024
  59.3691826  41.0760193  71.1811829  59.8717308  40.4663658  70.6408157
  58.4575615  40.8133354  71.0540009  48.8650436   6.7024074  47.7461472
  49.1640625   6.2533345  46.9554787  49.5713005   6.5698481  48.3784904
  73.8834839  43.3201637  46.4288521  73.1472931  43.8409271  46.1078262
  73.6094894  42.4123077  46.2986336  32.9249573  33.2749557  76.7068100
  33.5367851  32.5500946  76.8351669  32.5572891  33.4348145  77.5760040
  44.0503654   2.5364618  52.1434860  44.8636398   2.8283262  51.7316246
  44.2558937   2.4962873  53.0774994   2.8186510  13.3492928  85.0036011
   2.3870316  14.1645069  85.2592621   2.6030266  12.7340918  85.7045059
  67.0712738  12.1781807  39.8955269  67.2530289  11.2384119  39.9012871
  66.3133163  12.2720041  39.3185272  39.5200119  71.3175507  83.8839645
  38.5998421  71.5810089  83.8735199  39.9412079  71.8931427  83.2455902
  78.6361771  31.9006023  38.8588371  79.1452637  31.5701389  38.1186676
  77.8969574  31.2966480  38.9297905   3.2544115  41.2405968  65.9922409
   2.6697359  41.4805374  65.2733383   3.2854288  42.0205688  66.5462418
  63.0478134  71.0163269   7.5827560  62.9420624  70.0890350   7.3701797
  62.6220360  71.1169510   8.4341202  86.7529526  48.4597130  19.4489002
  86.3006287  48.6103172  20.2789345  86.0494080  48.3374634  18.8114796
  48.8239670  26.4254818  41.1879082  49.4795609  26.7621078  41.7987328
  48.2782440  27.1839771  40.9802895  57.9841576   5.5204978  64.9734497
  58.2674751   5.7414083  64.0862350  57.0706520   5.8039536  65.0107193
  69.6722946   4.7097960  13.1497641  70.6237869   4.7030854  13.2539663
  69.3658676   5.3529305  13.7890701  72.2659073  70.1341629  10.7734394
  71.6008911  69.4496155  10.7001524  72.1221237  70.5160599  11.6393013
  59.6885147  21.9404335  19.0622482  59.9756508  21.9672909  18.1495247
  58.7908821  22.2721386  19.0408039  78.3865738  16.6169109  22.7743111
  78.3429413  16.3846283  21.8467484  78.7776260  15.8511105  23.1948528
  50.9219055  34.9877357  33.2262154  50.2803726  35.5703735  32.8197708
  50.9735565  34.2377625  32.6336708  56.6610756  17.8811111  17.6315517
  55.9375343  17.3000450  17.8662529  56.2940369  18.4643745  16.9672375
  11.7346325  70.7586212  55.7446022  12.5439081  71.1444855  56.0798798
  11.8152924  69.8251495  55.9404411  38.5636482   9.3802147  76.4739609
  37.8969307   9.6653328  77.0988007  39.3954163   9.5845366  76.9013367
  24.7298889  51.4325600  20.4961319  25.1225586  51.9045753  21.2304668
  24.9604225  51.9526711  19.7263451  16.2327347  53.9739532  41.1203613
  15.9409542  53.4854622  40.3506393  15.6127777  54.6996689  41.1926575
  80.0978394  29.6152687  55.7505836  79.4638290  30.0296230  56.3358841
  80.6703110  30.3303432  55.4727745  20.5063515  41.6521225  51.8611526
  20.4675694  42.6004944  51.9849243  21.4066353  41.4177818  52.0865440
  68.9640884  49.7043343  19.9458866  69.3703842  49.8207588  20.8047237
  68.4943695  48.8730850  20.0138435   8.4000826  38.2821426   8.9135895
   8.6658106  37.6096153   8.2864323   8.2524958  39.0627098   8.3795786
  55.5698738  46.8587227  73.8810577  55.0792770  47.6453209  74.1194077
  56.2640381  47.1753540  73.3030396   0.8487778  70.6131134  40.6368828
   0.8175840  71.5308609  40.9070587   1.2581066  70.6318893  39.7718201
  66.1955795  69.7093735  73.1016464  65.7883987  69.6323318  73.9644852
  66.5903015  70.5813980  73.1000748  27.9816265  28.8049965  84.8832550
  28.4049015  27.9980927  84.5900421  27.0885353  28.5404835  85.1038284
  71.2826996  60.3354797  37.8562088  71.7654572  60.7919159  38.5452995
  71.1793747  59.4431915  38.1869278  70.6013412  48.7794876  82.8533478
  71.5163498  48.7395630  83.1315536  70.2064133  49.4396744  83.4229279
  69.0020828  55.8605499  63.6831245  69.0911713  55.5718994  64.5914078
  68.0579681  55.8674927  63.5255318   4.8902164  49.4357796   6.9628811
   4.9073486  48.6177483   7.4596357   4.4847035  50.0679245   7.5563326
  83.1552734  25.9405155  83.2181931  84.0139084  25.8176804  83.6230164
  82.7033691  25.1083431  83.3578568  11.2655134  31.2986317  51.9459305
  10.8718777  32.1709480  51.9645348  10.7271919  30.7801399  52.5439339
   3.3523936  27.2952461  61.5779228   2.4769025  27.4265728  61.9419289
   3.7517102  26.6365471  62.1461601   0.8792496  13.1736622  58.7535820
   1.8300493  13.1697645  58.8640175   0.5709357  12.4558687  59.3067055
  65.1280746   4.3689713  60.6802673  65.4939346   5.2463627  60.7923546
  65.3180084   3.9230289  61.5056725  58.9519730  53.7992668  58.4798050
  59.3247910  53.9518623  59.3481140  59.6985283  53.5365677  57.9414024
  16.6204472  29.5351887  83.1956863  16.2894325  29.4772930  82.2994156
  16.0575790  30.1844597  83.6174164  55.5593300  69.3931503  69.1977005
  54.9648895  68.9252930  69.7842026  55.7592468  68.7622528  68.5061569
  76.7631454  35.4217339  72.7503815  76.2123260  36.2045555  72.7454758
  77.5319290  35.6665878  72.2353592   7.4936409  55.5892601  23.5866528
   8.1595020  56.1553154  23.9770889   7.0857739  56.1303558  22.9105663
  75.7247925  51.3882828  33.0919113  76.1836395  50.6087456  33.4049835
  75.0759277  51.5731430  33.7709045  58.9515800  58.0883865  83.3808441
  59.7125702  58.4797974  83.8097076  58.4756165  57.6531029  84.0881119
  72.0239487  51.9361191  24.0317249  72.8799515  52.2622452  24.3094501
  71.4541473  52.0863647  24.7860336  34.9762039  30.8245583  14.5801382
  35.9082909  30.9226742  14.7746096  34.5734329  31.6188850  14.9309330
  45.5041885  27.2892437  23.5577965  46.0113869  26.6239243  24.0229130
  44.7782173  27.4926872  24.1475506  53.0419807  60.6679611  73.8949432
  53.5080070  60.5360794  74.7205734  52.3838882  61.3336220  74.0950546
  32.6676636  68.7769547  43.6021271  32.2497635  68.7994308  42.7412643
  32.7748756  67.8449402  43.7920723  18.1888885  68.4460068  54.0486069
  17.6566105  69.0462418  53.5264702  18.2613564  68.8715057  54.9029655
  23.4817238  67.4953766  52.9018364  24.3792343  67.5418396  53.2313042
  22.9445934  67.3792419  53.6855659   0.5942563  63.4901810  83.5854263
   0.6514154  63.0868683  82.7192230   1.3372840  63.1277313  84.0678864
  17.6001854  33.5042267  53.0043678  17.4347744  32.7985878  52.3791084
  18.0486794  33.0772362  53.7342720  47.8822250   9.1036272  88.6850662
  48.6933327   9.5959368  88.5587234  47.6091347   8.8608227  87.8003616
  31.8691216  60.8547783   6.0286093  32.7058792  60.5580292   6.3863916
  31.3321266  61.0415878   6.7986560  66.8970642  16.7012787   4.6478271
  66.8395691  17.5759258   4.2632265  66.2304001  16.1924515   4.1864214
  78.4120712  11.0455132   9.4950647  79.1426849  10.9543276  10.1067133
  78.2169342  10.1497574   9.2197895  37.4441757  27.6532612  83.6694183
  36.6138039  27.9228325  83.2769394  37.5796394  26.7599487  83.3533936
  36.0002213  43.3853149  35.7951355  36.3037567  42.7507553  36.4443130
  35.2853050  42.9396896  35.3406601  49.0681496  11.2621164  18.7000160
  48.1410675  11.2720680  18.4619942  49.2006454  12.0788479  19.1812935
  25.5914688   4.8976974  87.2994919  26.0490780   4.0811276  87.0993881
  26.2640648   5.4619069  87.6809540  19.6071091  61.6460304   9.5999756
  20.1258163  62.4346237   9.7590313  18.8769836  61.9448891   9.0579128
  85.5773544  29.4096947  50.9157104  86.0132217  29.1907082  50.0921211
  85.4783478  30.3613758  50.8886299  42.4119987  61.0623131  53.2065544
  42.4666557  60.3829651  53.8786621  41.5051041  61.3659668  53.2461166
  44.3150063  50.3961639  61.9501953  43.7786598  49.9406967  61.3012619
  44.1660728  51.3252373  61.7744865  82.6013489  38.2299042  62.0563202
  81.8202438  38.0087013  62.5634460  83.0867844  38.8357849  62.6162186
  21.4438019  53.3649712  21.3774090  21.7608376  53.7838135  20.5772266
  21.4479752  52.4292564  21.1757889  66.5603104   7.4762897   0.4411717
  65.6195221   7.3907557   0.5955396  66.8791733   6.5747108   0.3997138
  66.7668228  56.9063988  17.9556999  66.1804733  56.2046661  17.6728554
  67.4751892  56.9006844  17.3119469  22.9827232  17.9830704  75.5047150
  23.3358727  17.4396229  76.2091141  22.1511154  18.3097134  75.8481750
  64.4187241  13.5706272  11.4980516  63.5385284  13.2663279  11.2769308
  65.0007019  12.8988953  11.1426516  59.4193840  48.0262947  56.9533386
  60.0907478  48.2440300  56.3067360  58.6463776  48.5143661  56.6696472
  31.8277035  68.8947906  66.8686218  32.1573486  69.2189102  67.7067795
  30.9460049  69.2610703  66.8002167  27.9459591  45.8998985  17.9218597
  28.8819122  45.7066040  17.8683662  27.7044487  46.1623726  17.0335960
  40.7925148  20.2552910  64.0985718  40.1839256  20.0192699  64.7986755
  40.7039680  21.2046432  64.0141754  49.7531242  37.0713654  80.9532242
  50.2940331  37.8134384  81.2233734  50.0793724  36.3358612  81.4717102
  54.6839905  16.3203030  35.7043304  55.5921478  16.3258228  35.4019165
  54.7470245  16.1806183  36.6491814  29.8189335  44.5701447  88.1263351
  30.0169735  44.7345886  87.2043991  29.2378216  45.2878532  88.3781967
  52.3366585  27.9056320  41.1373825  52.4094620  27.0295162  40.7587585
  51.6157913  27.8368816  41.7633629  69.6258240  17.2363300  61.4862480
  70.3828812  16.8933411  61.9610634  68.8692932  16.8981819  61.9653664
  24.4058037  62.3348999  29.7951660  24.3279362  63.2851639  29.8798103
  24.8278961  62.2038574  28.9461098  10.0599022  55.3617172   7.1674390
   9.6150742  55.5859985   7.9847875   9.4409504  55.6118393   6.4814587
   4.9262385  49.1609879  84.2270203   5.0718241  49.1224098  85.1722946
   4.9840584  50.0922966  84.0135880  30.8300838   5.8017683   5.3774676
  30.3063107   6.4602766   4.9211102  31.6726589   5.8090668   4.9233260
  50.5564613   2.4900177   1.2191504  50.6543579   3.3012352   1.7177222
  51.0635796   2.6369157   0.4207241  63.5523262  52.4220543  75.8441467
  63.4870071  51.4676361  75.8766708  62.6511154  52.7197037  75.7198181
  64.2759628  71.0570450  66.7234344  63.8256950  70.8902054  67.5514755
  63.6939430  71.6513367  66.2498245  69.6355820  45.8187218  42.7351952
  68.7282944  45.6513786  42.9902687  69.8390961  46.6713676  43.1196594
  25.5711517  40.0572548  47.4129028  25.8405724  40.6842804  48.0840836
  26.3119659  39.4560471  47.3356094  34.8292847  53.8455505  14.6757727
  34.7015686  53.6267853  13.7527008  34.5620499  53.0569954  15.1479998
  78.0510864  11.9796286  14.2183962  78.8638229  12.4851484  14.2062302
  78.2450714  11.2016659  13.6955404  78.5309372  25.6959858  51.0673485
  79.3262253  25.7175655  50.5350990  77.9394379  26.3150063  50.6393700
  10.3476849  59.5274467  43.3849449  10.3313532  59.4556999  42.4305763
   9.9259005  58.7251854  43.6926956  37.7924423  22.4537163  74.9439926
  36.8549957  22.5373974  75.1184158  38.1352005  21.9774857  75.7002640
  64.6797638  24.8742542  34.7742653  65.6359711  24.8309593  34.7787514
  64.4296417  24.5555019  33.9070473  61.6001816  70.1848984  38.7160988
  61.3678474  69.5294037  39.3738060  62.4331169  70.5450211  39.0206680
  60.7703323  59.7206078  78.6325073  61.5845299  59.2716408  78.8599701
  60.6225014  60.3296890  79.3559647  43.8530922  51.4367218  70.5808258
  43.7511902  51.9905243  71.3548737  43.1032333  50.8425560  70.6110229
  77.2892685  24.2661858  13.3104858  77.0097351  24.9840069  13.8786659
  77.6167984  24.6985950  12.5218306  19.0443420  19.8220482  71.4567566
  19.3462944  20.0696678  70.5828323  19.2258453  18.8840847  71.5160370
   0.3825211   6.0343637  12.4031973   0.9467037   6.2989244  13.1297903
  -0.1824196   5.3560634  12.7733088  20.0585670  25.7258873  75.1513519
  20.6463146  24.9736328  75.0813904  19.6540928  25.7950573  74.2865677
  36.5408173  62.0992355   5.6789012  36.5176582  61.1530342   5.8217087
  35.8305206  62.2653809   5.0591402  72.3172302  21.2271328  83.3447571
  72.9559402  21.1241970  84.0502319  72.0503387  20.3331013  83.1309662
  59.7949753   5.6518240  29.6780109  60.7347145   5.7197428  29.5091686
  59.6067314   6.3732285  30.2783203  65.7619553  28.7770157  34.8384514
  65.3745193  28.1893768  35.4871483  65.1782684  28.7171249  34.0821724
  66.3742599  56.3298721  26.0017014  66.6184082  55.8411751  26.7877026
  67.1606445  56.8259201  25.7741776  69.4647217  49.8672752  39.4774818
  69.4586945  50.5555420  40.1426811  69.1837006  49.0803909  39.9444580
  52.7733765   3.9356120  52.5474396  53.2978859   3.3300145  52.0236359
  51.8693581   3.7524781  52.2916222  52.8831635  60.3707924  53.2925949
  52.5199661  60.9946136  53.9212189  53.8141060  60.5891495  53.2490692
  67.8678207  10.4556437  77.2202225  67.8860703   9.8674393  76.4652939
  66.9704666  10.3967524  77.5481110  66.7305908  63.4311638  64.3800278
  66.4530411  63.1639900  65.2562790  67.1741028  62.6611977  64.0241013
  70.5066910   3.8538888  35.4955292  71.3272705   4.3417845  35.5651665
  69.8478546   4.4386163  35.8700333  38.5704308  69.9740677  73.6158447
  38.0380745  70.4873734  74.2235794  39.1021423  69.4118347  74.1792374
  13.2548552  47.4022598  46.6093864  13.8568859  47.5309830  45.8764343
  13.1046600  48.2827721  46.9534454   7.6031528  45.5668602  36.7278862
   7.0145507  46.0969620  37.2652626   7.9921246  44.9439316  37.3418007
  54.2816086  15.0802174  60.9221039  53.4216270  15.3570776  60.6058464
  54.8686028  15.2285719  60.1807137  67.6598587  61.0741844  13.9853926
  68.4161148  61.3841019  14.4836493  68.0386887  60.5999031  13.2452745
  51.8946381   9.5829630  59.7906456  51.2054443   9.0201893  60.1435318
  51.8174629  10.3969402  60.2883606  79.7438278  -0.0887168  68.2587128
  79.1582870  -0.2748580  68.9926910  79.5879288   0.8336706  68.0559082
  49.2278252  59.7968178  56.3541946  48.7134094  59.3738251  57.0417137
  48.5762138  60.2072220  55.7856865  54.7361221   5.8106980  58.4724503
  53.8054695   5.8515463  58.2523460  55.1562004   6.4016709  57.8475342
  63.1856804  37.2214584  81.3223801  62.6984062  38.0449600  81.3476715
  63.3710480  37.0812645  80.3938217  47.6541367   8.1288242  62.3017273
  47.7719955   9.0305109  62.6005630  47.6643219   7.6072564  63.1042862
  79.4509430  13.9492483  61.3034897  78.7795105  13.4243422  61.7392426
  78.9766617  14.7050304  60.9569664  52.3565178  28.7459526  36.1538887
  51.9132042  28.5012264  36.9661789  53.0982170  29.2804546  36.4374695
  80.2460709  29.4189491   2.4111183  80.2048264  28.5879326   1.9378911
  81.0923233  29.7927418   2.1654224  10.0705538  13.0018988   2.2614822
  10.6685295  13.6291752   1.8550563   9.3505716  13.5380478   2.5937502
  58.4753189  40.9747276  79.5384598  58.9050179  40.1639137  79.8107986
  58.1738853  40.7983894  78.6472397  59.9636917  54.8762589  75.3093872
  59.0482674  55.0352974  75.0793076  60.4473648  55.0507011  74.5020065
   7.9168453  24.4669876   5.2303028   7.3734217  25.2526569   5.1699328
   7.3391032  23.7545509   4.9566588  55.5575104   5.2222247  72.5620346
  55.0297432   5.5894394  71.8529129  54.9260979   4.7684879  73.1203079
  82.0387421   2.2975435   7.2482591  81.6917114   2.1831396   6.3635468
  81.9153366   1.4452053   7.6660180  60.8145790  49.5382919  14.4669514
  60.1342278  49.2854271  15.0909824  61.5009727  49.9303322  15.0067654
  27.9208145  39.6389885  55.4399910  27.9280910  39.5297966  54.4890671
  26.9924698  39.6463890  55.6731300   8.8987083  29.6403027  25.9111366
   8.5785131  29.3192081  25.0681629   8.1931562  30.1981449  26.2386131
  36.3988609  13.5793514  13.2908316  35.8816414  13.8466177  12.5310373
  37.1421471  13.1041451  12.9194336  35.2963448   3.0676692  18.4171715
  35.3580246   3.3219495  17.4964275  34.9005089   2.1963396  18.3990173
  27.2745857  68.6291351  35.2785492  26.3743172  68.8729477  35.4937363
  27.6753883  69.4415817  34.9694748  45.3150024  31.6733971  29.6274643
  45.3709373  32.1130447  28.7790470  45.9028015  30.9222145  29.5471783
  26.8036728  25.5018005  19.3857136  27.4213028  25.1940403  18.7223530
  26.2763767  26.1610527  18.9345188  41.2467270  35.8231506  75.5772781
  41.9741478  36.2993546  75.9776840  40.8939896  35.2848053  76.2857971
   7.7062607  52.8725624  76.1350479   7.4788485  52.3679771  76.9160156
   8.0198460  53.7108498  76.4744186  80.9384766  17.3667088  32.6722069
  81.2391891  17.2510548  33.5735550  81.3689728  18.1691227  32.3771896
  81.2859573  42.8994370  63.3612289  81.4785385  42.5747566  62.4816132
  82.1222076  43.2395363  63.6794205  56.1098404  21.6417522  43.5104904
  56.9100189  21.2039146  43.8007431  56.3891487  22.5307579  43.2916603
  76.1090393  70.8467865  62.3919106  75.5990295  71.5907593  62.7122765
  76.9622650  71.2193069  62.1695099  11.2261229  11.8896713  88.1370468
  10.9917870  10.9811134  88.3263626  10.8753252  12.0499363  87.2609787
  78.7381210  39.9165192  86.7747421  78.8354111  40.5000420  86.0222397
  77.9559174  39.4009056  86.5784531  16.2669144  14.2019987  63.3412323
  16.0016174  13.2900333  63.2221985  16.7536411  14.4157009  62.5452080
   3.9003356  12.8048353  46.8699989   3.0387175  12.3941193  46.7981796
   3.8541999  13.3188448  47.6761627  35.6392097  57.3605156  81.3520203
  34.9454460  58.0120468  81.4541397  35.5793686  56.8213081  82.1406326
  36.6582298  71.2100601  36.3121262  37.0196648  72.0388031  35.9978256
  35.8047562  71.4440002  36.6769333  48.8219681  46.4714890  74.2349777
  48.9957390  47.2710838  74.7316437  48.3583565  46.7712288  73.4530258
  82.1261673  33.5553589  87.6400681  81.4985657  33.6124840  86.9195938
  81.8692169  34.2574692  88.2377701   1.0837332  67.0518188  34.2588196
   1.1497008  68.0056305  34.2127037   1.5424954  66.8187485  35.0659409
  52.3359756  52.5614281  40.2974205  52.6228867  51.7803001  40.7704468
  52.2545929  53.2343292  40.9733047  68.9965668  28.8611412  60.6270943
  69.3817673  28.6052971  59.7890015  69.3330841  29.7430134  60.7861061
  83.0521469  62.3234825  59.0685692  82.8630600  63.2117386  59.3710289
  82.8307343  61.7646027  59.8134613  74.6080704  29.3996429   6.9592457
  73.9591217  28.9007835   6.4630198  75.3403091  29.5100021   6.3527141
  83.2106247  32.9746284  18.0631828  82.8019409  32.9093170  17.2000809
  83.3190613  32.0666656  18.3461647  81.9958954  20.6126499  59.3237839
  81.6593399  20.4314594  58.4462090  81.2480698  20.9782867  59.7963295
  53.1796684  53.9906616  54.5964928  53.0870705  53.4631500  55.3898315
  53.2564392  54.8901901  54.9145927  75.7424164  18.4890327  22.4550266
  75.9065475  19.3072605  22.9238529  76.5944214  18.0536327  22.4276352
   8.2595339   4.5220675  54.2043800   7.7242584   5.2850924  53.9864235
   7.7143250   3.7716360  53.9680939  76.1260605   2.9807775  50.5842972
  75.2831726   2.5398335  50.4778061  76.4616318   2.6573324  51.4203606
  80.6768799  66.5939865  83.1169815  80.2474518  66.1586151  83.8533707
  80.0466080  67.2540359  82.8283310  43.5489197  63.5497665  82.6811905
  43.3229828  63.3834076  81.7660294  44.1223297  64.3156128  82.6509247
  61.9600449  63.3020439  47.5508308  61.3073196  63.7229652  46.9913597
  61.8950920  62.3714676  47.3362732  44.4498672  32.7612305  43.8276520
  44.7784233  31.9973221  44.3017082  45.0576744  32.8687553  43.0960503
   1.1932193  41.7482224  36.4664574   0.7105683  42.3573799  37.0252151
   0.5455978  41.0900078  36.2143288   4.9955497  44.0142860  27.6944103
   5.0104504  44.9635773  27.5725060   4.8458362  43.8955765  28.6323471
  57.6673660  33.7798996  81.2089844  57.2923393  34.1724854  81.9973145
  57.0237770  33.1252174  80.9380264  36.6836929  41.3493309  71.7335205
  37.2749672  40.6028214  71.6368179  36.8896027  41.7076836  72.5969009
   4.9773002  27.6440105   1.0348082   5.4786739  26.8863354   0.7335057
   4.4043822  27.8600597   0.2990642  68.8108292  33.7777138  44.4779472
  69.4134445  34.4102325  44.0867996  69.1440353  32.9249992  44.1985207
  12.3812380  24.8869209  77.2993851  11.8312759  24.3698406  77.8879471
  13.0473166  25.2708931  77.8695984  25.5172901  33.6470680  55.3365364
  26.3314972  33.4312363  55.7911987  25.5511017  34.5968628  55.2226181
  36.7808113  58.6063156  86.4008255  36.8356171  58.5317917  87.3535461
  36.8269997  57.7032433  86.0868912  85.4170151  28.6375809  64.7500229
  85.0209503  27.7664623  64.7272415  86.0376587  28.5995464  65.4777527
  36.4135551  47.1622238  12.0596008  36.4568062  48.0417061  11.6842651
  37.2950478  46.8080864  11.9421778  41.9035683  50.9516945   7.7927837
  42.5332451  51.1907806   7.1126556  41.3779907  50.2555656   7.3985658
  40.7327003   9.8489342  88.9800415  40.0833473   9.4403887  89.5524597
  41.0774460   9.1265926  88.4550629  71.2074280  11.8538599  27.8632164
  71.3000793  11.1317730  28.4846973  71.8770447  12.4847374  28.1275005
  84.1986160  37.9161224  41.2751007  85.1055527  37.9779396  41.5748978
  83.6764679  38.1573944  42.0402069  58.0018730  21.5370922  14.8977594
  58.2500534  21.3232784  13.9983587  58.8279991  21.7569542  15.3283558
  25.9108334  53.1404877  32.9401512  26.3837776  53.8993301  33.2817802
  26.4668045  52.3929329  33.1599007   0.8848339  59.6770058   5.3473716
   0.4340153  60.2449379   5.9722290   0.2304524  59.4963417   4.6725550
  16.3083668  34.7030106   4.3076291  16.8151264  34.7788200   5.1161332
  16.4903660  35.5146027   3.8338921  19.3198166  33.3081665  70.4838181
  18.9670830  32.5563202  70.9597778  19.1793804  34.0508118  71.0711746
  51.0558052   0.6079775  71.7580872  51.9501343   0.2742390  71.6871948
  50.8526268   0.9365059  70.8822937   3.3413727  32.1416245   4.2621803
   3.1589146  33.0527534   4.4919329   2.6167500  31.6480408   4.6462727
  85.8749008   5.8847451  55.5981293  85.9681168   5.1461220  54.9964828
  85.2003098   6.4346080  55.1996231  18.6114044  12.2745819  44.5784302
  19.1308689  11.6325788  44.0944633  18.1302032  11.7561655  45.2233505
  68.5800552  54.1726265  83.9804306  67.7345657  54.6213341  83.9861755
  68.7675095  54.0030823  84.9036560  38.8446159  55.9640160  86.0164108
  39.4405098  56.7103615  85.9523010  38.9879684  55.6180458  86.8973083
  61.5541267  33.1747589  19.0584526  61.6711960  32.5777893  19.7974739
  60.7694550  32.8543053  18.6136742  78.3668594  13.7809086  71.8422241
  77.6994247  14.1666250  72.4096680  78.0081558  12.9283552  71.5958176
  74.4214935  20.1247120  77.4125519  75.3116226  20.2843876  77.0988464
  74.3683548  19.1738262  77.5085907  37.5760040  48.4791145  47.6624680
  37.6996574  48.0942230  46.7948265  37.8893051  49.3790665  47.5721283
   6.2827797  57.6563377  68.5716629   7.1139731  57.6908493  68.0982056
   5.8431668  58.4755211  68.3438263  41.4878387  60.1703568  36.3965454
  40.7487640  60.5997391  35.9656906  42.1846085  60.8266029  36.3874359
  42.6906013  39.7093811  18.7543812  43.0812645  40.1215782  19.5249062
  42.0308037  39.1139679  19.1098862  33.1930389  36.0450897  71.2488785
  33.0549622  35.5088310  70.4681091  34.1392860  36.1865082  71.2780380
  47.6268654  40.6291122  47.3569298  47.1599884  41.1815567  47.9838791
  48.5424843  40.6756668  47.6320724   9.9408712  63.2959061  43.0707321
  10.2928352  62.4944916  42.6833153  10.6631250  63.6475563  43.5912361
  44.9467926  34.6319008  46.9643822  45.3492775  33.7762032  46.8160019
  44.1183701  34.5930481  46.4864311  56.6846237  29.9707336  54.0459137
  56.8404770  30.1693726  53.1226120  57.4341507  30.3523808  54.5028458
  36.8804169  57.7635193  73.2678528  36.4753075  58.0653229  74.0808945
  36.9681664  58.5544968  72.7359848  38.1759949  54.1595993  68.3017349
  39.0577393  54.0636673  67.9418030  37.7304611  53.3464584  68.0639648
  79.2615967   9.3903942  41.4797630  79.0415573   8.5518589  41.8855629
  78.8998184   9.3308411  40.5955696  21.3837719  54.9314232  62.4082451
  20.6433525  55.3010178  62.8892975  21.4726620  54.0423431  62.7515602
  70.3135605  70.6566391   2.8397813  70.4299545  71.4050369   3.4250813
  71.0570145  70.0849304   3.0312538  28.2343216  65.8145065  44.7320099
  28.0573006  66.4558792  44.0438728  27.4967155  65.2060547  44.6878128
  10.9904776  60.2693329  74.5152283  11.0138083  60.5969658  75.4143066
  10.1490059  59.8183098  74.4464188  62.1029167  66.8189392  18.9612999
  61.6879196  66.6834335  18.1094494  63.0178223  67.0096359  18.7543831
   7.1589799  35.5669708  41.2938423   7.4638863  35.6087608  40.3874664
   7.7741280  34.9747658  41.7264137  22.3785534   6.6533561  88.8180771
  23.0203533   7.2530150  89.1985168  22.6615276   6.5441580  87.9102020
  42.0472641  69.9279404  76.3308792  42.9407158  69.8960419  76.6728668
  41.5603867  70.4359055  76.9798431  77.9320374  54.3843002   3.3540699
  77.0114365  54.5363693   3.1405389  78.1193542  53.5146141   3.0008154
   3.4245248  15.5330868  69.7464828   3.8392339  16.0139389  69.0302277
   3.0631824  16.2137241  70.3142853  49.0406532  52.1838570  42.2370262
  48.2407417  52.5813828  41.8930092  49.5836945  52.0307121  41.4637985
  85.9406891  63.9846115  16.8240719  85.9598160  63.7313538  15.9011822
  85.0156937  63.9385872  17.0659447  11.7472296  44.5569382   1.9708403
  11.6702805  43.7425919   1.4737023  12.4627686  44.3954468   2.5857847
  37.3074570  36.3030319  59.5663643  36.7104607  37.0463066  59.4805031
  37.5590630  36.3033600  60.4899025  80.2594376  66.6390152  41.1999550
  80.6687088  65.8007965  40.9852142  80.9939804  67.2423553  41.3124619
   5.0144329  63.2155800  59.9707069   4.3837881  63.5393410  60.6138992
   5.8619571  63.5268707  60.2885628   4.1604629  70.6006470  69.2123413
   4.2696047  70.9726868  70.0875015   5.0438762  70.3414078  68.9504166
  38.0484848   1.8408499  66.3045349  37.6661682   0.9641076  66.3418045
  38.0505486   2.0618525  65.3731995  19.2052612  45.2265129  68.5442352
  20.0018578  44.7358665  68.3419113  18.9496384  45.6223297  67.7110367
  59.1017075  50.7001076  16.3886547  58.5319557  51.4522171  16.2275772
  58.6544685  50.2031975  17.0737000  18.2215080  31.6687183  75.7544098
  18.6225224  31.0864601  76.3996887  18.6833401  32.5001602  75.8623428
  45.1626205  41.5353928  68.3773956  44.5622978  41.7810135  69.0813217
  44.8465233  42.0181541  67.6136856  28.4622116   2.2333784  74.8006668
  29.2707119   1.9544773  75.2305222  28.6930866   3.0541415  74.3656082
  77.7410736  -0.0725019  22.7500401  77.4983368   0.8394445  22.9102402
  78.0896606  -0.3782223  23.5874500  47.6693230  52.4381561   4.7911153
  47.6858749  52.0015869   5.6427989  47.7180367  51.7244377   4.1551361
  64.5400696  65.8715973   1.0978175  65.4648666  66.0248489   1.2914476
  64.4286957  64.9258041   1.1942686  62.7556152  58.6801376  24.4256611
  62.5105400  59.4825706  23.9649277  62.1153221  58.0312653  24.1337357
   4.6643882   1.1071001  14.5187826   4.8199000   0.2665355  14.9494781
   5.5135016   1.3467195  14.1475410  63.2623787   7.3213444  33.3354645
  64.0967407   7.7758927  33.2194862  62.6128883   7.9117231  32.9535599
  22.6383324  45.9245110  39.6601372  23.2111893  45.1727676  39.5086517
  21.8697681  45.7534981  39.1158066  49.8709450  13.5998306  63.2817192
  49.8677940  14.2724733  63.9627266  50.5183716  12.9607000  63.5793457
  47.9084740  16.2482700   9.5215921  46.9870491  16.4626408   9.6673756
  47.9098549  15.7335711   8.7145510  83.6838303  35.0167046  84.0860062
  84.2992020  35.6493073  83.7153778  82.9061050  35.5337639  84.2958221
  64.4150009  15.8839464   3.0332549  64.4639435  16.7929096   2.7372460
  63.6331177  15.8533659   3.5845766   7.2584972  32.8158607   1.5130627
   7.6477580  33.1564674   0.7076460   7.2802877  31.8649082   1.4060910
  51.1781311  65.6541061  87.8171692  50.4454231  66.2117081  88.0787888
  51.8218880  65.7602463  88.5175552  75.9221344  47.6305237  10.5765753
  76.4541473  47.9207726   9.8356647  75.4823151  48.4242706  10.8811388
  75.5589142  60.7901840  11.6192856  76.3129425  60.8010368  12.2088194
  75.4538269  61.7021103  11.3480215  63.7682762  53.1267509  56.3756218
  64.5078049  53.1437759  56.9831009  64.1714935  53.0838966  55.5085526
  82.1475143  68.1072464  52.7857742  81.6471481  67.5974960  52.1485748
  81.6021576  68.1089935  53.5724182  72.0170746   8.8964682  43.0439377
  72.6257706   8.1633873  43.1351089  71.3863983   8.7737741  43.7534599
  60.0243530  23.2291622  10.0268822  60.5107155  23.5781956  10.7737846
  59.2605858  23.8009930   9.9500561  72.3431091  37.0342369  66.2032928
  72.2197723  37.8064117  66.7553482  71.8562088  36.3409882  66.6488953
  79.0511169   0.9627438  73.0140839  79.0462036   1.7227193  73.5960159
  79.8746719   0.5161262  73.2103348  31.9421673  25.3787918  67.7415009
  31.2862339  24.7125721  67.5362320  31.6177044  25.7965755  68.5392532
  34.7154198  30.6062641  85.1970062  34.7141724  31.1380196  84.4011002
  33.8704185  30.1567268  85.1860428  20.1942234  67.8965912  16.9207897
  19.5364799  67.3554688  17.3575821  21.0306606  67.4994812  17.1634941
  38.7700539  33.8184395  18.7206402  39.3394508  33.2845497  18.1665802
  37.8851738  33.5156593  18.5168056   0.4401497  33.5456200  65.9673233
   0.2663433  32.6334076  65.7351913   1.1496454  33.8107071  65.3820190
  19.3711014  66.5987930  81.5855255  18.5984478  66.0883408  81.3432846
  19.3223228  67.3819275  81.0372925  18.6446896  70.0232620  18.4855499
  19.4939308  70.3804626  18.2258854  18.4351845  70.4741364  19.3035069
  64.4000092  62.9984322  50.1640091  63.4429893  62.9824524  50.1738396
  64.6350708  62.7224541  49.2781143  16.9963474  12.7202244  85.3033600
  16.8561134  11.8472242  85.6700211  16.1478672  13.1549921  85.3887482
  57.6792946  37.1073990  78.0780029  58.4395523  37.5090561  78.4986038
  57.6064644  37.5564079  77.2357941  73.0211868  70.1562500  24.6584129
  73.7299042  70.1873932  25.3010464  72.9654465  71.0498352  24.3198318
  58.8194504  16.3887196  23.6199799  59.2874680  17.2135086  23.4899292
  57.9050407  16.5999241  23.4316063  39.1474686  11.8750954  71.0249176
  38.6148415  12.5781584  70.6530991  39.9228210  11.8401289  70.4647064
  63.4223480  70.4882355  82.0421143  62.6959457  71.0810776  81.8494797
  63.7661819  70.7953873  82.8809662  46.9895134  43.2253227  13.0791197
  46.7876091  43.8148079  13.8057384  46.5349998  42.4116859  13.2973852
  42.1687622  42.1416130  50.8069954  41.6468086  41.9676704  51.5902863
  41.5627327  42.5763206  50.2070045  33.6411629  57.4300537  37.9600029
  34.3895836  56.8355675  37.9081764  32.9972534  57.0575676  37.3576202
  51.1101074  56.3995361  81.0781784  51.0103416  56.4886322  82.0259857
  51.6756935  57.1298409  80.8271790  16.6426716  57.5404587  48.2539406
  17.0568447  56.7476807  47.9130669  15.8232431  57.6120377  47.7644043
  23.8031750  35.5507278  65.6358261  24.7161503  35.3865891  65.3996658
  23.8125858  36.4183769  66.0399551  10.5473223  22.1037750  88.8204956
  10.7701597  21.4740238  88.1349335  11.1880846  21.9410038  89.5127106
   6.4107971  43.7113037  68.4813461   6.6295648  42.8789520  68.0623474
   6.1762948  43.4735336  69.3784027  53.3443413   3.1710157  73.6048965
  53.8850060   2.3881125  73.5001450  52.4533310   2.8353653  73.7032471
  51.3867683  49.1126785  13.3302259  50.4395714  49.0303764  13.4410343
  51.7473526  48.3444138  13.7729177   1.7641751  59.2979088  88.3561096
   1.4125950  59.1602020  87.4765320   2.0508919  60.2111549  88.3591766
  30.8791828  51.5411530  23.2605667  31.3038139  50.7678375  22.8892136
  30.6332951  51.2768822  24.1470947  48.5092239   9.7999811  56.9341660
  48.4478302  10.7486515  57.0459175  47.6290169   9.5325031  56.6697388
  64.8434830  44.7906380   8.8935394  64.4881973  45.2956085   9.6249819
  65.6026230  45.2948418   8.6007509  32.0226250  68.2268753  32.9197197
  31.5104752  67.4260025  32.8077240  32.2763863  68.2217941  33.8426590
  32.4028320  30.6512585  74.9950180  32.2907143  31.5971203  74.9001083
  31.7638912  30.4000683  75.6620255  78.7116089  33.1232567  18.8877201
  78.1873322  33.5378265  18.2025223  78.8901138  33.8269920  19.5115185
   2.2813716  20.8349209  79.0732880   1.7494819  21.6307373  79.0748367
   2.9901788  21.0217743  78.4577332  60.6121788  55.0439415  35.2663345
  60.1951027  54.2124176  35.0408363  60.2014503  55.6834602  34.6844864
  35.1212959  53.2236214   6.3446236  35.8444977  53.5881004   5.8343630
  35.5474319  52.7194061   7.0377378  84.8501205  33.8655128  29.0154266
  85.2197647  33.8141747  29.8968792  84.0030212  33.4252510  29.0849266
   4.3670955  69.9106064  40.3360252   4.1364059  70.8309097  40.4627342
   5.1839790  69.9348679  39.8376846  82.8743896  14.8683195  38.1855621
  83.4298401  15.5722742  37.8506660  82.5434113  15.2007399  39.0199394
  51.3797646  35.1461601  39.5372658  50.5485153  34.7020416  39.3698997
  51.3295517  35.9508133  39.0212746  49.7209511  55.5318909  14.1636820
  49.2171288  54.7371597  13.9881849  50.4879036  55.4596138  13.5955372
  57.8128586   0.2750645   7.0436926  57.0563660   0.8467402   6.9127746
  58.2428436   0.6220302   7.8253303  51.0222855  52.2544479  62.8050652
  50.8554306  52.8510933  63.5347252  50.2361412  52.3141823  62.2622528
  60.0792961  44.3130226  25.8139210  60.0671654  45.2543297  25.6406231
  59.2576027  44.1437263  26.2747784  46.1885567   6.4845619  49.1206322
  45.7507782   6.5883069  48.2757530  47.1203613   6.4480352  48.9046822
  27.8343430  47.5344429  29.6475754  28.1723347  47.2248878  28.8072357
  28.3078442  48.3502502  29.8103237  66.7345734  38.5193558  79.3026352
  67.1761398  38.4660187  78.4550476  65.8019562  38.4901428  79.0890961
  65.3002396  30.0516796  10.7590189  65.1245041  29.4036560  11.4412308
  65.2868576  30.8918056  11.2175407  73.3257446  10.3779564  31.9801579
  73.9476471  10.2958813  32.7031555  73.7561722   9.9439478  31.2435436
  80.1488037  56.8862724  39.6367836  80.7207108  57.1283150  40.3651886
  79.2667236  57.0923347  39.9461365  37.3089218  52.3732262  78.0742035
  36.5823288  52.3318291  77.4524460  37.4391937  51.4662552  78.3510818
   8.7745848  33.8874130  68.4236832   8.5130529  34.0737801  69.3254089
   7.9499364  33.7388000  67.9609756  86.0960312  65.8033905   4.9357777
  85.8743210  66.6032639   5.4125218  85.6032715  65.8677902   4.1176867
  66.1596375  31.5679550  67.5455246  66.6682358  31.6261921  66.7367172
  65.3460617  32.0331802  67.3508835   0.0631975  35.3686371  33.5082588
  -0.3005030  35.2689552  34.3880424   0.7398528  36.0389557  33.6033516
  12.5144148  19.2323437  18.0903320  13.1208668  19.5154896  17.4060249
  12.4549408  19.9818230  18.6827641  26.9895554  48.7523232  67.7907639
  27.6687775  48.9504089  68.4354782  27.3744984  49.0056267  66.9517899
  45.0510979  51.9949417  31.9087486  45.7058754  51.6518097  32.5168266
  44.2458611  52.0401115  32.4242935  43.5370483  22.3231163  13.8340034
  42.8290215  22.3070450  14.4779539  44.0902252  23.0559635  14.1044912
  86.6668472  43.1119156  38.6020470  86.0766678  43.8622398  38.6722488
  86.1330261  42.3619347  38.8643227  64.3328247  55.6268082  48.8829231
  64.3243790  54.8576660  48.3132019  63.6157112  56.1722183  48.5596390
  58.4254608  12.7012453  55.5614777  57.6595802  12.9351549  55.0371246
  58.8651199  12.0200510  55.0526543  77.8303604  29.0359917  10.0671444
  77.8382568  29.7716160   9.4547520  78.4073181  28.3852596   9.6672678
  63.1449776  50.7625542  53.7833557  63.4970169  51.6339722  53.6018906
  63.7787895  50.1618004  53.3914261  43.4312782  34.2894325  16.7691727
  42.8814011  34.4785309  17.5295086  43.4063225  33.3361206  16.6866894
   8.3155527  46.0752029  46.1643486   8.1996307  45.9419479  45.2235870
   9.2487631  46.2620087  46.2665939  86.2942505   5.0970988  68.5252533
  85.4503632   4.6476164  68.4800720  86.9270096   4.4506240  68.2123337
  51.4277840  23.3506794  27.5570774  50.5987778  23.1270218  27.1340485
  51.6521530  22.5741882  28.0698662  79.4527283  20.0679684  12.3841810
  79.9357910  19.2677231  12.1780510  80.1297302  20.7370071  12.4855919
  64.1087875  58.0216675  14.9193468  63.7276688  57.8836784  15.7864923
  63.6620216  57.3881836  14.3578005  22.7624874  61.8511200  70.5743179
  23.3606224  61.7264061  69.8374939  22.1537418  62.5272675  70.2768555
   1.5475793  11.5829134  45.8757324   2.2377191  11.2216492  45.3194695
   0.8343028  11.7864790  45.2707291  25.5180130   8.5230188   5.5401602
  24.7936916   8.9235840   6.0209284  26.2450447   9.1362848   5.6476803
  47.8423080  56.2751579  58.3322792  47.9800110  57.1453171  58.7065697
  47.7389526  55.7014694  59.0915108  64.0222244  48.1530914  87.5368652
  63.7574844  47.2332878  87.5268326  64.4321518  48.2750130  88.3932114
  85.7374420   9.9706736  17.1160984  86.3347778  10.1638727  17.8386631
  85.9238663   9.0598745  16.8882294  43.4366379  41.3261871  60.6138000
  43.7416611  41.0152512  59.7614441  42.4972229  41.4665718  60.4953804
  55.4168129   6.1197329  13.6405344  56.0460930   5.4576507  13.3543758
  55.9177094   6.6900277  14.2237139  77.8041153  20.1347408  17.6745300
  77.4251709  19.2704067  17.5146408  78.1981506  20.0663605  18.5441799
  26.6281414  17.6524811   2.4472673  26.2508507  18.5136337   2.2675436
  27.0003319  17.3746452   1.6103004  37.2760925  12.5001001  65.7528687
  36.3641663  12.2547607  65.5965652  37.2487755  13.0275202  66.5511856
  36.3329773  63.9737282  62.8238106  36.4728127  64.8337784  63.2200432
  37.1026001  63.4647255  63.0784225  41.1679916  35.8180275  68.1332855
  41.0720215  34.8688278  68.2110138  42.0131378  35.9386597  67.7003860
  53.7004280  51.3281555  35.0141258  53.4208145  51.5848160  34.1353951
  54.1011734  50.4669495  34.8959694  85.3536530  37.4282188   1.7940915
  85.2609940  38.0144348   2.5450888  84.7479706  37.7783356   1.1407927
  81.0260468  47.5644302  21.8322220  80.9837646  48.0495796  21.0081615
  80.6177063  48.1458397  22.4736710   7.1681943  33.3591194  82.7192383
   6.8044324  33.0794258  81.8791885   7.0984764  32.5862694  83.2796631
  30.4765835  49.2997322  67.3785400  30.8600330  48.4265251  67.4604263
  30.1060715  49.4805832  68.2424011  74.0248489  37.7215767  24.4626389
  74.4596252  37.5381012  25.2954273  73.7759933  38.6440468  24.5204983
  82.9382706   3.9741714  32.8335533  83.1260910   4.8033686  32.3937950
  82.2715149   3.5586953  32.2867012  73.2678986  65.4673615  44.9077835
  72.6958008  64.8624115  45.3799896  73.3019028  66.2469254  45.4621773
  22.2379875  71.3172226  14.4273605  23.0099468  70.7700882  14.5721159
  21.8529930  71.4232025  15.2972908   2.2709928  58.8593102  11.8659773
   1.4457430  58.3920670  11.7360487   2.1859450  59.6488190  11.3314943
  36.7964401  -0.0439864   4.6875601  36.0702362   0.3445664   4.1998219
  37.4787598   0.6272437   4.6764226   5.0716491  36.5596924  27.3819332
   4.6377535  36.9818039  28.1234112   5.0526791  35.6262550  27.5930309
  37.4695053  41.0261955  50.3116913  37.0211945  40.7489662  49.5126991
  37.4189262  41.9819183  50.2953987  79.2234421  44.1208229  31.3214111
  79.8784332  43.5949059  31.7803612  79.3328018  45.0029221  31.6766205
  32.4052658   7.0663385  73.3726120  31.7826195   7.0329370  72.6463699
  32.4407234   7.9915729  73.6153412  25.0779610  59.2800522  85.3611832
  25.8396626  59.8596840  85.3527908  24.3655663  59.8255196  85.6946335
  64.9802704   2.4963927  87.8123016  64.6566544   1.6596953  87.4784698
  65.4165878   2.2735524  88.6346130  74.9403458  15.5613003   2.3130927
  75.4291000  15.8541231   3.0822527  75.5844269  15.0889416   1.7855821
  81.6907883  63.7564316  13.9237528  81.1517410  63.8702621  14.7065010
  82.3062134  64.4891663  13.9481230  36.5559769  42.6989975   3.5034921
  37.0974846  42.2364502   4.1430621  36.9914513  42.5451851   2.6650815
  59.6491508  29.1674519  64.8208847  59.2088814  28.3544254  65.0686417
  58.9986877  29.6446953  64.3057480   1.1171206  25.5764885  76.1593246
   0.8496416  26.3743076  75.7030640   0.6466199  25.6077652  76.9923172
  45.0071678  55.9797630  83.3966446  45.6863327  56.6347466  83.5577621
  44.4899216  56.3429260  82.6777496  50.9834709  70.5484238  64.6407242
  51.5139618  69.9754639  65.1943741  50.9232254  71.3676376  65.1321487
  18.8033009   1.1957866  10.0406513  19.4148674   0.5016841   9.7948055
  18.6396885   1.0518005  10.9727087  31.6729889  63.4790230  76.7096329
  31.4303608  63.2822227  77.6144104  31.0143719  64.1087799  76.4166107
  50.3771133  16.0751972  46.0938644  51.0669518  15.9894657  45.4358330
  49.7364578  16.6633434  45.6940231  86.1213303  35.8656693  15.2247019
  85.1728439  35.8622131  15.3535204  86.3759232  34.9456253  15.2949085
  61.6470222  26.9897404  48.9249458  60.8511734  26.9562244  49.4557343
  61.5530167  27.7861691  48.4023628  61.8357124  17.1916218  81.6233597
  62.3442535  16.6512794  82.2280426  62.2795677  17.0912457  80.7812424
  17.4630909  40.9177589  17.3384914  18.1234818  41.4610710  16.9084625
  17.6243973  41.0401917  18.2740250   9.7014589  29.0607033  66.0585480
  10.3234444  28.6029396  66.6240768  10.0003862  29.9700260  66.0604324
  67.1763916   4.8606830  72.4470978  67.7187958   4.2328281  72.9244156
  67.0239563   4.4478979  71.5970383  19.0273590  54.7598763  36.0639153
  19.0330849  55.4433823  36.7340050  19.8553238  54.8747482  35.5975342
  63.8356819  50.6588821  25.9506302  63.3139038  50.3234634  26.6796532
  64.0994339  49.8771629  25.4652596  74.0363312  67.8005829  19.4030819
  73.5396500  67.5508270  18.6238747  73.4443893  68.3729553  19.8911629
  78.9467850  45.9876747  78.8305817  78.9772568  46.3973122  79.6951599
  79.0367661  46.7166824  78.2168350  33.0334625  22.8136387  66.9659424
  33.2544518  22.9056492  66.0391617  32.3338509  23.4508896  67.1097641
  40.3557014  71.1195450  47.7170677  41.2210693  71.5215302  47.7930527
  40.0049973  71.1358795  48.6075592  28.3281803  52.8334465  41.3576508
  28.0447979  51.9302864  41.2154198  28.8552151  52.7962227  42.1558266
  58.0281067  28.3025856  13.3521128  58.6052475  27.9321976  12.6843166
  57.5770264  29.0202808  12.9075098  47.5120239  60.2212753  70.3622971
  47.1336517  60.1856270  71.2408142  48.4426231  60.3906670  70.5090027
  66.5335541  46.2558708  75.6925201  66.7539062  47.1069298  76.0711594
  65.6089935  46.3309555  75.4563293  38.6903992   4.1372271  41.3111305
  37.9365387   4.1521044  41.9007950  38.8589668   5.0587416  41.1145897
  31.7324123  54.6025696  77.7834091  31.3836231  53.9873352  77.1383743
  32.6390457  54.3246002  77.9137115  43.2887306  33.0918427  58.9733810
  43.6849785  33.1607056  59.8419876  42.3515282  33.2106667  59.1275597
  35.7823105  70.4521408  44.8635788  35.8912659  70.8148422  45.7426758
  35.8573723  71.2083054  44.2815018  46.4407959  60.8285103  47.1883011
  46.1850777  60.7103729  48.1031151  46.6751823  59.9497910  46.8897362
  18.8774605  57.1695442  66.7517700  18.6143475  58.0620956  66.5273819
  18.0537910  56.7128792  66.9228134  85.9601135  15.3552008  33.6110992
  85.3941040  16.0886497  33.8517494  86.5660477  15.7215614  32.9669991
  71.6548080  18.3011894  34.2548904  71.8585205  17.7952614  35.0415077
  72.4042816  18.1576576  33.6770325  55.0958748  21.2497654  64.1769867
  54.1636047  21.4532089  64.1013870  55.4111671  21.8263149  64.8729858
  41.1505013  19.6872559  73.1498795  41.3862762  19.8222828  74.0677032
  40.3117752  19.2271919  73.1832275  35.5953369  58.4539452  42.8762817
  35.0552101  58.3443871  43.6589012  35.3260002  57.7406311  42.2975998
  50.5189133  69.5214691  72.7802811  51.0842934  70.1891556  72.3919830
  49.7648430  69.4748306  72.1925430  39.4998436   4.5340967  53.8032875
  39.6479111   4.5743032  54.7481117  38.5607147   4.6885405  53.7012405
  74.2634811  60.4301872  17.4944839  74.6127777  60.6564827  18.3564682
  73.4746628  60.9654007  17.4076576  86.3861618   5.3528771  61.4707489
  86.4744873   5.1524115  60.5389557  86.0808487   6.2598138  61.4927330
   7.8668003  39.1720963  31.3877068   8.3452072  38.5041351  31.8788147
   7.8252320  38.8292046  30.4949989  58.1822090  38.2238045  64.4319611
  59.0908699  38.1494484  64.1403427  57.9458733  39.1333122  64.2498169
  57.7402611   5.9494281  53.6136017  58.3003197   5.1896296  53.7725792
  56.8613014   5.6525860  53.8492813  58.7924919  58.9183388   8.2967062
  57.9402313  59.2398300   8.0025501  59.4268341  59.4841919   7.8566489
   1.6041603  31.3956566  60.7195816   2.3510079  31.2327194  61.2956886
   0.8730065  30.9448490  61.1419754  84.9925232  24.5001431   6.1087198
  85.4282455  23.6515617   6.0294375  85.2949600  24.8471985   6.9479537
  71.9081039  65.0292206  69.9271240  71.6999283  64.2440109  69.4208298
  71.8559494  65.7440872  69.2927170  31.6844711  55.7430458  81.4906616
  31.6975365  55.7884483  82.4466934  32.5403061  55.3841438  81.2562027
  65.6490631  59.2123299  24.7182178  64.8676224  58.6615791  24.6708126
  65.9460144  59.2853394  23.8111782  66.1648712  60.3586426  57.7411880
  65.8703461  59.4695473  57.5437088  65.4387665  60.9182167  57.4657135
  44.0281830  46.1494865  27.1942291  43.3910522  45.6704750  27.7241745
  43.7675323  47.0667572  27.2773609  10.8785114  27.6338463  85.7322388
  11.3134165  26.9913425  86.2928391  10.6406479  27.1432209  84.9455109
  49.7537537  62.9355659  62.0373306  50.2103043  62.1814499  61.6643677
  49.2752037  62.5795937  62.7859993  28.1063404  46.1911926  36.7423782
  27.7496548  45.6401520  37.4390564  28.5357895  46.9119072  37.2032242
  43.4251022  57.9678040   6.3180237  43.3172073  57.7518234   7.2442760
  42.5866966  57.7357063   5.9187288  42.6813164  38.1012650   4.5145898
  42.3973351  38.9881172   4.7361321  43.4657631  38.2273026   3.9807448
  50.1440315  23.0849609  47.8485909  49.2041283  23.1398468  47.6759605
  50.5469055  23.5935555  47.1448479  69.9171448  58.8338623  17.1658344
  69.4164886  58.1317368  16.7503891  70.6744156  58.3926811  17.5507126
  60.0124893  34.2598495  32.1391258  60.5009651  34.5798225  31.3806801
  59.1847839  34.7397804  32.1107941  23.3456173  56.9457359  82.4679337
  23.3410168  57.6555748  83.1100693  24.2666359  56.8469734  82.2266769
  83.0376511  57.1159439  60.3427658  83.9915009  57.1737289  60.3981400
  82.8340607  57.3713722  59.4430237  66.3119507  11.1880960  18.6145687
  66.1662216  10.6995392  19.4246979  65.6119919  10.8970175  18.0301323
  39.2145119  52.4191780   8.3496380  39.2987976  53.1170998   8.9992800
  40.0703659  51.9905319   8.3461981  33.1565666   0.7291812  21.5929928
  33.9718666   0.7315262  21.0914841  33.4209595   0.9692336  22.4810829
   5.5370183  60.9149475  80.4909363   6.4383759  61.0779457  80.7688217
   5.5960245  60.7987862  79.5426483  40.6535683  57.4258690  58.8513756
  41.3997231  57.8885574  58.4700584  41.0414124  56.8425026  59.5036736
  52.7730560  46.4657326  62.9513588  53.1215210  46.7027283  63.8107986
  52.0932655  47.1175880  62.7804756  19.3649292  57.8671341   7.9818740
  18.9806328  58.0756035   7.1303525  18.9837170  58.5095139   8.5804195
  78.4005356  16.3171749  60.9457169  77.6193924  16.8371754  61.1345444
  78.7007294  16.6362782  60.0946655  83.3163605  12.4259748  82.9858170
  82.4777222  11.9955854  82.8194427  83.2274170  13.2886038  82.5806046
  83.9562759  58.4831085  54.2435799  83.8064117  57.9029007  53.4971657
  83.2911224  59.1655540  54.1537971  67.1168594  24.5912075  39.8733101
  67.6530228  24.4545612  39.0922318  66.2205734  24.4265594  39.5803909
  62.1873512  45.6906738  17.8604259  62.7066460  46.1176758  17.1790791
  62.1260452  44.7780685  17.5782490   9.1171551   6.3029604  80.6526718
  10.0429134   6.5189142  80.7647781   8.7664347   7.0194550  80.1236496
  67.8467636  34.5335083  25.3019562  67.5024261  33.6482162  25.1839371
  68.7787476  34.4063339  25.4793301   2.7976682  36.3533401  15.5692568
   2.2671745  36.2777138  14.7761059   2.4993880  35.6343880  16.1263638
  64.3558044  38.2035217  38.8451042  64.7256546  38.3957138  39.7067947
  64.1665802  37.2655258  38.8694725  12.5354252  43.1081772  70.9868622
  11.8098221  42.5701675  70.6701965  12.6357422  43.7900047  70.3225708
  76.4591980  15.3230619  88.4179611  75.6568222  15.7141027  88.0722580
  76.6635361  14.6155052  87.8065338  70.7887573  58.7405434  79.2497635
  71.2693558  59.5312424  79.4948196  71.2581482  58.0298882  79.6866455
  64.6734009  59.4410706  10.8763876  65.4559631  59.2468834  10.3605118
  64.0293427  58.7947578  10.5870771  44.4724312  47.8756332  24.8575859
  44.7905312  47.5550766  24.0136147  43.5361595  47.6766586  24.8519154
  75.0506287  47.7855644  27.7039738  75.0733261  48.6299438  28.1542358
  75.2940063  47.1490593  28.3761826  73.3444366  23.0907116  75.6754150
  72.5121231  23.4491482  75.3671799  73.2642975  23.0852375  76.6292343
  45.9264832  30.1395416  58.0450630  46.1798668  30.0132847  58.9594421
  46.7533073  30.2853622  57.5853500  85.5955276  49.1592445  10.2418728
  85.8646317  48.2678375  10.4637108  84.6389313  49.1330452  10.2635651
  51.9628143  20.9426384  10.7555408  51.3016434  21.4419708  11.2348719
  51.8788261  20.0501404  11.0911379  45.5236206  52.3824997  15.2308331
  46.2589111  51.9920273  14.7584925  44.7494507  52.1026802  14.7423735
  20.0929470  61.3903770  49.4832344  19.8732986  61.0420647  48.6191368
  19.2596054  61.7051620  49.8334961  33.9259224  47.6815605  60.7847710
  33.6570244  47.9038544  61.6761246  33.5212898  46.8303185  60.6177864
  80.8420486  52.4091110  67.7114029  80.5899887  52.5034599  68.6299896
  80.5823822  53.2362404  67.3056183   9.0102158  30.8911915  81.7228241
   9.7943954  31.2304230  82.1543503   8.2856417  31.1943989  82.2698975
  69.1159363  42.6490860  85.1287308  68.5880585  43.2001762  85.7065430
  68.9062347  42.9567719  84.2469254  32.7623138  21.5415039  73.9886856
  32.7922554  20.5947609  74.1265717  32.2000732  21.6542549  73.2222595
  53.2085457  44.1387215  25.4526463  53.8743324  43.8314781  26.0679188
  52.3966446  44.1408310  25.9596405  58.8668861  71.7589264  35.3090057
  58.0565224  71.3172760  35.5629463  59.0783386  71.3955841  34.4490623
  75.5938034  41.3085442   2.3789370  75.7112350  41.3022346   1.4289892
  76.4810104  41.2342072   2.7304511  49.2817307  40.0254745  15.9194050
  48.5166779  40.3448868  16.3978386  48.9977875  39.9961243  15.0057611
  13.5666752   0.5798202   4.6369429  13.3706017   1.1490436   5.3811011
  14.4023647   0.9039641   4.3011074  50.4064026  17.2950172  48.7232857
  50.4609680  16.9354362  47.8378716  50.7714729  18.1765442  48.6467133
  77.8599472  56.2063560  87.7030945  78.3005905  56.7570457  87.0559387
  78.3329544  56.3703232  88.5189438  62.3214989  30.5937405   1.5659168
  62.1817627  29.8057327   2.0910363  62.6762276  30.2700005   0.7379118
  20.4566708  55.3077850  17.4093666  19.5117664  55.4070358  17.5257092
  20.5455208  54.7476387  16.6382790  33.7385788  60.4373398  73.5634689
  33.0298424  59.8053665  73.6840439  34.1559601  60.1754646  72.7428360
  51.6987648  62.4870987  41.8591576  51.5234718  63.1656418  42.5111427
  50.8781700  62.4039726  41.3734131  82.6120300  10.0409403  22.8364754
  82.6840820   9.0968227  22.9767666  83.0150833  10.4298744  23.6126900
  32.1810341  67.6480942   0.9508926  33.1235809  67.7396622   0.8114222
  31.8237362  67.4909744   0.0768887   4.8134341  33.8351822  50.5926781
   5.3878284  33.1950684  50.1724930   5.1284428  34.6825371  50.2780457
  61.9901390   9.4391642   4.7836041  62.6989403   9.3881817   4.1423311
  61.4933472   8.6309471   4.6562610  44.9019547   5.9887924  24.3894348
  44.8531952   5.5765519  23.5269318  44.0144920   5.9153643  24.7405071
  14.1857910  46.8583450  50.7480049  13.8116674  47.4246178  50.0730286
  14.9328499  47.3513718  51.0872116  68.3210297  35.3932686  15.0442276
  68.7675171  34.5527611  15.1463480  67.9404907  35.5684547  15.9048862
  74.4606171  16.5469055  43.6121254  73.6842041  16.7789078  44.1216202
  74.1129761  16.1610146  42.8080940  28.4058857  22.9075813  63.2200699
  29.1998348  22.5896358  62.7902031  27.8961010  22.1169052  63.3966560
  57.3458900   9.8020926  30.2655334  57.7856979   9.9687319  29.4318466
  56.4741516   9.4931183  30.0188866  38.9626579  15.1747131   7.2983341
  39.6890945  14.9942961   7.8949661  38.7143707  16.0790939   7.4898577
  72.0433960  16.2729168  63.5410843  72.4865265  16.8175049  62.8904800
  72.7316360  16.0333500  64.1617050  45.3796425  62.2113152  53.2340546
  45.9887657  62.9447899  53.1491203  44.8424721  62.4329300  53.9946938
  23.1436214  42.1235542   8.8944950  22.5745068  41.5206871   8.4160690
  24.0050220  42.0092430   8.4930553  72.2679825  57.6287689  85.4678650
  71.7905197  56.8735123  85.8111572  72.0711441  57.6309700  84.5311279
  20.3311234  64.7140884  48.7512741  20.6463356  65.4445267  49.2835655
  19.4165440  64.6050339  49.0118179  72.7229843  51.3771667  35.3405952
  71.9434967  51.1336479  35.8399124  72.4260864  51.4039230  34.4309998
  59.9905891  26.5870132  77.3081665  60.1047401  25.9487495  76.6040192
  60.6650009  26.3603878  77.9485092  53.7053337  66.3981857  62.3171043
  52.8504448  66.8187485  62.2247925  54.2288971  67.0264893  62.8144455
  86.4337921  59.7505608  33.2313843  86.4145660  59.3798943  32.3490753
  87.0151291  59.1699524  33.7224770  39.7936172  56.0146866  63.6771355
  38.9861374  56.5077896  63.8222618  40.3230896  56.1876869  64.4555740
  54.6785545  69.0440903  24.6980839  54.7416458  68.3164215  24.0794125
  55.5526276  69.1076431  25.0830421  54.6220512  41.0843735   6.5278335
  54.1330605  41.6892853   5.9699783  54.2612610  40.2223892   6.3203583
  30.5028896  54.4352951  19.5175247  30.0527935  53.6886673  19.9127350
  30.1455784  54.4885559  18.6311131  54.4851151  71.0932312  65.2241898
  53.8107071  70.5345764  65.6105881  54.1126747  71.3754120  64.3887863
  73.2429199  33.3585091  36.6553383  73.9720764  32.7768250  36.4403725
  72.5776062  32.7805786  37.0289383  77.6563568   7.4042411   1.7178959
  78.5226898   7.1777864   1.3796445  77.1410294   7.6101332   0.9379734
  26.2712269  34.2234497  59.3710594  26.0845394  34.1614609  60.3078308
  25.4431095  33.9994469  58.9464684  16.2338562   7.4216247  72.2195740
  15.7644939   7.6479659  71.4166412  17.1586514   7.5139403  71.9905319
  57.1089249  51.5964546  23.1293793  57.6788445  52.3602180  23.0394344
  57.3193092  51.2409859  23.9928665  69.4132156   3.7457378  45.8375206
  69.9276352   3.5098476  46.6095085  68.5807800   4.0592628  46.1910477
  68.6754227  21.6488876   0.4449573  68.4079361  21.9386387   1.3171537
  68.2216034  22.2417564  -0.1540313  80.2992249  21.6363049  41.2235794
  80.1807938  21.6978722  40.2757339  79.4502258  21.8868275  41.5878143
   4.0865922  41.4498825  15.3278008   4.3586254  42.1415710  14.7246428
   3.6729164  40.7929001  14.7679119  65.8258438  44.1112709  62.0624390
  65.8876495  43.7084808  62.9285622  65.1240616  44.7565842  62.1479225
  76.9913483   4.9421897  10.3013573  77.2903290   5.7325053  10.7510729
  77.2138596   5.0908823   9.3823299  84.3937836  55.1010742  64.7960358
  83.6295090  55.4136467  65.2802048  84.0377045  54.7805519  63.9673615
   0.1260308  50.7207222  84.4729767   0.7228981  51.4654388  84.5463409
   0.2323901  50.4164162  83.5716934  48.8000755  49.2566948  68.1136703
  49.0727158  50.1166039  67.7935867  47.8651924  49.3538857  68.2947159
  62.1219673  36.9302788  57.5607605  62.5808563  36.6888504  58.3653488
  61.9701118  37.8716049  57.6448898  37.1535950   2.0381083   1.7607738
  36.9319954   2.5755494   1.0003245  36.3754959   1.5007412   1.9092150
   4.7091918  70.9813614  77.2178574   4.3868036  71.8636551  77.0338593
   4.1784606  70.6814880  77.9558487  40.3454208   2.3008380  40.3223228
  39.7844200   2.8942902  40.8216476  39.7501907   1.6253915  39.9972000
  39.2717934  38.7900467  24.9477425  38.4671783  38.5875320  24.4704456
  39.4036865  39.7277412  24.8078690  38.4910545  69.1679230  85.5191040
  38.9849892  69.1500702  86.3388214  39.0417519  69.6702042  84.9185333
  31.8844910   5.0265417  75.5526886  31.3948994   4.5915303  74.8546219
  32.2121315   5.8308001  75.1501312  75.4069824  52.1522484  41.4975739
  74.9427567  52.9683647  41.6838036  75.6361313  52.2132912  40.5702133
  84.4009781  30.4242382  84.1852493  84.7968674  29.9313183  84.9039536
  83.6498947  30.8651371  84.5823746  27.9380379  68.1696777  58.5555344
  27.5834866  67.6163025  59.2514534  27.2053928  68.2948761  57.9523849
  49.9368172  24.7023754  44.6532440  49.9744186  23.7840214  44.9205284
  50.7089539  24.8227520  44.1004791  24.0354385  38.6565781  77.9418335
  23.1594353  38.5463791  78.3115692  24.3273411  39.5081520  78.2671738
  86.7371979  52.7582245  51.2413445  86.6986771  51.9123421  50.7949982
  86.8970718  53.3913040  50.5414276  83.4369659   6.3969684  73.1069107
  82.9487686   6.8267012  72.4046097  83.9972610   7.0854297  73.4651337
  62.8111801  33.5603485  28.8596230  62.0835686  33.3853836  28.2627983
  63.3023834  32.7392044  28.8856373  72.1123123  41.7098007  21.5239964
  71.3128738  41.2520714  21.2639637  71.8675385  42.6351585  21.5292892
  73.3512573  23.6178837  13.1926813  73.2377396  23.9574585  12.3049688
  73.8927078  22.8362427  13.0827036  23.8499393  41.6430855  52.4458885
  23.4962292  41.1386147  53.1784363  24.7572632  41.3482513  52.3679886
  52.4134903  42.0286217  18.5750771  52.4584770  42.4118385  17.6990910
  53.2493362  42.2591820  18.9805832  41.7493782  26.7937336  70.2021790
  42.6555748  26.5531235  70.3949203  41.5204697  26.2696075  69.4346390
  14.8305016   2.2614045  23.6136246  15.0541534   3.0754032  24.0648651
  14.0569582   2.4803116  23.0940647  65.1302567  66.8025589  24.3591137
  64.2121582  67.0038681  24.1779976  65.6000290  67.6064911  24.1371975
  51.4351120  59.7342758  18.0040321  50.6736679  59.2476082  18.3196106
  51.1787567  60.0429230  17.1349812   0.4565568  15.9637337  61.9167557
   0.9163046  15.4443235  61.2571526  -0.0886396  15.3301744  62.3832283
  32.3942642  53.7947922  10.4085245  32.0288048  52.9942474  10.0319681
  32.3325577  54.4404602   9.7045803  43.7835464   6.4928851  64.5252762
  44.0789108   7.3091049  64.1218185  43.8975029   6.6352444  65.4649429
  38.0960808  12.9638281  75.0064011  37.9011192  13.7333527  74.4715576
  37.9661331  13.2592955  75.9075317  57.6822777  22.6420269  83.3155365
  58.3308754  21.9841423  83.0650558  57.3622932  22.9916744  82.4839172
  53.1505432  36.5305901  33.1154747  53.7309799  36.4910851  33.8755836
  52.4069481  35.9765739  33.3528862   6.9179678  40.8843803  72.9415894
   7.4772749  40.6746025  73.6895218   6.0840311  41.1458206  73.3320160
   8.6309547  33.4770660  88.4374237   8.8987103  34.2614822  88.9161987
   9.4389973  32.9757309  88.3280563  12.4681463  43.3141670  31.7565784
  12.0886908  42.4553299  31.9427147  12.4759321  43.3705826  30.8010731
  55.0504456  29.0693893  46.7453346  55.5537376  28.3781605  46.3150673
  55.1011543  28.8577538  47.6774673  28.6539841  67.3644180  16.5489559
  27.9987907  67.1810989  15.8756437  29.4830093  67.0888977  16.1577492
  11.2206259  62.8259583  53.5978088  12.1316633  62.5464172  53.6877975
  11.1148520  63.0003014  52.6625824  20.8734570  14.8648319  70.6215210
  21.7135143  15.3120155  70.5187454  20.4059658  15.3812447  71.2780228
  26.9049015  71.0362091  13.6893063  26.2370033  70.3866653  13.9089231
  27.1648293  70.8191833  12.7940025  29.2036610  59.1953773  37.1598663
  28.2635555  59.1620140  36.9828873  29.5231209  58.3248672  36.9224014
   3.2956216  15.3725615  57.0510635   3.9961820  16.0189095  56.9634247
   2.4938476  15.8619041  56.8668556  17.8688221  26.2485371  82.3493423
  17.1121902  26.5192623  82.8693924  17.8332310  26.8015175  81.5688477
  80.1558075  69.8976898  86.4144974  79.4574127  70.3200302  85.9143906
  79.9470444  68.9643173  86.3762360  35.3831787  42.7771530  88.5063553
  36.1252098  42.5824738  89.0788269  35.6678085  42.4891739  87.6390076
  65.9165726  48.2036667  12.5895271  66.7497711  47.8280983  12.8740692
  65.9664993  48.2006607  11.6336355  76.7474747  68.6823807  71.2606583
  77.1024475  69.2608643  71.9356308  75.8547668  68.4951782  71.5509262
  71.8315659  20.1532574  76.6031723  72.7793427  20.2340965  76.7100296
  71.6113052  19.3281498  77.0355072   7.2293081  32.4669342  66.7895050
   7.5157189  31.7625542  66.2080765   6.6786580  33.0232620  66.2385788
  45.3160057  70.6985321  45.9329185  45.9222870  71.0677185  45.2907677
  45.1995163  69.7893219  45.6572266  19.3680019   1.9211400  55.4067459
  18.9721584   1.2739252  55.9903984  19.3055286   2.7467365  55.8870773
   0.8829098  37.3678894   4.2647367   0.0803221  37.8038712   3.9783728
   1.5865836  37.8583183   3.8398209  74.9135666  46.3897896  84.0993958
  74.9201508  46.8600197  84.9331055  74.7104111  45.4849129  84.3363800
  40.3576584  36.0982170  61.5957947  39.4521408  36.0533676  61.9028091
  40.5760117  37.0295830  61.6291237  59.8761063  35.5037003  81.8174820
  59.1238060  35.0353050  81.4557037  60.5230217  35.4990387  81.1119995
  81.1720428  50.6967888  33.8832741  81.0095673  49.8668327  34.3316154
  80.2995377  51.0507660  33.7110062  18.5663223  49.2819023   7.7419930
  19.2129383  48.7937660   7.2322483  19.0698299  49.6729317   8.4560013
  21.4725971  41.4257965  24.5894775  21.2486534  41.3381615  25.5159779
  21.0653725  42.2495651  24.3215160  83.1016235  16.8686371   2.5138850
  83.7464371  16.9397526   3.2177217  82.3678207  16.3970585   2.9080710
  40.6276016  42.9850769  79.0178604  40.5529556  43.7207565  78.4100494
  39.7646179  42.5713425  79.0002518  75.4213715  55.3374405  87.2513123
  75.3936615  54.3886108  87.1280899  76.3420944  55.5290260  87.4296036
  27.3168850  19.9756298  87.7757339  27.5293522  20.9016685  87.6593704
  27.1617413  19.6521416  86.8883133  36.9598541  28.9968872  85.7890854
  36.1576881  29.4799881  85.5906525  37.1938324  28.5719109  84.9639282
  52.7609367  35.5888901  47.2866249  53.0492744  36.4758873  47.5018730
  52.7744637  35.1231194  48.1227493  15.4241648  47.9069252  44.6218147
  15.6415806  48.4225388  45.3984108  16.1772289  48.0186424  44.0416031
  23.2343407  62.2753906  73.1249084  23.0896969  62.1046219  72.1942368
  22.3544712  62.3525429  73.4938354  78.6062927  42.7246284  62.5365868
  79.4814606  43.0743828  62.3693123  78.1356888  42.8527832  61.7129745
  50.0547905  40.5979652  31.9017277  50.8388481  40.0508080  31.9475956
  49.4955635  40.2748413  32.6081886  74.4317780  50.3004189  51.8575821
  73.6860046  50.7801514  52.2180138  75.1102600  50.3729095  52.5288811
   2.5742099  39.6349258  14.2026482   1.6996099  39.4364624  14.5371914
   2.6373796  39.1374016  13.3873501  85.0778198   2.2430444  18.1404476
  84.9244919   1.2987621  18.1729088  85.7543640   2.3530097  17.4722996
  39.9817963  20.9652290  83.8214874  40.7668571  20.8003540  84.3437195
  39.5908279  21.7446556  84.2162933  44.8884430  64.0850143  28.9090691
  43.9579201  63.8605995  28.9099884  45.2732773  63.5136299  29.5736408
  46.5221558  49.6527481  45.3380775  46.5969162  48.6985283  45.3484421
  47.1152573  49.9469833  46.0293694  73.1319199  33.5718536  48.1608124
  73.6864853  34.0882378  48.7456474  73.0705185  34.0972977  47.3630829
   0.4212336  12.1574621   1.0230566   0.1485730  11.7780867   1.8584982
  -0.3751134  12.5525665   0.6681542  59.8781471  53.3946495  24.4543648
  59.3180809  53.6496010  23.7211819  60.4080200  52.6747627  24.1119709
  38.2637863  14.2921734  70.2844696  39.0585442  14.7034092  69.9446487
  37.7646103  15.0144520  70.6657410   9.7843761  21.7078533  13.2822905
  10.5372343  21.1190739  13.3349829   9.0559559  21.1974812  13.6360636
  72.4344788  62.2987404  73.6019669  72.2427216  61.4631462  73.1762390
  72.4969788  62.0845184  74.5327911  38.4691162  43.6342621  51.3485756
  39.0435295  43.7240791  50.5881691  39.0059814  43.1870499  52.0028000
  51.5650063  55.3928986  84.4133606  51.5340004  55.0377884  85.3017120
  52.4850731  55.3219681  84.1590500  53.6651688   6.0199056  17.5073051
  53.4031944   5.7774239  18.3954506  53.9029922   6.9448419  17.5718460
  34.4578018  42.5839691  18.4298077  34.4211998  41.6947861  18.7822876
  33.6028633  42.7143707  18.0195599   1.0710144  71.1018906  20.8389244
   1.7911848  71.6473236  21.1552925   0.3022006  71.6702957  20.8843994
  30.4886532  58.2240334  81.1185608  30.8794041  57.3507156  81.0891953
  30.7259026  58.6208878  80.2804413  54.9418602  27.4238434  31.8773899
  55.7233200  26.8805771  31.9794388  54.2277489  26.8815517  32.2123451
   7.8482323  54.6431885  58.8995171   8.2231789  55.4644051  58.5813179
   8.1590691  53.9823341  58.2807350   1.7047964  50.8788490  65.8631516
   0.8673012  50.4589653  65.6668625   2.1922250  50.8372650  65.0404053
  12.6011324   8.5245914  54.0072670  12.3674965   9.4297085  53.8013306
  11.7921047   8.0314798  53.8710861  10.4114513   6.8154087  53.1189995
  11.0906754   6.1548266  53.2550774   9.6933136   6.3383904  52.7031097
  13.6608000  33.6476173  73.5426102  13.9559298  34.2817574  74.1960602
  12.7094374  33.6230698  73.6452637  47.5190125  60.1439781  14.4077263
  47.4612923  60.5414238  15.2765980  47.2963829  59.2239532  14.5499210
  65.0588608  45.0318260  47.0005646  64.2829742  44.7231331  46.5326576
  64.7199173  45.3702583  47.8293076  84.5095520   4.8673096  11.3936176
  83.7909012   4.4105182  10.9564590  85.1510849   5.0232091  10.7005301
  55.5432129   1.4099698   4.1393366  55.1610451   0.5764759   4.4140491
  55.6092606   1.9206842   4.9462070  61.5489845  23.8980141  12.4151974
  61.7466545  23.5690575  13.2920933  61.9915199  23.2879200  11.8251286
  61.8413658  24.4112339  59.3300056  62.7603836  24.1845703  59.1876564
  61.6791916  24.1893101  60.2468948  28.2711620  57.4530067  33.5884514
  28.2729149  57.8953781  32.7396049  27.8601837  58.0794716  34.1841621
  66.0257339  71.4339981  56.5851860  66.8528900  70.9916000  56.3945770
  65.8806992  71.2789078  57.5185356  10.4435329  29.7711163   3.4914260
  10.7095737  29.1075993   4.1279783   9.5326614  29.9642830   3.7133045
  70.2820663   2.8019187   6.4923077  70.2123489   1.9699150   6.0241828
  70.0111237   2.5967040   7.3871312  23.6917019  58.8174629  16.0308380
  23.0538750  59.2466965  15.4606028  23.1608601  58.3694420  16.6894073
  78.8803482  23.9888210  74.0730133  78.3123703  23.3293095  73.6746674
  79.0134735  24.6386242  73.3828964  68.7868118  46.4874763  17.2950191
  69.5538483  45.9566803  17.0802212  68.0408478  45.9198303  17.1012573
   5.5510402  57.2698326  31.3308277   5.6294847  57.2471237  30.3771172
   4.6160145  57.1502762  31.4971542  46.9784088  68.2260437  65.3189697
  47.0387268  68.7834091  64.5431213  47.7787476  67.7013397  65.2997437
  63.1820793  49.7167320  74.0937119  63.5547142  49.3479843  74.8945847
  63.1645203  48.9838829  73.4781952  33.1239662  17.1487274  78.2247009
  33.5548553  17.7551517  77.6223602  32.1909027  17.3407497  78.1311722
  49.8878517  17.6596622  17.2298527  50.3045883  18.4152184  17.6442184
  49.4203453  17.2234402  17.9421597  75.8521957  46.2631950  13.7892208
  75.4514771  46.6072922  12.9909420  75.7560959  45.3136978  13.7153721
  65.8259430  55.6030807   4.5565901  65.4206619  54.7616806   4.3467593
  65.2764740  55.9671173   5.2507052  39.8474464  14.7123632  81.3592911
  40.5843697  14.2718220  80.9360886  39.8441811  14.3689947  82.2527771
  81.8444214  35.4642372   0.4470668  82.2910080  35.2821732   1.2738948
  82.1067581  36.3575478   0.2247968  79.8783264  29.0578136  14.5980129
  79.5938950  29.4203644  13.7590322  79.6933746  29.7497807  15.2329979
  86.2670517  30.4223518  62.1639328  85.3924103  30.6790543  61.8718033
  86.1937027  29.4852810  62.3449020  46.1966896   9.6912632  30.6858387
  45.9649086   8.8215561  30.3600807  47.1533585   9.7096643  30.6597977
  80.6461182  37.2887192  48.0871277  81.2887115  37.2531204  47.3785858
  80.5977402  36.3896370  48.4119911  77.4872665  61.7000084  81.0527573
  76.8525772  61.1324081  81.4900513  78.1052551  61.9437981  81.7418747
  37.5113182  63.7364197  42.4668770  36.5660324  63.6791801  42.3276215
  37.8934097  63.3576050  41.6752090  74.5625839  49.5533600  42.2823715
  74.4507446  50.4126015  42.6890945  75.1445923  49.7138939  41.5395889
  67.7070084  13.3879242  51.5691643  67.7609406  12.4490509  51.7476044
  68.4662323  13.7608690  52.0171928  19.3068581  41.2283821  49.4490089
  19.6595669  41.3001633  50.3359566  19.4507599  42.0925598  49.0633621
  40.6274872  27.2507915  45.3970680  41.0021820  26.3987579  45.1737442
  39.8344841  27.3107586  44.8643608  31.9229660  14.3095198  11.2352152
  31.5965939  14.5327101  12.1069384  32.6646233  13.7269945  11.3990393
  12.1149654  67.7608032  19.9265785  12.5575628  68.5471954  19.6073189
  11.3334436  68.0895081  20.3708878  56.7045403  46.4082756  64.8145447
  57.0275803  47.2972946  64.6678467  56.7175369  46.0026245  63.9476509
  81.6658936  10.3415174  67.7941132  82.0590134  10.1926231  66.9341583
  82.3792114  10.6949549  68.3256073  65.2414932  63.8953972  28.6801586
  65.6880569  64.5071106  29.2654953  64.3192368  63.9555244  28.9292679
  41.5772667  52.1006737  60.5109558  41.4025841  51.3837318  59.9012756
  41.1305504  51.8434296  61.3174896  32.0895538  58.3617859  74.5173187
  31.8987160  57.7810135  73.7807617  31.5120544  58.0580902  75.2176743
  59.9070091   0.4232964  87.2974930  59.7289124   0.3697223  88.2364578
  59.9095230  -0.4871032  87.0018616  42.5718689  53.1932297  82.1092377
  43.4613647  53.3700409  81.8030167  42.3231583  52.3816414  81.6668549
  69.3828964  64.1115341   7.8294573  69.6009369  63.7472191   8.6873417
  68.6248016  63.6041756   7.5394387  51.4710464  14.4323826  57.3982658
  52.3702278  14.3694658  57.7203712  51.3497963  15.3623333  57.2066383
  48.9267311  37.7012634  28.0261078  48.6587486  38.2292671  28.7781887
  49.6910210  37.2148323  28.3351097  61.6114845  64.4556580  42.8826637
  60.9176598  64.3053284  42.2406082  61.4303780  65.3286209  43.2310486
  79.6801376  58.2035904  29.4056263  79.7586975  57.6906929  30.2099857
  78.7425766  58.2044678  29.2127342  23.5687046  18.9097385   2.9459343
  22.6996136  18.5771008   2.7217379  23.8120613  18.4296455   3.7374647
  15.2769060  53.2826118  73.9661636  14.6626806  52.9961243  74.6420975
  15.9998331  53.6794357  74.4521103  65.7345428   8.4555597  72.8729553
  64.9813309   7.9125533  72.6404648  65.5410156   8.7677593  73.7568665
  39.2785759  59.2250595   2.7110751  38.5738220  59.8315887   2.4837527
  38.9691162  58.7840233   3.5022492  75.6647491  49.0344238   3.1615427
  75.3052902  48.5602951   2.4117277  74.8973770  49.2908745   3.6730158
   6.3856831  12.3448210  75.0455093   5.6036205  12.6058302  75.5318069
   6.5087285  13.0398159  74.3989182  61.0449028  10.3490524  50.4256248
  60.5858345  10.8524866  49.7532845  61.0763779   9.4578390  50.0778008
  45.6457748  16.2363281  62.0517235  45.3951225  17.0608387  61.6350861
  46.4959335  16.4189262  62.4518776  74.5934525  18.0060024  55.6084976
  73.8777924  17.5796719  55.1370087  74.5806503  17.6044350  56.4772949
  25.9534931  68.3550491   3.2527678  26.5849056  68.8629837   2.7433014
  25.1723518  68.3209000   2.7006042  81.0081787  35.1889076  23.8074245
  81.2783432  35.8028831  23.1245804  81.6153030  34.4537849  23.7223892
  24.1253357  40.6750679  58.3181953  24.0483875  40.5412483  59.2628670
  24.2283649  39.7937965  57.9590607  51.3461266  43.0253487  84.0551682
  50.6600380  42.3581772  84.0750122  51.0592194  43.6440430  83.3834991
  55.3841400  57.9802437  38.3818474  55.2058258  58.2043762  39.2951927
  54.6127243  57.4880180  38.1010208  78.7025604  26.1254463  63.4361916
  78.4919205  26.9554386  63.0084343  78.6989594  25.4827404  62.7268639
  21.0187416  50.4048386  13.6577616  21.3505402  50.9744492  12.9637260
  20.0718632  50.5448265  13.6503057  53.9397125  36.6239510   1.9760332
  52.9976311  36.7475357   2.0919859  54.0524712  35.6746941   1.9267027
  12.6305256  31.2889385  81.0553818  12.1288977  31.5667744  80.2889557
  13.3174801  31.9495487  81.1443710  78.2109451  66.4292526  48.7408562
  77.2671127  66.4839325  48.8905678  78.3509903  66.9012756  47.9199944
  29.0722504  58.2569427  61.6848640  29.1094055  58.6391907  62.5616379
  29.8666096  57.7267227  61.6208801  61.5988235   0.8547400  70.9480057
  61.7755737   0.4054521  71.7745209  62.2462349   0.4994345  70.3390350
  15.5230608  26.6288338  61.6958427  15.7221880  25.9530907  62.3438759
  15.1793709  26.1459961  60.9441910  66.9267120   3.7606933  16.0411968
  66.3450470   4.3327303  16.5418625  66.3626785   3.3710873  15.3731384
   3.5028524  58.2178841  41.6556625   3.8726461  58.4148788  40.7950363
   4.2610688  58.1769409  42.2384720  24.8675900  48.7837181  24.7411938
  24.3008118  48.1877747  25.2309361  25.0062695  48.3462219  23.9011955
  17.6531696  22.1151237  67.6406784  18.3398666  22.2557030  68.2925339
  16.8453331  22.0622139  68.1513977   5.6784048  33.6272774  10.7458124
   6.5322375  33.2051468  10.8407221   5.1981597  33.3764153  11.5349035
  62.8367996  42.8137856  72.2659073  62.3863068  42.2957001  71.5989151
  62.1899261  43.4629250  72.5423203  73.1207886  56.9081268  41.6175079
  73.7954483  57.5497208  41.3951797  72.5842438  57.3443451  42.2793732
  19.7347736  34.2761765  75.3936157  19.9626846  34.5798187  76.2723083
  20.0804977  34.9512939  74.8097382  70.9423599  65.0688324  66.4974899
  70.0537796  65.1838913  66.8342667  71.3695602  64.5002441  67.1381454
  26.1335545  27.6756935  65.4154816  26.6098289  27.0117092  65.9139938
  25.6413879  28.1636448  66.0757141  76.4929123  29.0422020  71.5221939
  77.1140900  29.2356930  70.8201065  76.9381638  28.3897820  72.0628738
  37.4450264  53.7892799   4.7602448  38.1502037  54.2703972   5.1932402
  37.5717087  53.9660187   3.8280721   1.6080381  13.8674307  51.6165733
   2.2607388  14.5648708  51.6781425   1.1857424  13.8580923  52.4755325
  75.2243729  23.4073448  37.7118263  75.4169159  22.9511604  38.5310020
  75.9812164  23.9761410  37.5708122  15.8326607   5.0844674  14.8181467
  15.2132206   4.5617476  15.3273516  16.6938267   4.7652559  15.0878277
  79.2667847  12.7475471   0.5500660  80.0045013  12.4797325   1.0980405
  79.3757858  12.2480669  -0.2591740  36.6365433  50.5742950  28.5969543
  35.8748703  50.0650330  28.3199368  36.9605293  50.1176147  29.3732967
   7.0036731  18.1080437  63.1820412   7.3125391  19.0128136  63.2292366
   6.0561018  18.1718998  63.3014679  25.3117504  27.6327114  84.9503555
  25.4997234  26.6991024  84.8540726  25.1005955  27.9271374  84.0643768
  68.0279312  21.9147434  21.1723289  68.6268387  22.3377514  21.7876377
  68.4153671  21.0538044  21.0144997   4.6238027  53.9125786  47.7875557
   4.0652924  53.2958527  47.3143272   4.3103166  53.8748360  48.6911774
  40.6863708  40.7703285  35.1436005  40.8104134  41.6939125  35.3623161
  40.0528107  40.4546051  35.7879257  34.6404419   7.6358199  18.5464897
  34.4940796   7.1674008  19.3683128  34.7572365   8.5489435  18.8087826
  31.1232758  29.4295387  45.7465172  30.7386799  28.7239304  46.2665520
  32.0310135  29.4803677  46.0459557  46.7819366  15.1261816  41.1670227
  46.9901848  14.4305382  41.7906799  46.0033646  15.5482702  41.5302010
  45.6861343  14.2124557  65.7238312  44.9191551  13.6404114  65.7511139
  45.3531036  15.0436106  65.3854446  40.7407951  21.3686447   5.9406099
  40.8908539  21.1306725   5.0256872  40.9678154  20.5801411   6.4335141
   4.5768843   8.5510445  82.5904465   5.5315566   8.5790033  82.5267944
   4.2940044   9.4291506  82.3352203  57.8132896  22.7591877  50.5510292
  57.2258873  22.3736877  51.2010918  58.5497246  22.1496601  50.5023422
  61.9069710  14.8645744   8.4621468  61.8073540  14.3974857   9.2916861
  62.7027588  14.4991674   8.0755892  78.3650360  11.2273712  17.9270382
  79.1185837  10.9480181  17.4070797  78.4621201  12.1769514  17.9984856
  36.3060417  52.1261063  40.2245712  36.0664253  51.2431488  39.9431343
  36.8651352  52.4579468  39.5220566  84.9012070  26.7101326  46.7987938
  84.8763351  26.7277622  47.7555084  85.1595840  27.5974560  46.5495300
   7.0188680  37.2836990  79.0345306   7.9670305  37.1964798  79.1325760
   6.9069734  38.0202293  78.4335022  56.0101128  67.5990982  80.7966995
  55.4342194  67.7480469  80.0467758  55.4164314  67.3793411  81.5146713
  47.7274399  68.1773529  51.7437096  47.1582527  68.1062164  52.5099945
  47.7877846  67.2835922  51.4063835  33.7823257  36.9423294  75.8088608
  33.4712791  36.2349358  75.2439957  33.5733376  37.7427864  75.3273849
   3.6500332  32.7214279  47.8795815   2.8104532  32.2627525  47.9104614
   3.9013424  32.8230591  48.7975922  60.5600967  46.8435974  79.3819046
  60.2606468  47.2602501  80.1899643  61.3635063  46.3869476  79.6313782
  83.6188660  10.9787102   1.0908666  83.6698914  10.2059231   0.5283474
  84.1974182  10.7780552   1.8265643  31.6670589  28.5136795   3.5316968
  31.1615982  29.0309734   4.1587114  31.0563316  28.3427582   2.8147378
  74.5280304   0.9987500  85.1977844  74.0488815   1.1374804  86.0147324
  75.4450073   1.1449972  85.4301300  43.5343513  41.9322357  70.8165131
  43.0464058  41.1438789  71.0544815  42.8751183  42.6260376  70.7998276
  65.2108383  41.5986786  68.5889282  64.9790421  40.6699677  68.5887222
  66.1674728  41.6067848  68.5571823  72.5866165  13.1932478  37.6104431
  72.7359314  13.5867519  38.4701462  73.2497406  12.5062532  37.5430527
  16.1254940  56.0166779  58.9189568  15.2758913  56.3832016  58.6738663
  15.9174356  55.1633873  59.2995300  83.5392990  14.2224827  80.1444626
  84.4359665  13.9400539  80.3246155  83.6074753  14.7380810  79.3408813
  84.5179291  36.6689072  25.9384270  83.9297180  36.3774643  26.6350651
  85.1678619  37.2114258  26.3850689  74.3016891   2.8510454  47.7422791
  73.8670273   3.6439528  48.0562859  75.2093887   3.1173923  47.5960846
   4.7039285  32.7468300  69.9692307   4.8999319  33.6381874  70.2578430
   3.9215088  32.5017395  70.4631805  78.2006226   9.1079283  38.9876709
  77.3722305   9.4761772  39.2949066  77.9633026   8.2548704  38.6240692
  35.6260872  11.7087984   7.1114335  35.6301727  12.4560862   6.5132895
  35.9422379  10.9766054   6.5821176  71.1297455  64.1357498  52.3499336
  71.0192490  64.8914185  51.7728844  71.6272049  64.4737396  53.0945969
  76.3207092  60.3837776  49.9019394  75.8090439  59.7924805  49.3498573
  77.1822357  59.9708443  49.9610138  85.2617950  30.3815575  89.0641479
  84.3991776  30.2899666  88.6595078  85.8767319  30.1188431  88.3792648
  64.9302063  31.3515968  28.4432697  64.6834869  30.5387154  28.8843880
  64.7328720  31.1926270  27.5202217  49.3898659  29.0524864  85.6723785
  49.6784363  28.5801258  84.8914566  48.6445999  29.5743313  85.3749084
   9.3224306  63.9622192   3.9789126   9.1003904  63.0430527   4.1274457
  10.1860409  64.0675201   4.3780613  60.5122719  53.8266487  72.4803543
  60.5835152  53.1136894  71.8456573  59.6540718  53.7017975  72.8854904
  10.6292477  34.7774506  64.5710754  10.1240501  35.5898972  64.5403900
  11.1604204  34.8554955  65.3635406  57.0365143  50.2128334  31.1089668
  57.3682632  49.3341713  31.2937126  56.1067848  50.0833511  30.9216995
  23.0041313  62.9297867  40.7408752  23.6445904  63.4118195  40.2177200
  23.2355709  63.1308136  41.6476593  60.9735184   6.4101954  11.3189631
  61.7468796   6.1510801  11.8199635  60.8235168   7.3229914  11.5650005
  54.7715340   9.1426449  31.7087593  54.6684761   8.9145651  30.7848606
  54.8539467  10.0962839  31.7122898  71.3185806  44.3546219  20.7728024
  71.5590057  44.9931412  21.4441605  70.5225754  43.9423828  21.1084538
  24.0784073  24.1950912  70.3147812  23.6999722  23.3752708  70.6324539
  23.4928112  24.8745346  70.6489410  84.7095642   9.3072147  81.3860168
  85.1102829   9.0993118  80.5419617  85.2983551   9.9518976  81.7783737
  59.5580177   1.2005576   5.1281562  59.3551865   0.8664280   4.2544007
  58.9769974   0.7128444   5.7119222  47.5812874  53.3066216  47.5181656
  48.2905045  53.7997437  47.1057625  47.9600105  52.9793777  48.3340759
  69.2987900   5.3754210  39.3627357  68.4190063   5.6950841  39.5627861
  69.6677094   5.1407108  40.2142296  77.2815857  13.7693157   9.6216326
  77.0997314  13.6492128  10.5536938  77.3571777  12.8799763   9.2758112
  74.2323074   1.2941418   5.2461967  73.6270523   0.5772582   5.4358692
  75.0384521   0.8596381   4.9676690  72.9170151  18.0611076  86.1390610
  72.0669479  18.4993496  86.1786118  73.2637405  18.2884007  85.2763062
  70.7517471  36.6858749  18.7604561  71.1571274  36.2173538  19.4901047
  70.4181824  35.9950485  18.1879845  35.2703400  31.5081043  11.8925409
  34.8810654  31.1415253  12.6864653  34.5904503  31.4113674  11.2257423
   8.0668221  22.9962311  88.5109863   8.8467360  22.5008259  88.7610626
   7.3625517  22.3479919  88.5064621  60.3231468  67.8635483  21.0863094
  60.6133385  68.6339188  21.5747337  61.1291847  67.3847580  20.8932018
   3.0476749  57.8457260  35.7480087   3.2064905  58.3841133  36.5233498
   3.9069972  57.7613754  35.3348732  39.5536499  33.7807274  32.0597763
  39.2503242  32.9962044  31.6028862  40.1203079  34.2222748  31.4271851
  20.9449539  60.5824394  84.0814285  21.6290340  60.7128563  83.4247284
  21.2536373  61.0654526  84.8480148  68.8659439  38.1988754  21.9947567
  68.0299225  37.9068184  21.6314373  69.1872101  37.4463387  22.4914513
  44.3595390  37.3335381  29.3501644  43.5713005  37.7159157  28.9645519
  44.8103676  36.9205704  28.6136551   1.7981786  17.7234154  64.0057755
   1.1557292  17.2153301  63.5104561   2.1249733  17.1151619  64.6686935
  11.4110594  21.0277748  86.1076813  10.6156006  21.2023487  85.6046829
  12.0530396  20.7532120  85.4529190  81.7537308  22.3214340   0.8905987
  81.7606506  21.5251846   1.4217968  81.2214432  22.0957966   0.1277177
  36.0349007  50.2627525  12.1821404  36.9441414  49.9703140  12.1189528
  36.0917053  51.1430435  12.5537453  52.7225189  69.0148849  87.6501770
  52.8179131  69.3392944  88.5456619  51.7924843  68.8031693  87.5699387
   3.7611821  21.6465683   8.2953968   4.1594157  20.8207798   8.0202293
   2.8395448  21.5610161   8.0514755  76.6807327  57.8760376  28.7177639
  75.7952652  57.5166397  28.7727299  77.1901321  57.1923561  28.2826557
  47.2028847  14.0590591   1.8207099  47.5778351  14.1817265   2.6928310
  46.4303169  13.5131283   1.9667705  53.2215729  11.0099421  16.4811611
  52.4202957  11.2662439  16.9377766  53.7111893  11.8262081  16.3800888
  68.7016220  42.2141495  53.3492699  67.9400330  42.3248062  53.9184494
  68.7024078  42.9950485  52.7957115  57.7798500   4.0899110  82.1311722
  58.6847420   4.2796750  82.3789520  57.4827576   3.4516559  82.7797089
  85.2015152  30.5035458  37.5680313  84.5522614  30.1438084  38.1724205
  85.6547699  29.7361679  37.2188568  62.6846008  13.9354687  83.6576385
  63.1122780  14.7560654  83.4127960  62.3151169  13.6044083  82.8390350
  32.2331657  46.4183769  30.7875462  32.3952026  45.5232506  30.4896774
  31.5326195  46.3325157  31.4341488  72.4637909  10.4731293  41.0477562
  72.1412506   9.8461437  41.6951256  73.3455734  10.6944284  41.3472786
   4.6860752  44.5547638  10.2772341   4.1467695  44.8964729   9.5640612
   5.1858125  45.3115654  10.5834093  45.9954948  71.4398727  23.8133202
  45.6002159  71.6190872  24.6664715  45.2634888  71.1582489  23.2646065
  41.3549805  51.6943817  42.6917572  41.0756874  52.3594246  42.0625153
  42.2030907  51.3954735  42.3637466  80.7536469  68.2607956   6.4540019
  80.7155762  67.9632416   7.3629813  80.3666229  69.1360703   6.4720974
  76.7450104  51.4875565   3.4812987  76.5620422  50.5690727   3.2834513
  76.4112091  51.6122932   4.3696952  40.4164467  26.0476570  67.6147003
  40.5103836  25.5284805  66.8160400  39.6447678  26.5916996  67.4573364
  21.2564526  68.3748093  54.9575462  20.8026390  67.8445511  55.6126137
  20.7476521  68.2524796  54.1560555  36.4543381  53.4077492  21.5584297
  36.2713013  53.5978851  22.4785271  35.6256218  53.0759125  21.2129745
  14.3290167  26.6668377   7.0174065  15.2684431  26.7893372   6.8806443
  14.0327654  26.1969261   6.2378879  22.7878494  50.6311378  67.3354416
  23.3970528  51.3172035  67.6082382  21.9382515  50.9183617  67.6699829
  81.9843445  21.0994358  72.6600113  82.2961884  21.7531872  73.2857819
  81.0660477  20.9634151  72.8933716   1.5535985   0.1149868  67.8229065
   1.8848238  -0.7786825  67.9116592   2.3300288   0.6679602  67.9101334
  54.7177963  44.8226891   9.0718088  54.7415810  45.2467613   8.2140026
  55.6158333  44.8885040   9.3965111  82.8156281  46.1356850  78.1550140
  83.7271500  46.0248718  77.8846817  82.4351425  45.2606583  78.0788422
  81.0275650  15.2701817  40.1431236  81.4206238  14.7189980  40.8198357
  80.2126389  15.5851202  40.5341911  37.8332672  58.5309258  40.1280746
  37.6013718  59.3691330  39.7282486  38.0961914  58.7558632  41.0205460
  83.7259521  18.8414593  75.8175354  83.2993393  19.6840954  75.9730911
  83.7535629  18.4243946  76.6786575  25.0336571  38.4345093  55.3137169
  25.5270214  37.6827507  55.6418610  25.3334980  38.5422592  54.4110985
   7.5816383  62.0597343  51.6582108   7.5510988  62.4672852  50.7926445
   8.4855957  61.7584152  51.7493057  67.2782516  44.2751122  48.7358665
  67.4448471  43.3325882  48.7469559  66.4184494  44.3615379  48.3241501
   9.4089241  20.3707829  21.4051247   8.9752092  20.3463554  22.2580776
   9.5196791  21.3032284  21.2193604  72.9309692  64.2991562  11.3857145
  72.7252884  63.5044594  11.8780422  72.6008072  64.1268234  10.5039406
  60.0086670   3.7204273  58.1040649  59.2626915   3.3486381  58.5747299
  59.9306755   4.6648054  58.2393379  12.7232389  59.7128067  24.5608215
  12.0746536  59.1133766  24.1916981  13.2478151  59.1669693  25.1465816
   2.7347755  36.3286552  33.5949783   3.2328663  36.1403809  34.3903961
   2.9282911  35.5946693  33.0118408  19.8960915  43.7933578  55.5537682
  20.5111904  43.0612183  55.5968437  20.3927746  44.4994545  55.1402893
  49.5013428  42.5021057  54.2662201  49.1382866  42.4907265  55.1518211
  50.3662758  42.8995438  54.3670311  14.1999245   0.1743918  68.2000732
  14.3254795   1.0935766  68.4357986  15.0699787  -0.2155756  68.2847061
   4.8511696  42.3136330  38.5915527   4.1238885  42.6189384  39.1338425
   5.6270223  42.4412842  39.1374359   5.3337231  69.5578995  54.2938499
   5.1809793  70.4843369  54.4798698   5.4822268  69.1624527  55.1528015
  29.3438931  32.9092712  15.5103579  29.7558384  32.6091194  16.3205700
  28.6796207  32.2469635  15.3197794  71.6210403  56.8950043  69.4039536
  71.2789764  56.3759079  70.1318054  72.4327774  56.4529305  69.1551819
  86.5240402  51.3844910  34.3111496  85.6304626  51.0635910  34.1896362
  87.0743713  50.7284508  33.8833809  49.4041328  56.0110245  64.0877075
  48.4786263  55.7699203  64.1269302  49.8667297  55.1755714  64.0224915
  51.1799583  -0.1785070  54.9453926  52.0115929  -0.1867838  54.4715309
  51.0878525   0.7236356  55.2518044  75.9752884  44.9912567  26.5159187
  76.7280350  45.3890839  26.9533443  76.3098602  44.1647797  26.1677322
  78.9521713  66.2351227  28.8749104  79.7384186  65.8036270  29.2093639
  78.4555206  66.4692001  29.6589870  37.5433311  70.0385361  33.6837578
  37.9046898  70.9187317  33.5793076  37.1654510  70.0375671  34.5632095
  40.9670563   6.6619916   2.0441964  40.4002991   7.3575506   1.7107079
  40.3652344   5.9582367   2.2866209  85.8017502  70.0998840  58.9733543
  85.8393707  69.3837051  58.3393936  86.6465912  70.0671158  59.4221344
  23.0212650  31.2766418  19.4391785  22.7195740  31.9842014  20.0088940
  22.9676838  31.6411304  18.5557137  41.0977592  17.6704807  76.2913437
  40.1770401  17.4088421  76.2836761  41.1834259  18.2224884  77.0686340
  72.8228302  49.0262489  84.3871613  72.6522598  49.9670906  84.4313812
  73.5443420  48.8845749  85.0000076  37.0449295  46.6355324  25.9156437
  37.2801590  47.5223846  26.1884022  37.8531265  46.1322632  26.0144691
  63.6866493  38.3549042  45.0381355  63.2938805  39.1642990  45.3650017
  64.2458115  38.0537796  45.7542992   6.7207842  51.1794472   4.1328526
   6.2199779  50.7845230   3.4190884   6.1175470  51.8078804   4.5295959
  44.7492905  36.5652847  34.6167221  44.1978416  36.9101982  35.3189812
  44.1321716  36.1782150  33.9957771  75.7078323  28.1467667   2.7139273
  75.0039368  27.9995232   3.3456557  75.9749298  27.2681637   2.4438403
  18.5470505  50.4463043  89.3768539  18.3044376  51.3574066  89.2117233
  17.9596424  49.9370461  88.8184280  27.9061947   1.3040527  42.4103279
  28.4852543   1.1824383  41.6579094  27.5541172   2.1874454  42.3012810
  61.9931679  19.6242027  10.9273672  62.8787918  19.2621174  10.8990936
  61.5651779  19.2714729  10.1472139  48.4219398  32.9951057  78.5447693
  47.6637764  32.7185135  78.0300674  48.0481682  33.4829216  79.2786331
  75.1696091  38.4321976  87.8653336  74.5001602  38.4233284  88.5494385
  75.9313583  38.0174637  88.2702560  79.5671921  11.2609348  87.3538666
  78.9912109  10.7390594  86.7951889  80.3740540  11.3522758  86.8470535
  51.5413589  36.5009537  85.7840576  52.4668236  36.4992981  85.5396347
  51.2625542  35.5920753  85.6725464  49.7929878  16.7042408  60.6999245
  49.6078491  15.7652826  60.7176094  49.5929947  16.9709396  59.8026466
  27.4659805  54.1534729   2.0011971  27.8901234  53.7539787   2.7606297
  26.9483528  54.8712578   2.3659949  50.6476479  24.1969719  30.2390671
  50.3325653  23.3177910  30.0293102  50.8256760  24.5970116  29.3878880
  12.2264757  20.5434551  13.3382559  12.2294006  20.5081234  12.3817120
  12.9460363  19.9696445  13.6013269  52.2056923  69.1512604  25.8835602
  52.3349037  68.6617432  26.6959076  53.0734367  69.1798248  25.4805317
  60.8416443  32.3414917  58.3412743  60.7324715  32.4915199  57.4022293
  59.9732742  32.4996109  58.7116356  82.0031509  63.1624336  37.4386520
  81.8447113  64.0297394  37.8113480  81.2956238  62.6194725  37.7862511
  64.8433151  10.4715471  52.5228920  65.3956375  11.1890659  52.8332863
  64.6301880  10.7067356  51.6198463  50.4715729  54.1004028  79.8010330
  50.7898331  54.8394775  80.3194122  50.9673843  54.1499290  78.9837494
  71.6037979  45.6322784  74.8738632  71.4513474  44.6981850  74.7308044
  71.5834808  46.0153389  73.9968872   4.1703787  65.6523972   3.7839830
   3.4399867  65.4495773   4.3684707   4.9487834  65.3801575   4.2699924
  46.6045151  35.9206276  28.1307354  47.2300377  36.6334534  28.0009918
  46.9604568  35.4203148  28.8650532  70.4603119  21.0341759  65.9574509
  70.8208389  20.3690414  65.3710632  69.8187561  20.5626812  66.4887924
  31.1019039  24.2327938  13.8342724  31.7957764  24.2873878  13.1771622
  30.6863766  23.3855171  13.6739950  30.0388279  65.4183350  46.5234604
  30.6295280  66.1606293  46.6511803  29.5382023  65.6428299  45.7391052
  42.0960884  57.0067444  30.6996136  43.0092506  57.0283318  30.4134369
  42.0582237  57.6280479  31.4267845  37.0700455  69.3992615  12.9553652
  37.3893166  69.5815735  13.8391399  36.1232147  69.3030930  13.0578442
  73.9068146  69.8588409   3.0690994  74.1792374  70.5623779   2.4799871
  73.7535172  70.2944183   3.9075534  78.0029984  34.3456573  30.9796543
  77.6215515  33.8819771  30.2341766  77.4594040  34.0894394  31.7246990
   9.3886337  61.2923660  31.8098831   8.7175474  60.9173203  32.3801613
   9.0573006  61.1486320  30.9234352  45.5049171  22.0389233  78.0971527
  46.0357094  22.2472572  77.3283310  44.8658180  22.7497864  78.1467438
  75.3895111   5.8949294  63.4705887  76.2583008   5.5061498  63.5720329
  75.4261169   6.7008410  63.9857559  50.8042297  40.7275162  35.4115944
  51.7291870  40.9180794  35.2554970  50.7513809  40.5502625  36.3507538
  49.6572571   8.1526670  66.1608124  49.7513771   8.5332136  67.0340576
  49.1061172   8.7751083  65.6864319  72.6987686  56.2422791  58.7060280
  71.8573761  56.0291634  59.1096039  73.1495895  55.4010010  58.6335907
  29.3347702  69.0766220  84.1694183  28.7855892  68.6954117  83.4843521
  29.9014149  69.6937103  83.7064438  39.3937073  22.1475658  72.6508560
  38.7159081  22.3519573  73.2950897  40.1973724  22.0703049  73.1650391
   8.2804117  68.2787018  57.3005791   7.3688111  68.4155197  57.0427132
   8.6162300  69.1589890  57.4695473  11.9088888  58.1265869  50.5554848
  11.4031219  58.3883514  49.7861290  12.3518791  57.3212433  50.2882500
  39.7467384  27.5797863  63.7306137  39.7798805  28.4500847  64.1277466
  39.4553909  27.7372627  62.8325310  10.1063957   0.3149234  63.0559120
  10.4533577  -0.5370613  63.3204346  10.8369284   0.9205320  63.1815796
   1.3083078  29.2158890  22.5881023   2.1222410  29.2044563  23.0917015
   1.5883991  29.1187897  21.6779633  47.2531052  43.8158913  59.9104233
  47.6096115  43.0867271  60.4178238  46.4402924  44.0461006  60.3605042
  84.1329422  59.5478058  45.8215218  83.8858871  60.3378258  46.3022118
  84.0381165  58.8400841  46.4589958  65.2317581  37.9799385  65.9539261
  66.1542892  37.9686012  66.2089386  64.7776184  38.3437233  66.7139664
  10.8680134   2.4286394  13.4863720  11.2911463   1.5701437  13.4996271
   9.9646606   2.2545283  13.7507057  79.6460190  38.1199646  26.3751297
  79.4690018  38.9954529  26.7192478  80.5334167  38.1767845  26.0208359
  37.8896866  53.6471558  44.7122002  37.2497749  53.5786552  44.0036392
  38.3679504  52.8184853  44.6839447  42.9728851  58.5847054  58.2762833
  43.2195587  57.8314056  57.7397003  43.7523117  59.1403084  58.2818565
  76.9667282  24.7836761  80.3708344  76.0856018  24.5680294  80.6763535
  77.5438843  24.2229156  80.8891754  41.6298714  40.4492149  79.0733337
  42.5169754  40.6703835  78.7898483  41.1620636  41.2843018  79.0696716
   6.6721859  60.1247063  23.6092205   5.8370290  59.6695671  23.7168961
   7.2954483  59.6048126  24.1166515  41.7913246  24.3609676  53.4029655
  40.8505287  24.4907455  53.5225220  42.1704483  25.2315540  53.5237045
  16.1975441  59.2029839  75.2433319  15.2944221  59.4849129  75.0980148
  16.4122887  59.5283241  76.1175613  28.0893269   5.4107327  70.9765015
  27.7856216   4.6174355  70.5352859  27.9127884   6.1145325  70.3522186
   5.9789228  57.3764076  21.8580303   5.1645913  57.6635017  21.4449043
   6.6042724  58.0751610  21.6659012  51.2911186  40.8851585  80.4030914
  51.6730690  40.2949905  79.7534409  51.1622276  41.7085152  79.9322433
   3.6686482  44.3643265  42.7122650   3.6651525  43.8006325  41.9386559
   3.7294636  45.2526817  42.3610382  68.1072540  68.4518814  14.3291311
  67.2297440  68.0939102  14.4635401  68.1670303  68.5909042  13.3839693
  69.5180435  46.3155823  27.8212032  68.9632874  45.8696518  28.4612179
  70.3936768  45.9607048  27.9747219   3.5916970  71.4722595  64.0956573
   4.2908912  71.3224182  64.7319794   3.5320287  70.6510315  63.6075439
  47.2677002  53.2155266  26.2974129  47.1694756  54.0886955  25.9177303
  48.1632805  52.9583931  26.0782032  60.8572731  61.4387779  10.4609947
  60.3066978  61.9702759  11.0359802  60.2374077  60.9680099   9.9038811
  68.4959412  45.2487259  56.7152863  69.1123657  45.7617264  57.2378616
  69.0502243  44.7265511  56.1353493   5.1509886  50.7680435  35.6452293
   5.9956932  50.8134880  35.1973000   5.0937486  51.5899467  36.1324921
  47.0401115  50.1065025  17.5038757  47.4590721  49.8585091  18.3280144
  47.7497253  50.4703293  16.9744320  63.3353348  50.0222473  50.1245232
  62.8779602  50.8283386  50.3638077  64.0605774  49.9646873  50.7465668
  31.8012943   7.5929112  83.9765854  31.4852638   8.3107491  83.4278870
  31.3617249   7.7223816  84.8169708   9.3951321  41.4556580  71.6678162
   9.1835146  42.3596306  71.4348221   8.5879707  41.1117172  72.0504684
  69.1514206  17.4552574  86.0244751  69.3946762  18.2486076  86.5016098
  68.2104797  17.3643799  86.1747894   3.0304079  52.0968018  46.4039078
   2.1564758  51.9108353  46.0605545   3.6252563  51.6610756  45.7935562
  23.4432659  52.7243195  36.6783524  24.3347836  52.3855782  36.5966034
  23.5495434  53.6753273  36.7011719  34.0011940  52.5271492  18.1567650
  33.1585007  52.1433372  18.3992271  33.9559898  53.4273262  18.4790497
  29.4907570  65.3052902   0.1552155  28.9362316  64.6531296   0.5834944
  30.3799610  64.9645309   0.2523467  58.7706680  20.1994114  34.7539024
  59.2272987  20.6055145  35.4906502  59.0939598  20.6677055  33.9842186
  32.7173500  26.3363781  78.6976624  32.5178719  26.5594101  77.7884369
  32.6587448  27.1686535  79.1668243  15.8154402  39.2562752  62.4404182
  16.3098640  40.0750694  62.4036560  15.2048073  39.3120041  61.7053986
  76.5969467  10.9734058  28.8949375  76.8079224  11.1229210  27.9733276
  77.1382523  11.6039810  29.3699131  82.3121033  25.6218948  23.8811321
  82.7724457  24.9709206  24.4108067  82.7019272  26.4578648  24.1369228
  69.9110336  55.6412201  66.2195511  69.7539444  56.4867172  66.6398926
  69.7371445  54.9967041  66.9055481   7.0270376  48.2301559  33.7530403
   6.5866456  47.4354744  33.4517593   6.3590760  48.9128304  33.6896973
  21.2140999  67.1592712  76.7652664  20.8850079  66.7731094  77.5769348
  21.5116558  66.4111710  76.2475357  29.1547203  70.1747513  66.6183395
  28.8725452  70.5888977  65.8028107  28.5239525  70.4776306  67.2715149
  25.3309689  70.3163910  24.9281616  24.8775349  71.1410522  25.1029739
  24.9100132  69.9740906  24.1395817  62.3540688  43.2410545  16.9423904
  63.0669022  43.5195351  16.3674564  61.9387665  42.5161858  16.4751358
  44.7355118  57.1031151  33.1716080  44.9361801  56.6885910  34.0107346
  44.7691574  56.3874702  32.5368233  65.2918396   9.2911348  13.7965374
  64.9227448   9.7517929  14.5500584  65.5308990   8.4288740  14.1365194
  30.1191444  18.0579987  74.7113953  29.4655418  18.3327446  74.0683136
  30.0766754  17.1017818  74.7025375   3.1080513   3.5101902  63.3063278
   3.0988829   3.2631016  62.3816147   2.8477366   2.7140298  63.7695732
  52.8568687  50.4657478  11.5664864  53.6747627  50.2931023  12.0328331
  52.2001228  49.9519043  12.0364695  32.5223274  30.7243938  87.5598907
  32.1438599  31.1276054  88.3411789  33.4645157  30.8679752  87.6487656
  46.1044044  70.0508194  36.7962685  46.1390648  69.7114105  35.9019356
  46.5297432  70.9067459  36.7442627   9.1243734  60.8373833  63.3509789
   9.8220196  61.4789581  63.4847832   9.5242434  59.9978714  63.5780449
  85.7719498  12.4617786  44.8727264  85.1360703  13.1613493  45.0226860
  85.3769379  11.9217453  44.1882095  84.2424393  43.4610825  58.8018265
  84.6427689  42.9389038  59.4970245  84.5264359  43.0386314  57.9912033
  80.4344482  20.1734562  22.1230030  80.3152771  19.4310513  22.7153416
  80.3642273  20.9435959  22.6870842  55.5864830  20.3374653  78.0755615
  56.1060524  20.2958508  78.8784027  54.9347153  19.6436558  78.1758423
  16.0049477  44.5684891  34.1766129  15.5620041  45.0532951  33.4801979
  16.8864384  44.9405708  34.2041779  59.3210182  28.5549335  35.2994690
  58.6839981  28.0520973  35.8070068  59.2328339  29.4508572  35.6246986
   6.9878907  69.1921310  62.8117599   6.7468481  69.7199860  63.5730133
   6.1799607  68.7403946  62.5680084  48.6073952  33.4650459   8.4085855
  49.0673294  34.3041267   8.3833179  48.5984688  33.1692963   7.4982643
  56.7168427  11.5081644  78.5777130  56.6394806  11.7363815  77.6513443
  55.8661423  11.1319513  78.8035583  81.3792419  32.4772377  67.7598953
  81.1136627  31.7975426  68.3793411  82.1962814  32.8228836  68.1193466
  83.4941940  11.4469719  41.1311264  83.2099686  12.3170500  41.4111519
  83.7803802  11.5683308  40.2258072  74.3140945  20.6522579  14.1124401
  74.3195114  19.7385845  14.3977509  75.0612335  21.0478020  14.5613985
  62.0035820  29.7086582  58.5119743  61.3670540  30.4234447  58.4998283
  61.6003151  29.0381756  59.0633926   8.2672873  57.5224876  78.6755829
   8.1000710  57.6936340  79.6023941   8.9901133  58.1082153  78.4504623
   7.1743917  54.6216621  82.3427658   7.9059415  54.0868721  82.6510849
   6.6814289  54.0415154  81.7625504   0.9921525  21.2437305  35.4799614
   0.0792986  21.0139446  35.3063850   1.2456219  20.6815262  36.2120209
  81.8890457   3.1226203  56.0698128  81.2097092   2.6894071  56.5865936
  82.7023621   2.6935992  56.3356819  74.6804657   5.1566067  37.2608795
  74.5770416   5.0904508  38.2101707  75.0112915   6.0432534  37.1172028
  28.8416157  49.7374268  69.8201523  29.5559311  49.6888275  70.4554672
  28.3266964  50.4956245  70.0962448  19.0046387  49.2212219  56.3257675
  19.2086239  48.8295212  57.1749992  19.7333298  49.8182755  56.1561584
  47.4033356  71.2882080  41.4159393  47.5174446  70.6395111  40.7213821
  46.8268471  70.8615036  42.0498314  65.7457123  13.0399694  46.2863731
  65.5701447  12.1462440  45.9919891  65.6751556  12.9962473  47.2399673
  73.2688065  60.3463097  60.6572075  73.4547806  61.0252037  60.0085526
  73.9117508  59.6604309  60.4771271  29.2238121  17.6220150  11.9597263
  28.3435726  17.6647320  11.5861130  29.8080177  17.6831608  11.2039509
   7.0369072  46.2870026  43.3410950   6.4096241  45.8971825  43.9500160
   6.5461473  46.3915291  42.5259514  13.0169411  51.4168129  61.4107628
  13.0144835  51.3140717  60.4590988  12.9686050  52.3626442  61.5496826
  60.5757790  61.2894211  68.0541306  59.7852745  61.1472511  68.5748215
  60.2523308  61.4623108  67.1699829  55.0540085  25.1109581  18.9636116
  54.2654877  24.5834961  19.0910912  55.3245888  25.3550262  19.8487377
  20.8946648  52.9392662  57.3553810  19.9496536  52.9835014  57.5010834
  20.9985142  52.3016777  56.6490326  26.8508263  70.0097351  20.8684025
  27.6139584  70.5555344  20.6787701  26.8815613  69.3173370  20.2081966
  40.8263664  25.4901180  81.3971710  41.0321350  24.5763531  81.5944595
  40.1081276  25.4430408  80.7661819  20.2421741  39.1858559  24.2265320
  20.7016468  40.0023994  24.4224281  20.8841286  38.4998932  24.4097843
  62.4459496  20.7337151  67.5787964  62.1938248  19.8230076  67.4262390
  63.0817986  20.9249229  66.8893280  80.4232483  33.7574844  57.4408455
  79.8392258  34.0746460  56.7519646  80.9235001  33.0547218  57.0259895
  85.7683868  23.7974453  50.3495827  86.6947327  23.9056320  50.5650291
  85.3038559  24.1090183  51.1263466  45.8839645   3.0307600  36.2829933
  45.2364769   2.4109540  36.6188965  46.6760635   2.8468385  36.7879562
  47.0346184  19.7555752  23.0290356  46.3784866  20.3088360  23.4528542
  46.6334877  18.8869305  23.0010319  58.5613670  59.3000908  35.9749794
  58.2701683  58.8282585  35.1947174  58.1148605  58.8627090  36.6999359
  46.2884979  16.4840851   1.1874888  46.9284821  15.7817936   1.3034115
  45.8621864  16.5629082   2.0408816  32.4240456   4.1230078   1.8299079
  31.5363750   4.4210997   1.6313844  32.4295769   3.2004557   1.5747640
  12.8006802  36.5613289  51.0308037  13.1653938  35.9683533  51.6877632
  12.8664274  37.4293671  51.4288254  36.7983475   9.0518675  13.1296930
  35.9324760   8.9021263  12.7501240  37.4054184   8.6534605  12.5060196
  34.4197197  55.0511093  19.1035194  34.3451767  54.9406929  20.0514030
  33.5569496  55.3627243  18.8301029  36.4549904  34.1463814  41.9455185
  35.5843811  33.9173851  41.6201973  36.9978104  33.3875198  41.7317352
   1.2653221   1.4895277   1.7813239   2.1380966   1.8503349   1.9372559
   1.3663716   0.5483246   1.9233011  72.8164902   9.0407877  74.6609879
  73.4919815   8.4446926  74.3375320  72.0136948   8.7506790  74.2278824
  49.1276283  66.3981857  24.7719307  49.3364944  67.3321915  24.7564220
  48.2138481  66.3524017  24.4906082  81.5250244  17.1892147  21.1595650
  81.9575195  17.8288670  20.5938644  81.9787903  17.2662315  21.9988461
  44.8907776   9.8810635  33.4907227  45.2965736   9.5538044  32.6879387
  44.6882324   9.0931578  33.9951134  60.5197487  70.4737244  66.7569427
  60.1280823  69.6009750  66.7904968  60.3707581  70.7687378  65.8586121
  45.0804405  15.9217949  21.1181812  45.1218224  16.5136261  21.8693523
  44.2558517  15.4489584  21.2309399  14.5034924  55.2971535  88.3883972
  14.5580215  54.4256744  87.9962387  14.1062737  55.1491776  89.2466202
  25.6842442  14.8075085  83.9138031  25.3223419  14.6496248  84.7857742
  26.6323376  14.7560921  84.0350647  46.3998528  27.7870884  75.0295486
  45.8571434  27.8812656  74.2467117  47.0760269  28.4578743  74.9343338
   4.1391921  15.5425510  79.0579834   4.4794779  14.9838924  79.7567902
   3.2332399  15.2561121  78.9420700  26.8561707  31.3634186   7.4726272
  26.1117706  30.7749462   7.3469329  27.4134159  30.9126015   8.1070347
  84.3255539  42.2965889  20.3132305  84.1645660  42.1804619  19.3768406
  84.8050385  41.5099792  20.5731831  47.2925186   3.2679765  23.2338352
  46.8621292   3.2094967  22.3808537  47.9747162   2.5971766  23.2043858
  15.1606789  65.6191635  88.8787537  14.8995190  64.9721756  88.2234344
  14.5730286  65.4621201  89.6178360  64.0171967  46.2077904  59.8798943
  64.4327316  45.5815392  59.2871284  63.1313286  45.8675232  60.0051498
  45.9733315  59.3253326  10.0569887  45.2499275  59.9286842   9.8870392
  45.8943329  59.1125679  10.9868937  44.0919189  56.1067352  64.5432816
  44.9737358  56.0630760  64.9130478  44.2165184  56.4783249  63.6699982
  12.5270233   9.0708961  57.1334763  12.0474949   9.8596020  57.3869057
  12.0690498   8.7516108  56.3559494  42.0707054  37.4310265  44.2559357
  42.3241234  38.0348015  44.9541245  42.8096581  37.4445457  43.6476631
  12.2163267  43.1807404  65.1240768  12.3869638  42.5054092  65.7806168
  11.5991488  43.7767906  65.5484009   9.8892984  45.2180481  63.4154739
   9.5023155  44.5427895  63.9726982  10.8120918  44.9728813  63.3478050
  50.3476791  63.3258514  19.6933498  49.6701050  62.6513786  19.6462688
  51.1624947  62.8603745  19.5045776  83.1346283  23.3322811  66.3595963
  82.6390686  23.4078751  65.5441589  83.2527466  24.2358055  66.6527176
  27.3724461  56.2144661  54.9085045  26.5494556  56.6097641  55.1960068
  27.9375706  56.2497482  55.6802711  53.8431969  54.6765442  83.0798569
  54.1709938  54.1820259  83.8310089  53.4780922  54.0115318  82.4961624
   2.8354907  58.5098267  14.8462944   2.4679353  58.5621834  13.9640274
   2.8300333  59.4134331  15.1620436  60.1267433  16.3713856  19.8431263
  60.4720612  15.4895496  19.7040024  60.4132195  16.6042156  20.7262764
  58.5060768  55.0339622  79.3550110  57.8622284  54.5453758  78.8422012
  58.3213196  55.9524651  79.1589355  14.9966974  14.5153990  74.5894394
  15.0732622  13.5642242  74.5143738  15.0967550  14.8352470  73.6928253
  62.0488968  47.2730865  67.1323776  62.6049614  46.5410194  67.3990326
  62.2373390  47.3902283  66.2012482  86.7245331  29.9282341  72.4309158
  87.0145035  30.7911434  72.7267761  86.0925217  29.6479530  73.0929108
  84.8754272  19.9072456  41.7855530  84.6573639  20.8041515  41.5321045
  84.8725052  19.9213753  42.7426414  25.4017296  40.7114830  15.9021788
  24.4845638  40.6058502  15.6494360  25.4958363  41.6479836  16.0763721
  71.7158356  61.8115158  54.4248161  71.3513870  62.5787735  54.8660927
  72.4685059  62.1493721  53.9394684  61.8823967   8.8970881  47.7135391
  60.9831467   9.2214832  47.7620316  61.9848137   8.3571100  48.4972267
  66.7871323  26.8445091  20.1570015  67.1249542  26.9423256  19.2667561
  66.8980026  25.9144726  20.3544121  17.7884502  44.2156563   9.4958248
  18.1385326  44.0471687   8.6210184  18.3399849  44.9164162   9.8436441
  74.7206421  21.0695114  18.0318661  75.5573883  20.9573650  17.5807381
  74.5441589  20.2148800  18.4251747   2.6059756  61.7463264   5.0474691
   2.2898297  62.0907173   4.2121973   2.2377350  60.8642197   5.0976195
  77.1079330  13.1800003  86.3792419  77.9851151  13.1090355  86.7557297
  76.6015091  12.4989042  86.8218231  79.6072693  25.4746571  41.5680847
  78.7051392  25.6137428  41.2799187  79.9849472  24.8987255  40.9033356
  37.3359489  36.5046654  68.8020477  37.6937370  35.6507339  69.0449982
  37.6247635  36.6372681  67.8991470  52.2984467  54.3545647  42.6085777
  51.9343109  53.9914398  43.4159050  52.7239037  55.1672401  42.8820305
  59.2729988  35.3058548   9.9733267  59.8193741  34.7165451  10.4933462
  59.5680161  36.1832924  10.2168417  78.6537628  70.3190536   2.6335843
  79.3174973  69.6477127   2.4754903  77.8984985  69.8351593   2.9677341
  11.7646208  71.3789825   9.7339392  12.0030155  70.7166443   9.0853186
  12.3784456  71.2398224  10.4551086  25.5038090  10.2282801  16.7326317
  24.6785564  10.6972923  16.6092644  25.2777615   9.4908171  17.2994499
  47.7280426  48.4979019  32.6583786  48.6650276  48.6597023  32.7684288
  47.3068237  49.2844009  33.0051193  82.8450470  19.1650257  35.6166344
  82.1020584  19.3447628  36.1927452  82.7836380  19.8309040  34.9317513
  76.7778778  55.5920105   6.6424251  77.2482834  56.3908806   6.4041929
  76.1043015  55.5006828   5.9684901  58.1260681  42.8515244  10.3411541
  58.7695160  43.3682709   9.8562031  58.5077667  41.9748764  10.3862247
  81.7047272   4.3614616  20.2938023  81.9981384   5.1861219  20.6811962
  82.1623154   4.3149886  19.4543476  50.0834465   2.9013157  52.5472946
  49.9734879   2.7441137  53.4850731  49.9798889   2.0384707  52.1460419
  11.0650339  65.7232132  63.0766144  11.0344429  64.7726746  63.1851082
  11.8508406  65.8793259  62.5528145  12.0555677  11.0010719   2.1356702
  12.4649191  11.3085718   1.3269016  11.2082415  11.4457188   2.1593301
  31.0807934  46.9582520  15.5307465  31.9958191  46.7959061  15.7601051
  30.9338150  47.8743782  15.7659912   0.7131548  22.6670208  82.3717804
   0.0350227  22.0513306  82.6497955   0.8747347  22.4471283  81.4542999
  86.6827698  27.0928555  88.4647827  87.1942444  27.9017849  88.4488525
  85.9573288  27.2798672  89.0606003  12.5756550  32.4006119  70.8992996
  12.0717783  33.0889816  71.3334503  13.4869146  32.6809959  70.9842758
  78.4810867   1.7187499   8.1246386  77.6560669   2.1653409   8.3147182
  78.8800125   2.2391624   7.4273167  32.2396317  48.2168617   0.1135036
  32.9185181  48.1135063   0.7803327  31.9396477  47.3252068  -0.0630987
  69.9699554  15.7180367  18.6673584  69.6859207  16.2120705  19.4364395
  69.6021194  16.1977997  17.9252281  47.5991058  45.3849449  55.8672562
  47.5293808  44.4533005  56.0756035  47.1881828  45.4693718  55.0068817
   7.7497458  45.3331757  57.8815002   7.5904436  46.2324066  58.1682739
   7.1268392  44.8077393  58.3836327  69.2395859  13.9304800  47.8658676
  68.7983398  14.2939053  47.0981102  69.1853256  14.6236277  48.5237694
  69.7505798  19.1932259  70.7273407  69.6762085  19.3855515  71.6620636
  69.0227203  18.5984459  70.5465317  58.4764442  64.3687515  44.2071800
  58.7208366  64.4789047  43.2882843  58.2241516  63.4482117  44.2792206
  22.9349880  34.4936943  55.5226135  23.8071556  34.1008911  55.5581322
  22.3428955  33.7516136  55.4002380  39.0998955  51.6906166  30.7696648
  38.4361115  51.0267410  30.9564667  39.6807518  51.2757301  30.1319313
  63.5424271  49.8382339  70.8669815  63.1944275  48.9635811  70.6934433
  64.3178864  49.9024239  70.3095093  54.5993767  23.8656693   4.4712553
  54.7016068  24.3718014   5.2772393  54.3554420  24.5139771   3.8106308
  72.4238815  28.5720272  65.5371628  72.8712692  28.9663067  66.2859039
  72.2301254  27.6776142  65.8177261  19.2069149  66.2085037  52.8672981
  19.1570377  66.6096878  51.9996605  18.5341072  66.6584778  53.3782692
  20.4345093  43.1086159  66.0283356  20.8883572  42.9915810  65.1937332
  19.5250587  43.2806664  65.7843552  74.8911667  67.5146332  59.6720581
  74.1326523  66.9316406  59.7039032  74.5233688  68.3921356  59.7766609
  68.5976562  45.9638405  66.0584030  68.5111847  46.5209999  65.2848892
  69.5366592  45.9557686  66.2440033   9.3409815  67.7690582  10.4695559
   9.0662212  68.5504303  10.9493475   8.9908142  67.8941193   9.5875273
   1.6944741  56.7070961  25.4006977   2.6327853  56.5748024  25.2654114
   1.5096984  57.5510178  24.9885254  49.6540070  66.9874649   7.6200933
  49.9318695  66.3478470   8.2757740  48.9379921  66.5564499   7.1534200
  84.5265656  51.5986366  20.6342354  84.9536438  51.8872986  21.4407749
  83.7806778  52.1899834  20.5333061  49.2059746   1.4848305  23.7615566
  49.6275139   1.5193956  24.6202412  48.7579880   0.6390342  23.7485352
  13.9930611  38.2080841  38.5452881  14.1759739  37.9430008  37.6438942
  14.8414660  38.4869537  38.8897781  57.4197159  23.4184914   6.0830665
  56.5525055  23.0143890   6.1127548  57.2771225  24.3142910   6.3887525
  60.1627808   6.8492098   2.1118228  60.0045815   6.0827141   1.5607429
  60.5282707   6.4912310   2.9208336  15.9035492  54.3474159  56.4035301
  16.7481060  54.6736412  56.7142258  15.8105469  53.4899826  56.8187294
  10.5441322  50.8388748  29.5053139  10.8281450  50.1630135  30.1207619
  10.6999454  50.4569969  28.6415310  73.9135056  29.3562775  67.8337326
  73.7832642  29.2914696  68.7798080  74.3844299  28.5559750  67.6014099
  68.3332825  62.2530136  22.1256046  69.2329330  62.1584892  21.8126698
  67.9356461  62.8831558  21.5247345  17.9219475  61.0039406  69.4246674
  18.6335945  61.1471596  70.0485916  17.1563454  61.4018097  69.8391342
   3.2692556  27.6452904  85.3872604   3.5313962  28.4096603  85.9003448
   2.4922166  27.9333763  84.9082489  77.0101089  37.4626389  78.0167923
  76.3828812  37.6628342  78.7115860  76.7065887  36.6311798  77.6523972
  13.1300840  65.7982635  18.4234543  13.8690205  66.3330841  18.1333332
  12.6494322  66.3623352  19.0292873  80.0448914  52.8692284   2.0367546
  80.4324036  53.4338913   2.7055020  80.3809128  53.2129478   1.2090002
  44.3827286  34.1246758  27.3838406  45.1793404  34.6295662  27.2203598
  44.6572685  33.2112579  27.3030300  41.2750893  49.2545967  84.3085480
  40.5914650  49.1851540  84.9749298  41.8164330  49.9896355  84.5964584
  56.0985909  46.1855125  89.1138000  55.8100319  45.5407333  89.7597275
  56.0576744  45.7216148  88.2775269  60.6262360  69.3181152  70.8090668
  59.8342361  69.8503342  70.7334900  60.3549385  68.4438782  70.5291595
  15.9372778  32.5302429  60.7550240  16.0684357  32.6516647  59.8146591
  15.7950659  33.4143715  61.0931473  71.4345703  59.3244476  29.2751198
  70.4791107  59.2984467  29.3266468  71.6460724  60.2562294  29.2178020
  52.2282448  47.9697495  60.4717903  52.6745415  48.3725967  59.7269630
  52.5929642  47.0860786  60.5201912  76.5788956  39.2500877   9.7770395
  76.8340073  38.3277969   9.7541418  76.2746201  39.3922501  10.6733875
   6.1633821  65.5998306  81.7261581   5.8607030  66.4477692  82.0511398
   6.7996011  65.8176346  81.0449677   7.8292513   0.9792565  67.5230255
   7.9499016   0.8799663  66.5786667   7.2061381   1.7006007  67.6103439
  68.2952499  61.2967796  65.9561157  69.1714172  61.0175781  65.6904068
  67.7661209  60.5004082  65.9109573  67.9056778  10.6382895  67.5208588
  67.1332016  10.0785542  67.4420395  68.6055679  10.1416864  67.0968628
  20.8408070  45.8336678   0.5152506  21.6069260  45.8479729  -0.0584120
  21.1642475  46.1599617   1.3549820   1.8807548  34.7058449   9.9915056
   2.5614042  35.3648376  10.1281700   1.2752366  35.1119843   9.3713198
  13.2537889  58.4462166  63.9735870  13.4552011  59.2967682  63.5834236
  12.9133244  58.6562004  64.8431931  68.4245682  53.3893623  72.5221405
  68.4279099  52.5567932  72.0498581  67.5557785  53.7553291  72.3562851
  53.2094994  68.5155182  41.7871475  53.7834587  67.7610092  41.9194908
  52.6298256  68.5120239  42.5488548  12.1052122  46.9871826  34.9133453
  11.1779089  47.2115021  34.9909515  12.1079817  46.1055756  34.5405312
  65.4819946  57.8772087  55.0077782  64.6214600  58.2586746  54.8339920
  65.3187485  57.2130127  55.6774254  38.8995934  40.5806122  18.1300201
  38.5127182  41.2821541  17.6061897  38.1680298  39.9940872  18.3224659
  36.4857025  39.6142731  12.1214819  36.0945740  40.4730949  11.9612560
  37.4273453  39.7588196  12.0284843  64.4296341  54.5228157  36.7661781
  65.2753067  54.9523849  36.8948021  63.8051376  55.2434464  36.6829758
  75.8958435  54.6924019  11.6024818  75.3790894  54.5888329  12.4015255
  76.1521530  55.6146431  11.6008558   9.8579245  53.9342117  19.2601280
  10.6077290  53.8999863  19.8541431   9.1377373  53.5514603  19.7611904
  19.6285915  14.9342575  76.6314621  19.3202820  15.7928333  76.3415909
  20.3158817  14.7030792  76.0066299   5.8584661   7.8613071   9.5502148
   6.5537353   7.4153666  10.0339184   5.9770088   8.7876997   9.7599220
  17.5709743  37.0026474  19.6358662  17.0731602  36.2129898  19.4240685
  17.8907986  36.8527374  20.5255127  56.3268890  44.3347511  81.1282730
  57.2439651  44.5896721  81.0271683  55.8405647  45.1559563  81.0551605
  20.2918472  60.9410477  71.1073227  21.1270447  61.2668953  70.7719116
  20.4860249  60.0552902  71.4138565  42.8022804  45.8137207  33.4937057
  42.8134079  45.4706917  32.6001511  43.0806770  46.7251244  33.4038658
  43.3528023  35.2750320  72.3287430  43.8580894  34.7370529  71.7192383
  42.7509117  34.6603661  72.7484436  65.5480499  65.3583069  14.6125498
  65.4584274  66.3042526  14.4968424  65.2005234  64.9840012  13.8030128
  60.8852806  10.8074903  40.2973976  60.3563080  10.1148510  39.9015808
  60.2548141  11.4920759  40.5212059  31.8615551  56.5769730  71.9841766
  32.7149620  56.4212646  71.5795975  31.8050842  55.9249382  72.6826706
  18.4557152  62.8460732  27.1115265  18.0385056  62.0374947  26.8142624
  18.1046314  62.9875412  27.9907074  54.1396790  38.5146484  50.9506683
  53.4231453  39.0459747  50.6035309  54.4257507  37.9834442  50.2075577
  32.0981674   1.4427049   8.0157480  31.9128494   0.5037267   8.0013132
  31.7681293   1.7648958   7.1769996  81.7789154  16.0236511  48.7389946
  82.3337402  16.8036518  48.7398796  81.4894714  15.9345827  49.6470222
  72.4640656  44.5027771   8.7029390  71.9942627  45.2313728   8.2971516
  72.4932480  43.8287582   8.0239124  56.6465149   3.3804781  86.5620499
  57.4031219   3.3442001  85.9768524  56.9976082   3.1494956  87.4220581
  50.6038094  16.6258221   2.2972887  50.3083496  17.4175949   2.7467678
  51.5216560  16.5337067   2.5528319  74.9431000  24.4031525  52.4365349
  74.8743744  25.3080273  52.7410164  75.8749390  24.2818584  52.2543755
  68.0897598  26.0448265  70.9127426  67.6720123  26.6932049  70.3458862
  67.3896255  25.7486725  71.4944077  52.5555115   4.0394912   8.1739073
  53.4750977   4.2699461   8.3061323  52.1097145   4.8806710   8.0743523
  11.0585976   9.5850716   5.7809343  10.2381372   9.3528137   5.3460393
  10.9817581  10.5237675   5.9517460  72.6149521  46.2462006  71.9362869
  72.9989014  47.0911484  72.1705475  73.3466187  45.7404709  71.5825424
  31.3327351  51.5984421  30.7393379  31.3119221  52.4765472  30.3589039
  32.2474060  51.3264809  30.6641922   3.8377249  39.9443588  38.5961876
   4.2229767  40.8071098  38.7494011   3.9262357  39.8065834  37.6530991
  36.2257233   0.9536245  42.5322762  35.7799835   1.7177216  42.8979340
  35.5588608   0.5189587  42.0006828  64.0215454  24.0072613   8.4914122
  63.9158249  23.2925186   9.1192627  63.2004051  24.4962673   8.5446768
  62.4004860   5.9892054  28.3096581  62.0373878   6.7586317  27.8710556
  63.1304283   6.3302999  28.8264503  35.1216202  10.4216528  63.1909828
  34.9066849  11.0598593  63.8712234  34.4796982   9.7213421  63.3081627
   4.7704930  37.9733467  40.3169556   5.5406766  38.5245018  40.4558067
   4.0673656  38.5907402  40.1152878  64.7717667  70.6056137  58.9629555
  64.6502838  69.7404251  59.3540039  64.8730164  71.1944046  59.7108231
   2.7807627  51.6970749  34.6948433   2.8604095  52.1761932  35.5196686
   3.6208837  51.2491341  34.5959663  57.3455887  30.7824230  43.8382225
  57.9170494  31.4397774  44.2351456  56.4698792  31.1658974  43.8863373
  50.9775391  11.7760782  49.6234550  51.2009583  12.3090315  48.8603859
  51.1502609  10.8763742  49.3460922  62.4694633   1.9891957  77.6848450
  63.0203247   1.7903372  78.4419708  61.9479485   2.7433734  77.9595642
  23.6736488  56.7991943   3.7476072  23.6506901  57.7226067   3.4965806
  22.7567520  56.5688972   3.8975973  55.0815926  -0.0243578  41.2961769
  55.9547882   0.0558858  41.6800079  55.0955124   0.5669572  40.5435944
   8.9647398  21.4046116  78.8474503   8.9262047  21.3993187  79.8038559
   8.0958014  21.6988869  78.5743561  66.7153778  48.5786858  28.6502094
  67.4945450  48.0226974  28.6513882  66.7143784  48.9878006  27.7848454
  76.0989990  29.6712551  20.9284573  76.5270996  29.1418686  20.2556229
  76.2576523  29.1960163  21.7440605  11.6808138  10.7179222  11.8841343
  12.4651937  10.8467150  12.4174194  11.0076399  11.2424145  12.3176975
  42.4696083  53.8705215  87.1846619  42.2763634  53.2754135  86.4602814
  42.5984459  54.7221642  86.7671280  41.2734184  56.9108162  79.9818268
  40.4180984  57.0740738  80.3793259  41.5126953  57.7447433  79.5774231
  83.8628235  13.8824663  22.4694118  83.1207657  13.2809610  22.4079971
  84.2996063  13.6413651  23.2863121  36.1601143  40.5629959  57.0574265
  36.0285721  41.4136429  56.6387024  35.2759171  40.2535515  57.2540779
  72.0450974  40.0320625  31.8545341  71.7396240  39.1485596  31.6487789
  72.8476715  40.1332359  31.3428001  69.9725494  35.9590797  23.4334564
  69.7074051  35.1148567  23.0684643  70.9293671  35.9367027  23.4182835
  55.4101372  15.1293154  50.9499512  56.0405350  15.7627869  50.6070976
  55.9268494  14.3394899  51.1093826  15.9287338  68.1156998  51.4738693
  16.5842323  67.4327774  51.6159134  15.4461479  67.8270721  50.6992455
  74.7839661  33.2087975  71.0835495  74.8599625  33.0275841  72.0203629
  75.6503525  33.0078468  70.7296677   7.4708953  25.6819248  84.1071548
   8.4085054  25.5062828  84.0279770   7.0534940  24.9907970  83.5930023
  56.7125587  63.2979050  83.1248550  56.4229774  63.9835587  83.7267303
  57.6597404  63.4201050  83.0604553  44.0101738  44.4075165  46.8540154
  43.2378349  44.8978233  47.1356621  44.1392670  44.6672707  45.9418221
   1.3374501  66.8990097  50.0444717   1.3284447  65.9595642  50.2277565
   2.2279663  67.1764603  50.2594910  45.8419914  32.8410759  81.6754074
  45.3839226  32.8157425  80.8353119  45.6773605  33.7220802  82.0115051
  40.9171791   2.5796542  25.1621437  41.3764992   1.8736358  24.7073956
  39.9898224   2.4029069  25.0040226  69.9370575  31.9704933   7.5674281
  69.8525543  31.0173759   7.5930476  70.7925186  32.1457253   7.9594855
  16.4318390  39.8461800  22.4465084  16.2359600  38.9169388  22.3266315
  16.2478333  40.2416039  21.5944443  38.4642677  70.5797806  22.3748379
  39.4104958  70.6086044  22.2332153  38.1202431  70.1294022  21.6034527
  23.3100643  41.6439476  81.4505386  22.8429241  40.9344559  81.8917084
  22.6277122  42.1255875  80.9829330   4.7693477  61.3857117   1.5180165
   5.4887595  60.9315414   1.9566615   4.8360829  62.2906189   1.8228431
  12.8985624  18.7270832   4.5514359  13.2101469  19.2170792   3.7904813
  13.4951429  17.9813976   4.6168308  35.5815849  69.4490814  85.5661087
  35.5647202  69.2803574  86.5081711  36.4757462  69.2344589  85.3003159
  53.9642677  60.6967087  56.1311951  53.5052338  61.4612694  56.4789925
  53.3010368  60.0067520  56.1133919  20.9439144   2.7847784  85.7778473
  21.0537300   3.4392042  85.0879898  21.5703316   3.0423422  86.4542236
   7.2985549  31.2345848  69.6189575   7.3135977  31.4995575  68.6992874
   6.6192455  31.7807693  70.0144958  81.6706390  45.1714058  73.3545990
  81.8943634  45.9173889  73.9111023  82.2730179  44.4795418  73.6279068
  23.7230206  18.6936550  11.2978830  24.0146065  17.9978390  10.7087746
  24.5327320  19.0882111  11.6218014  86.1473083  68.3170929  56.4682503
  86.3799438  67.4908676  56.0446129  85.1944427  68.3656845  56.3913841
  68.2112427  56.5892563  81.5861359  67.8319778  55.7121544  81.6416397
  67.4552536  57.1754112  81.5525589  10.3028030  45.9593239   5.4361391
  11.0080652  46.4601402   5.0262413   9.5492544  46.5493469   5.4198136
  71.0746231  14.0343924  45.3979301  71.1194611  13.3317461  44.7494621
  70.1388855  14.2105007  45.4959564  80.0616455   9.8211546  30.3008938
  79.3424149  10.1936226  29.7907925  79.8047333   8.9108696  30.4478989
  64.8283920   6.6940694  37.4000854  64.2327423   6.2403526  37.9963875
  64.9971466   6.0608554  36.7023773  70.9807739   5.8519630  16.9744892
  70.5748978   5.2828698  17.6284218  71.9100952   5.6243672  17.0026360
  49.6887627  19.2958431  29.8924999  50.1289635  19.3913326  30.7370930
  49.2764359  20.1460857  29.7398319  73.2062988  52.8247795  65.3728561
  73.1559830  52.6981163  66.3203049  72.4598160  53.3872604  65.1664352
  55.7880325  16.3558273  78.5545731  56.0880699  15.9941835  77.7206573
  55.1291084  17.0058250  78.3105392  54.6148376  34.0518417  53.9483566
  54.3605423  34.9378548  53.6903915  55.3123055  34.1804314  54.5911903
  37.4831505  66.2320862  86.1051178  36.7440186  65.8688889  85.6172638
  37.8293800  66.9208603  85.5377197  18.7696495  27.8998928  18.8907318
  18.0601692  28.5390301  18.9568806  18.5896797  27.4254112  18.0791225
  37.6291733  46.5120163  29.9620380  38.3289108  45.9440498  30.2845440
  36.8497734  45.9563484  29.9636326  55.4868546   6.7254200  64.8685760
  55.0980873   6.2197523  64.1548538  54.7372932   7.0628729  65.3590012
  54.6990662  13.1194296  37.5380478  54.3633347  12.9965048  36.6501236
  53.9361153  12.9933672  38.1021767  11.7404785  62.5988121  45.6154060
  12.2068367  61.8111572  45.3355026  10.9906416  62.2697639  46.1110916
  53.1872749  42.0255814  35.4167824  53.6465111  41.2820587  35.8073044
  53.5903816  42.1302376  34.5549355   0.1665565  11.6265440  75.4342728
   0.8180258  12.3036814  75.6167679  -0.6437891  11.9649534  75.8151245
  63.8058014   1.6884043  68.8484573  62.9788780   1.8905448  68.4107742
  64.4781570   2.0360508  68.2625275  67.6001663  11.5574551   0.3454450
  66.7781143  11.0683117   0.3802185  68.2502441  10.9136381   0.0641542
  84.4264221  46.2397194   4.2191720  83.8932190  45.5396614   3.8425572
  84.1553650  46.2802773   5.1362934  16.5904274  44.9604492  18.5690117
  15.9195604  44.4511375  18.1142902  17.0792103  45.3922768  17.8684063
  62.6883583  41.6931953  79.8581543  63.4500046  42.2020416  80.1360016
  62.9831886  41.2291908  79.0745697  69.5188293  13.8201914   2.4052281
  70.1692429  14.0615921   3.0647094  68.8425140  13.3529301   2.8956423
  58.6738663  36.3654938  24.1963120  58.1527138  37.0896912  23.8496590
  58.4349747  35.6159744  23.6509800  42.5790176  68.6955109  68.3709412
  43.3823013  69.1870270  68.1995621  41.9046555  69.3670044  68.4737167
   1.9559628  65.1025391   5.5016680   1.0948613  65.4955292   5.3592114
   1.7906942  64.3739471   6.1000667   3.9935503  27.8633480  11.9133711
   4.1003904  27.8744850  12.8645248   3.9715209  28.7872295  11.6639929
  76.7273254   4.7538881   3.1137021  77.2682266   4.0601659   2.7363312
  76.7606277   5.4608827   2.4692783  29.8434982   4.8846335  16.0781803
  29.0264511   4.9058361  15.5799685  30.5210266   4.7274737  15.4205418
  14.7053156  33.9363747  87.2191086  14.7985201  33.0730019  87.6217651
  15.5672779  34.3408279  87.3174438  87.0879211  13.8418093  87.3539124
  86.3020859  13.5735521  87.8300781  86.7556610  14.2574863  86.5582733
   2.1397171  44.7239113   4.0960565   1.2456342  44.5798187   4.4060316
   2.0678740  44.7077065   3.1416936  72.1941452  34.9359589  68.2377701
  72.5331345  34.0503922  68.3684692  72.5632324  35.4428711  68.9609909
  34.1902733  67.2173157  31.2712288  33.4356003  67.6202927  31.7005367
  34.9431343  67.5130005  31.7830925  40.0973549  48.0416946  69.5867462
  39.1540947  48.1874428  69.5142975  40.1758041  47.1829643  70.0022736
  82.5220795  68.1509628  24.9550877  81.6753769  68.4600754  24.6329346
  82.3329620  67.7969131  25.8240623  18.1918526  49.6001968  21.6151066
  17.8412018  48.9722252  20.9834976  19.1161900  49.6844521  21.3811493
  69.2686844  65.9187012  57.4518547  69.4721451  65.0178452  57.2002945
  68.4201965  66.0950546  57.0454102  79.2736588   8.9170609  25.9242992
  79.4323120   9.8610220  25.9242210  78.6150055   8.7848349  25.2424488
  66.1366501  69.0409088  69.4312592  66.1356125  69.9797363  69.6178970
  65.2193222  68.8303757  69.2568283  16.5549545  18.9454098  68.9739227
  17.4630356  19.2374535  68.8943634  16.0346870  19.7184734  68.7550049
  77.7123108  20.8748894  72.9690094  78.4181976  20.2283993  72.9712067
  77.6068192  21.1112022  72.0474548  84.9842377  54.3134918  53.2150803
  85.8290634  53.9693260  52.9251671  84.3698502  54.0478783  52.5308189
  38.3348923  58.9501266  36.6006317  38.2738304  59.7408066  36.0646019
  38.8309593  58.3334732  36.0622215  30.9357853  31.0678596  53.5111580
  31.2748947  30.1829853  53.6461945  31.6018276  31.6402931  53.8918648
   4.2392192  71.0908585  85.0473022   5.0750265  71.5280075  84.8843384
   4.4778647  70.1872711  85.2542038  77.2058258  27.6856804  56.2083435
  77.8586578  27.4787159  55.5396042  77.6786499  27.6075096  57.0369339
  76.7023087  39.4284325  75.8657684  76.7119522  38.5375404  76.2157059
  75.9973755  39.8657227  76.3433456  69.7482071  70.9662399  39.7156906
  69.6457672  71.9037018  39.8796844  70.2485886  70.9188690  38.9010658
  47.8551254  14.7137089  17.5406342  47.2714043  14.4158287  16.8429451
  48.1329079  13.9099483  17.9799957  13.2590160  12.9596310   0.4814829
  12.4664087  12.6468487   0.0453936  12.9424925  13.5825558   1.1357065
  44.9172020  13.8121147  84.3788528  45.1103096  14.7337093  84.2067871
  45.7054596  13.3461266  84.1000443   8.7337675  51.1766281  84.5947723
   9.6889133  51.2141571  84.5445786   8.4519758  51.0315666  83.6915665
  34.1967812  67.8508682  70.5687180  34.1435738  67.7546310  71.5195770
  35.1062317  67.6401978  70.3571777   4.9545622  63.4069672  28.9795837
   4.4963169  63.5093689  29.8137035   5.8106642  63.0517693  29.2186565
  86.9701538  50.5053864  43.4303360  86.1373444  50.0463333  43.3211327
  87.0593643  50.6178284  44.3767128  38.2929459   1.4733839  62.3967857
  38.9647865   1.9135038  61.8760605  38.5878677   0.5642591  62.4491730
  38.2844810  63.5541534  82.3805771  38.6121521  64.1742783  81.7291870
  38.6088028  63.8905792  83.2159576  61.9844246  30.8992691  71.9527740
  62.5459595  31.3446674  71.3183212  62.4490662  30.9846001  72.7852707
  23.5876598  28.9260559  16.4725647  23.5104580  29.8659248  16.3084984
  22.7559776  28.6850300  16.8805428   5.9681735  67.4557419  11.0860281
   5.6041241  68.3084259  11.3239794   6.4437037  67.6172943  10.2711639
  15.6819429   4.2871933   7.6215963  16.0965271   4.8916965   8.2371674
  16.3015652   3.5617111   7.5442867  33.1223221  39.0751572  62.7005539
  32.7430611  39.2189865  63.5675659  32.5978546  38.3685341  62.3239288
   3.0108912   9.3221359  20.5984211   3.6842721   9.7593031  20.0771961
   3.2310805   8.3922663  20.5428276  69.5060883  37.2464828  59.7881813
  70.4384308  37.1269951  59.6073380  69.4824600  37.7400665  60.6079674
  13.8773880  54.4751854  34.9035912  14.4008331  54.8573341  34.1991768
  14.4559584  53.8289490  35.3083954   8.2215824  40.0195007  14.9733858
   9.1508789  39.8347588  15.1094341   7.8690000  39.2118073  14.5998211
  23.8991070  31.8353958  53.8175888  23.5190830  32.1949234  53.0159950
  24.4677773  32.5316734  54.1462898  83.0254135  65.3513260  42.3933754
  82.8369217  64.4427032  42.6281052  82.4968338  65.8699799  42.9998703
  52.8260956  23.1180782  19.3035831  52.1382141  23.7644539  19.4624939
  53.3726883  23.1520767  20.0886402  53.2412796  55.1939926  14.5629196
  52.9301033  55.8121223  13.9016209  52.7734261  54.3814507  14.3702555
  65.1222229  71.3465958  46.1951408  64.2453690  71.6775742  46.3895683
  65.0772324  71.0728683  45.2790184  34.1110077  43.1464539  58.1087227
  34.3679085  42.3925781  57.5777779  34.9195404  43.4217644  58.5408287
  16.3494968  56.2341347  65.1003265  15.7091017  55.7018776  64.6282730
  16.9323368  56.5682983  64.4185104  26.0605087  41.0807571  81.0325623
  25.1085625  41.1768532  81.0608063  26.3930874  41.9773560  81.0742111
  16.4686337  41.3373299   3.8347263  16.0804462  40.4724655   3.9672277
  17.2983017  41.1619949   3.3907189  47.2343826  23.8513393  71.5164795
  46.7374687  24.2694168  72.2197037  48.0366707  23.5452023  71.9393921
   2.7784300  32.9205818  87.4643784   2.8707733  33.8687248  87.3709641
   2.5104194  32.7945671  88.3746109  25.8540421  23.6767502  67.8746948
  25.8887539  23.2045841  67.0427780  25.0275803  24.1585655  67.8423309
  27.1859875  61.1224518  54.9720306  27.2800713  60.7408257  55.8448105
  27.4241791  60.4140892  54.3739395  83.8406754   1.7365000  57.0980797
  84.1214294   1.1819955  56.3701134  84.0255356   1.2166651  57.8802757
  53.1823997   8.5064669  74.3682022  52.6991005   7.8610678  73.8523407
  52.5207520   8.9056292  74.9331131  29.2909374  68.2988434  13.0411787
  28.5317631  67.7215195  12.9600515  30.0442657  67.7088394  13.0162802
  51.7754021  47.0447769   3.5626199  52.1133232  47.7560959   4.1067400
  51.9932365  47.3038788   2.6672733  61.8807983  24.0857334  55.4702530
  61.5907021  23.5800648  54.7110596  61.7222252  23.5085869  56.2172394
   3.1484389  37.1332588  61.7307816   2.7633023  36.9425774  60.8754807
   4.0558300  36.8377991  61.6561089  10.9494057  53.3326454  16.9797230
  10.7288122  53.7342453  17.8201313  10.1892157  52.7917061  16.7658844
  59.3561249  60.6356010  61.0215950  58.8784714  60.2182083  60.3047523
  59.4410324  61.5502052  60.7522926  47.8603172  62.5905266  10.0944633
  47.0409088  62.1360550   9.8988695  48.0428009  62.3725929  11.0084858
  76.3179245  18.0516262  29.0910549  75.5331192  17.7898769  28.6096001
  75.9985046  18.2790852  29.9642487  44.6719208  10.3465548   5.3284192
  44.7527809   9.9712439   4.4515862  45.5733643  10.4186039   5.6421719
  37.5188675  29.7217579  48.8617821  37.5178719  30.6786213  48.8364525
  36.9353638  29.5007706  49.5876732   6.3731604  58.4558830  74.3751755
   5.5618553  58.5791473  74.8679428   6.5410366  59.3081779  73.9731216
  84.2885666  33.1659660   0.3344701  84.3722687  32.2133217   0.2932675
  83.7360001  33.3904533  -0.4142019  84.3864746  42.5538063  36.4842339
  84.2619705  43.1527977  37.2204018  85.2914886  42.6985130  36.2081223
   8.8979359  36.5727272  31.9992542   8.0712690  36.0984688  32.0882988
   9.5488892  35.9967613  32.4001923  23.3342228  57.0303040  71.1906204
  22.4834118  56.6983337  70.9040070  23.6244335  56.4043274  71.8540726
  52.8261490  69.2940369  66.3476105  52.6041107  69.6925812  67.1890945
  53.0308800  68.3835220  66.5604248  52.0226402  36.3858643  78.0008926
  51.9694099  35.9398041  77.1556549  52.8725510  36.1255188  78.3560028
  60.5829430  27.9872875   0.2958798  60.7441292  27.1150188  -0.0638412
  59.7076149  27.9303665   0.6790112  77.6463623  53.1307564  80.1917496
  76.9691696  53.2637329  79.5284576  77.2252731  53.3743286  81.0161285
  83.4102173  12.3147869  38.4443169  84.0656128  12.2504978  37.7496567
  83.2342606  13.2524996  38.5215569  10.2803955  45.3655434  28.2153969
   9.6305857  44.6852112  28.3918266   9.8404961  46.1831169  28.4484062
  20.4261703  28.7985935  64.2703018  21.2818604  29.2242107  64.3239212
  20.6253033  27.8858738  64.0616837  63.3220596  36.6559143  64.2067642
  63.7046471  36.7576981  63.3352737  64.0590057  36.7706299  64.8067551
  76.2374496   5.7651205  60.8145638  76.1393051   6.0876718  61.7104225
  75.3771973   5.8982229  60.4164810  44.9423561  59.6705627  35.8037758
  44.5330467  60.5214500  35.9608917  44.3613434  59.0424118  36.2328339
  72.2290039  18.1528187  49.5317039  72.1860809  18.3373013  50.4699783
  72.3273163  19.0126781  49.1227913  63.3571625  21.5499306  46.7306786
  64.0432892  21.6424923  46.0696945  63.8308220  21.4820595  47.5596962
  75.6231918  31.1714878  26.5267200  75.2113190  30.8173637  27.3148746
  75.9882355  30.4060955  26.0827045  55.5689011  47.3332024  27.7977753
  54.6853065  47.1730347  27.4663486  55.7299118  48.2585106  27.6130886
  84.4514084  54.2001686  41.4735680  84.4307175  53.2663345  41.2643776
  84.5257034  54.6343918  40.6237679  30.7221928  45.5966759  40.9500008
  30.5951729  44.7288551  41.3333855  30.9528885  45.4238510  40.0372353
  76.7464905   4.2370286  29.7554817  77.2853394   4.8330412  29.2352486
  77.1563950   3.3799419  29.6388073  13.7291412  52.9006233  50.5109673
  13.0108461  53.0802498  51.1176109  14.4770985  52.7069473  51.0760155
   1.9732391  20.6130753  74.3788528   2.3215346  20.0154095  73.7172470
   1.0360780  20.4201775  74.4062729  66.7763519   4.5368495   5.5018306
  66.6004410   3.6080506   5.3514352  65.9111481   4.9462142   5.5101042
  50.2323074  14.4034538  38.4942513  49.7041740  14.7836065  37.7922592
  49.6044655  13.9204817  39.0316353   0.1862280  60.8640175  75.6276398
   0.5280279  59.9802017  75.7628250  -0.1296396  61.1331940  76.4902039
  66.7903748  54.4663925  28.1097755  66.0226288  53.9010086  28.1943302
  66.6757355  55.1293716  28.7906208   1.0695252  43.3093185  48.2017479
   1.7610849  42.8765373  48.7024231   1.4691294  44.1234703  47.8956375
  32.2953911  34.0362129  79.9687653  32.0315895  33.1167450  80.0036850
  33.1744461  34.0477257  80.3473969   9.5561399  38.8829842  72.9553833
   9.7555542  39.4896431  73.6684265   9.3210611  39.4477043  72.2191315
  72.6345901  57.3888550   1.7662098  72.2323837  58.2521591   1.6704667
  72.2998123  57.0598412   2.6004200  20.4249802  21.8899441  63.4163437
  20.4004593  21.5759468  64.3202438  19.5146599  21.8480034  63.1234474
  10.6633024  31.5845623  27.4395199  10.0951471  30.9143486  27.0597248
  11.0868454  31.1485691  28.1789474  74.0451279  15.2956829  87.3333817
  73.2195053  14.8565025  87.5376129  73.7835236  16.1071529  86.8982773
  14.3675871  42.2045441  86.3376389  15.2635489  42.5340042  86.2673416
  14.0486603  42.5535812  87.1699219  80.9209290  59.7078590  43.5137939
  80.7603989  59.8160172  44.4512177  81.8737488  59.6562538  43.4383507
  83.6660614  68.4233170  68.4521713  83.8869476  68.4182053  69.3835220
  83.4887772  67.5062256  68.2430191  56.2010307   5.7234035  20.7632732
  56.3892212   5.4877429  21.6717224  55.4635506   5.1643662  20.5186615
  71.1634140  67.5508957   4.3159499  71.2757568  66.9563828   5.0576816
  70.4262695  67.1862106   3.8262048  79.7864532  38.9670181  23.1373062
  79.3415298  38.1195679  23.1474724  79.9898911  39.1417656  24.0561695
  10.0671854  26.0798740  68.0140533   9.4909267  26.0586586  68.7780609
  10.8064184  25.5220222  68.2560654   8.1818581  17.9118614  73.6813889
   8.5591068  17.0993862  73.3440475   7.6215320  17.6331444  74.4056702
  82.2192383   4.4226665  40.2120399  82.4753418   4.7066317  39.3345375
  82.9350662   3.8555241  40.4986916  47.1336632  36.8395653  58.8578262
  46.2340317  36.5261917  58.9510612  47.6716995  36.0528297  58.9461098
  20.4122849  30.1850052  13.5660172  19.9705791  30.1267509  14.4132099
  21.0110435  29.4382629  13.5562363  73.5214157  64.0680847  29.7462349
  72.7922668  64.5368423  29.3402157  74.0622711  64.7561188  30.1339359
  66.7077484   6.2223496  61.9556198  67.2188950   5.7921448  61.2701416
  67.3421249   6.4042783  62.6489410  43.3140869  32.0266647  74.8254395
  43.5429535  31.3700600  75.4832535  44.1135330  32.5406914  74.7118607
  53.8400421   7.6422129  21.8558540  53.4572792   6.9062114  21.3783302
  53.0864944   8.1453218  22.1645279  38.4345741  31.1287575  81.7209320
  37.5299263  31.0644817  81.4148102  38.5556412  30.3570213  82.2741089
  63.5882988  24.2373905  32.3093758  63.4412918  23.2993031  32.4302559
  62.7166443  24.5972118  32.1451225   3.4628801  67.3247070   9.2892694
   2.7391663  66.7449417   9.5266361   4.0343585  66.7836761   8.7443562
   9.7331905   9.4227848  54.0254288   9.8704185   8.5894756  53.5748787
   9.3259306   9.9864683  53.3676834   7.0897675  27.5979404   5.2336717
   7.2917461  28.4051609   4.7605634   6.2128987  27.7418842   5.5894990
  41.2978210  59.4782944  28.8843708  40.8854713  58.7039070  29.2671471
  41.3906364  59.2658730  27.9556656  69.2874222  31.3799820  75.1896057
  69.5976410  30.5675621  75.5895691  68.3334274  31.3257179  75.2461166
   5.4416113  52.2384262  63.7802086   5.2984686  52.8513718  64.5013428
   6.0434723  51.5852013  64.1369858  86.0329590  70.9369583  88.2259674
  86.0786819  71.8588867  87.9726105  86.9416275  70.6907883  88.3990631
   7.1238532  50.8571167  41.1704521   7.7354550  51.1504135  41.8458405
   6.9435234  51.6421928  40.6533737  83.5017090  59.2596359  65.9381561
  84.4299850  59.3560104  65.7254562  83.3359222  59.9332390  66.5977097
  78.5066910  32.7657394  42.4213715  79.1562576  32.8778496  41.7273026
  78.9670639  32.2770157  43.1035995  83.3917923  70.0300217  49.4483528
  82.8407059  69.2786789  49.6674957  83.3597031  70.0800476  48.4930000
  25.5987263  60.3713188  48.3460541  25.6147079  61.3277435  48.3811340
  24.7366467  60.1335030  48.6873703  27.5155239  14.8383942  65.8437042
  26.9234142  15.5036707  65.4929276  28.3617725  15.0351496  65.4419785
  53.3727226  56.2227516  55.9138222  52.8457375  56.9015236  55.4921761
  54.2740517  56.4331551  55.6697540  70.9964066  27.1236115  81.9687653
  70.9070969  26.7833920  82.8589935  70.2716751  27.7418098  81.8747940
  66.9502029  19.6419010  38.6087875  66.8007889  19.5918827  39.5529327
  67.5835800  20.3518562  38.5038109  79.9581451  57.5277367  72.3761368
  79.2372284  58.1099777  72.6159363  80.4390411  58.0072479  71.7015686
  52.0483322  45.1461906  18.9099064  52.5802917  44.8024979  18.1921844
  52.1986923  44.5368080  19.6325932  38.5983696  47.9409180  64.8241348
  38.2502785  48.0872345  63.9445572  38.1953583  47.1203308  65.1077728
  58.8612175   4.4978995  27.0652714  59.5611801   4.9507470  27.5356064
  59.2483826   4.2714739  26.2196541  69.1706772  62.8455772  15.5534248
  70.0477829  63.0454063  15.2263422  69.3206558  62.4293709  16.4022541
  13.4738712   5.1162934  55.7421265  14.1557217   5.3394966  55.1084938
  12.7135620   4.8904901  55.2062416  40.2722397  49.8216743  47.0617180
  39.9477768  50.3056183  46.3022766  40.5390205  50.5001564  47.6819763
  27.4094124  -0.2512172  17.6086273  27.5989418   0.1739794  16.7722549
  26.8837051   0.3885165  18.0888386  65.7258759  29.2552853   0.0922948
  64.9521027  29.4973717  -0.4165269  65.4644165  29.3877888   1.0035110
   9.5787640  34.9474869  28.3264751   9.2109737  35.7365723  27.9286041
  10.4118700  35.2339745  28.7007618  80.6915665  13.0380974  13.2010708
  80.1833115  13.5160093  12.5457010  81.5557022  12.9319077  12.8032951
  82.7737656  65.1687851  57.4344254  83.4879761  64.5473404  57.5756721
  82.1664047  65.0035858  58.1555748  60.3188629  18.4779587  66.8617477
  59.6852264  18.0263977  67.4192657  59.9973145  19.3782845  66.8142929
  79.8485184   0.9118484   1.3775381  80.1110764   0.6712922   0.4890392
  79.4931564   0.1044740   1.7491517  55.7159424  55.7620430  81.2901840
  56.5337067  55.7434235  81.7873230  55.0685120  55.3750648  81.8795166
  49.3249969  38.8048210  66.0876617  49.0317574  37.9080582  66.2490768
  50.2758636  38.7343597  66.0032806  77.0441742  36.6912880  11.8557558
  76.5394211  37.4803925  12.0526581  77.2719116  36.3324165  12.7134161
  83.7776947  60.9018135  51.1813774  83.2765045  60.9841309  51.9927139
  83.6684952  61.7470322  50.7455940  50.9561195  23.4878139  39.2689209
  50.8731689  23.3114719  38.3317719  51.2752876  22.6652565  39.6400871
  74.4788055  19.3602180  66.2150650  73.7755890  19.9116039  66.5581284
  74.4661484  18.5818005  66.7719650  39.9505806  51.9526634  20.6922474
  40.8680992  51.7214050  20.8368568  39.8750877  52.0509987  19.7431087
  76.5886459  38.6629524  84.8355713  75.9956741  37.9118271  84.8564987
  76.9307861  38.6731758  83.9416656   0.6259345  65.7290497  78.0774460
   0.7453327  66.5756607  78.5078430   0.8119824  65.9012527  77.1544266
   0.9184876   5.7701511   0.8209400   0.6276171   5.3218784   1.6150923
   1.0799739   5.0654402   0.1936150  32.6116753  56.5083313  86.4879074
  31.8409672  56.5933456  85.9266510  32.5894814  55.6000862  86.7892914
  82.9459000  53.8259544  20.6574574  83.3672180  54.1929893  19.8802795
  83.2907333  54.3445930  21.3843231  57.3622780  46.3314095  70.2001801
  57.6686630  45.4293213  70.2929077  57.5631409  46.5604973  69.2927628
  71.7410812  15.5621367  30.8769264  71.7898102  15.5875864  31.8325462
  71.4890060  14.6613274  30.6738644  41.2169724   2.2724617   2.2257099
  41.7789574   1.5951862   1.8492758  41.8209038   2.8587430   2.6815319
  70.1896286   2.1299865  40.0998878  69.8820724   2.9020710  39.6249924
  71.1396103   2.1395247  39.9829178  43.4392395  59.8344154  82.4654694
  43.9383202  60.5419044  82.0572968  44.0292168  59.4770851  83.1291580
   6.9377956  57.7904434   7.4539199   6.8294430  58.4441185   8.1447144
   7.8787699  57.6160011   7.4347034  51.4662170  57.4457779   6.9124203
  51.7455025  58.0878296   6.2597318  50.5283508  57.6048660   7.0188594
  10.8958549   7.0988102  85.3511200  11.6504049   7.6852083  85.4061050
  11.2731352   6.2195992  85.3807678  77.8184204  35.2859879  39.8098488
  78.7310715  35.1150284  39.5773239  77.3299255  34.5688286  39.4057617
   0.6670817  32.6901932  72.9375763   1.4791243  32.7127380  73.4438477
   0.9184377  33.0007324  72.0677414   0.2634802  69.5619583  16.2160244
  -0.4433379  69.3425369  16.8230629   1.0171328  69.0666733  16.5368614
  78.0655746  33.7462463  47.8441086  77.7360306  33.7731705  46.9458275
  78.2366791  34.6619987  48.0640068   1.1037517  28.5820236  66.1059113
   1.4947499  29.4526520  66.0326996   1.2299067  28.3391724  67.0231552
  71.0709839  48.7206879  79.9347000  71.0533524  49.2642632  80.7223816
  71.9998703  48.5428047  79.7871933  55.3045349   9.2242041  59.5477982
  55.0250435   8.6282024  60.2427063  54.5256424   9.7445908  59.3509331
  66.7425613  67.6894379  39.6616745  65.8730392  67.3620911  39.4314346
  66.9759674  67.2104950  40.4568939  49.1607857  38.4471703  11.1623745
  49.1310921  37.5060310  11.3344402  48.9636269  38.8514671  12.0073023
   3.7103510  23.9521294  81.3736343   3.3731349  24.1234608  80.4943390
   3.8141401  24.8200703  81.7636795  72.8374863  11.0407705  25.6552773
  72.5625229  11.2604218  26.5454350  72.0313568  11.0749416  25.1402855
  38.4374771  67.1287231  67.9556046  37.4989967  67.1260071  68.1439667
  38.8484192  66.8757935  68.7822800  69.2056427  64.8040848  76.3663254
  69.4764633  64.4525299  77.2144394  69.9055099  64.5471115  75.7660065
  34.4977608  70.8687515  32.4341888  34.4704514  70.6554565  31.5014572
  35.4145241  71.0857925  32.6035118  76.4319229  47.6947784  61.7071419
  77.0048904  48.1359215  61.0799789  76.9871216  47.0275307  62.1105804
  55.4613914  42.6052208  38.0782776  55.5752945  43.5494156  38.1867180
  56.3235283  42.2894936  37.8075981  54.2841949  52.2777519  57.3827248
  55.2240906  52.4017487  57.2506409  54.1808624  52.2241478  58.3328209
  73.7509079  53.8257179  44.6404343  74.6595383  53.5358696  44.7217560
  73.8150177  54.7446709  44.3803368  72.6040115  70.8325958  14.0065231
  71.6919403  70.7428055  14.2827387  73.0978699  70.8863754  14.8247204
  25.3347073  47.7780266  30.8487053  25.7523289  48.2679672  31.5570717
  26.0574894  47.5230560  30.2752876   8.7263222  22.2246227  85.0426254
   9.2208176  22.2076225  84.2232285   9.0668144  22.9861298  85.5121002
  28.4043732  19.2200890  84.0474091  29.1178226  18.7137184  84.4357529
  27.9673729  18.6052322  83.4581604  65.7827148  38.1515274  46.9942856
  66.4929581  37.8664780  47.5692139  65.6248856  39.0625038  47.2421684
  41.3206100  39.6909065   0.1653401  41.0188942  39.0134850   0.7705675
  41.4171982  40.4724617   0.7094687  23.4385338  26.1392307  20.5980301
  23.2375832  26.9805470  21.0079517  24.0370216  25.7113285  21.2103558
  73.8423462  30.3807526  84.8557587  74.4142838  29.6137905  84.8855286
  74.4359970  31.1165600  84.7060928  60.7935143  49.9080467  75.4872971
  60.8333702  50.8358803  75.7191772  61.3410721  49.8327446  74.7058029
  63.6093712  27.9013729  56.1114082  63.0782890  28.6349087  56.4214249
  64.5126648  28.2055454  56.1995888  24.0899754  27.1131420  72.4793854
  24.2384167  28.0405827  72.6639175  23.6101761  27.1075344  71.6511383
  73.7272720   1.7232177  60.3816719  73.9344254   2.6528141  60.2859154
  72.8878555   1.6175346  59.9339600  83.2149506  54.3624878  86.7325439
  83.3043137  53.9897041  85.8554611  84.0026855  54.0771523  87.1954651
  19.8743916  53.8499947  14.7157965  20.1957512  54.4007492  14.0019140
  20.6515217  53.3881912  15.0304995   0.7722127  29.4251328  58.3718109
   0.6677365  29.7995853  59.2465096   1.7057846  29.2238216  58.3073959
  17.4589272  37.6652451  76.9314346  16.5770493  37.5600319  77.2884369
  18.0288353  37.6766052  77.7004013  52.6436424   2.9714770  46.9751358
  52.1611404   2.5384121  46.2709503  51.9961662   3.0931060  47.6695518
  61.4773750  49.4973793  86.6853333  61.7417717  49.3743935  85.7736359
  62.3004227  49.6153679  87.1595688  31.3173008  49.5013771  70.9306107
  31.8958893  50.2625427  70.9763718  31.9086132  48.7576904  70.8143692
  85.6640167  38.4039726  60.1915321  85.0277481  37.6911163  60.2483978
  86.1112595  38.3938980  61.0377617  75.7052231  62.9980469  50.3310928
  75.8531036  62.0711784  50.1432686  75.5453339  63.3935318  49.4742050
  33.3507576  70.2262726  79.0703278  33.7818565  70.8657990  78.5034103
  34.0046272  69.5386505  79.1962585   2.8054659  61.8896484  88.4439316
   2.3880277  62.7508240  88.4250488   3.0804074  61.7766571  89.3538055
  70.0148621  36.1276245  49.9527931  69.0697250  35.9863167  50.0073738
  70.2385941  36.5699081  50.7716751   3.4074547  26.3986282  71.3954544
   3.1524796  25.9645462  72.2095795   2.5823658  26.7036781  71.0180893
   8.1237879  62.5491486  25.8648624   8.7447462  62.0049210  25.3806496
   7.7375059  61.9561958  26.5094013  58.0266724  12.3037395   0.3647075
  57.3322945  12.7240686  -0.1426364  58.8283920  12.4954901  -0.1218191
  27.6513195  32.2085953  11.4231796  27.4152584  31.5855389  10.7359333
  28.1037197  32.9145126  10.9613934   5.3432817  25.1984634  67.8862534
   5.9449010  25.7656345  67.4039612   4.4856577  25.3751945  67.4996262
  27.4085484  62.7546120  34.1441002  27.2425671  63.6030846  33.7332764
  27.5014553  62.1472130  33.4101639  41.7883186   5.7324214  16.5910645
  41.9659081   6.6357436  16.8531780  40.8370552   5.6944890  16.4916325
  67.3337173  40.9629593  62.0386581  67.7374115  41.6251183  62.5997353
  66.5162659  40.7384377  62.4831734  80.9001617  29.7883034  40.3148460
  81.2850494  30.3389206  40.9966888  81.3259888  28.9381199  40.4247932
  51.8436356  58.8424454  56.0751076  50.9292526  59.0230141  56.2931328
  51.8363724  58.6736031  55.1329460   4.8858490   4.6309905   0.6770014
   4.4088984   5.3822336   1.0296829   5.7828870   4.7485657   0.9896201
  48.4532471  28.5779152  26.0278969  48.2574425  28.4926147  25.0948277
  47.6098747  28.4502697  26.4622517   3.4763787  57.3826218  18.2233372
   3.7250845  56.4615326  18.3006516   4.2419996  57.8056221  17.8345871
  57.5130615  34.7376785  36.6555328  58.2855072  34.1964455  36.4923668
  57.8232231  35.4268303  37.2429848  11.6062346  63.2990456  50.6964798
  12.3385906  63.6292763  51.2168961  11.2443619  64.0767593  50.2716942
  54.0995407  15.2610807  66.0792770  54.0472717  15.6975718  65.2289963
  54.0693092  14.3272219  65.8713684  86.4384232  37.9225807  17.1364021
  86.2932892  37.1150551  16.6433811  87.2057648  37.7379227  17.6779900
  22.3860664  16.7571526  68.4394684  21.7012825  16.1748295  68.1105270
  22.7630711  17.1517277  67.6530762  54.4940071  31.2620373  31.5358620
  54.7335510  32.1886368  31.5195808  55.2953377  30.8121605  31.8036575
  50.5218430  63.2052345  27.3645210  51.0817108  63.4034500  28.1151810
  50.8197708  63.8031845  26.6790104  78.3586121  26.8864040   6.9117055
  78.7908096  27.4779015   6.2956147  78.6842880  27.1554909   7.7706361
  23.5781841  45.7094917  65.1954880  24.1154461  46.0807266  64.4956512
  23.5357971  44.7745705  64.9945984  15.1153593  64.1779327  77.9067230
  16.0293751  64.0738754  78.1712570  15.0402184  65.1004105  77.6625519
   2.1946352  21.1670322  88.6867828   1.5147133  21.8075352  88.4777451
   2.2791770  20.6396103  87.8924789  57.4882507  16.8392868  49.2475739
  57.8066673  17.6229343  48.7995377  57.9327660  16.1146183  48.8077011
  81.8256454  42.1897926  34.9457245  81.3341064  42.9956398  34.7868805
  82.4804916  42.4336777  35.5998917  84.6822662  24.4400196  57.8000717
  85.3615952  23.9552059  57.3313484  84.9624710  25.3539200  57.7500229
  10.1301508  12.6801701  85.7827911  10.4317923  12.4602938  84.9013748
   9.2485781  12.3107061  85.8333664  72.7311783   8.6286707  58.8077736
  73.5460815   8.6304998  58.3056183  72.4096756   9.5281324  58.7458572
   6.6556172   3.6610520  78.2850952   7.0649543   4.0353031  77.5049591
   5.7479186   3.5018361  78.0263214  33.8872414  56.4669075  15.0039825
  34.0370598  56.8408432  14.1356745  34.4623680  55.7025108  15.0380611
   2.7667301  44.0030174  18.4748726   3.7084737  44.0301323  18.6440334
   2.4339762  44.8225708  18.8407116  44.0378609  40.2225304   8.5645885
  44.9829369  40.2924805   8.4297838  43.8958855  39.3039589   8.7932777
  27.3100300  61.5002975  17.4066792  27.2542000  61.5557060  18.3606415
  28.2320061  61.3120995  17.2312450  25.4481850  41.3199806  19.7823963
  25.1768303  42.1769524  19.4534645  25.1101780  41.2889557  20.6773930
  76.3852921  24.3810253  45.4151764  76.7682648  24.3713112  46.2923660
  76.5547485  23.5044060  45.0701294   2.5846548  45.9353790  26.7148380
   2.4728870  45.0305672  27.0064850   3.5326996  46.0664673  26.6987648
  34.9190292  56.3662605  41.3486366  35.7140350  56.0369835  40.9293823
  34.2767677  55.6670723  41.2267075  70.1362839   5.1688910  49.4531097
  69.5155945   4.5614138  49.8555374  70.9261703   5.0939398  49.9885597
  10.9447260  68.7962875  24.1912708  11.5585852  69.5278320  24.2565155
  10.6975908  68.7727203  23.2668247   6.2440000  10.4510059  10.1297445
   6.1878552  11.1341534   9.4616203   5.7880187  10.8184500  10.8869085
  21.2202682  35.1231422  65.3795395  22.1529350  35.2008553  65.1787338
  21.1337948  34.2607918  65.7858734  48.2913589  42.3051758  51.6898155
  48.1149750  42.5734482  52.5915680  48.7326431  41.4598846  51.7733688
  56.3314781  53.6307373  11.8364220  56.2967606  52.7283669  11.5190048
  55.4142952  53.8956985  11.9057608  69.0342026  43.3040276  24.3122120
  68.7354431  42.6789207  24.9726810  68.2556839  43.8190918  24.1004295
  46.6853104  13.2674437   8.8608370  47.5625763  13.4059668   9.2178326
  46.1150475  13.2435522   9.6292515  70.7068634  61.9888840  41.2679291
  70.5370178  62.8832664  41.5636711  70.9657898  62.0847778  40.3514175
  50.0192413  56.0911751  56.7403069  49.3752708  55.9878845  57.4409256
  50.8659554  56.0403404  57.1838417  42.1115074  45.1177673  19.9776211
  42.9412117  45.5949631  19.9880848  41.4622192  45.7719231  19.7192860
  12.8673687  16.4574490  66.3196716  13.7906113  16.5986118  66.5292587
  12.4827738  16.1372318  67.1356277  76.8278351  26.0866871   0.3386507
  77.6421432  25.6063061   0.1890926  77.0745239  27.0078487   0.2559602
  58.8287468  46.2072067  -0.1276881  58.9801788  47.0409355   0.3175032
  57.8859062  46.0617142  -0.0494859  83.4625549  40.1934242  47.7757721
  83.7982864  40.4299812  48.6403885  83.9881210  39.4376907  47.5133057
  70.4864731  15.1871452  70.0031052  71.2246780  15.2254410  70.6112289
  70.3093719  14.2521429  69.8999710  36.6390991  60.1096344  83.8768692
  36.7597389  59.9228745  84.8078918  36.0165482  59.4466743  83.5783005
  84.3597565  33.4016266  41.8279381  85.1634979  33.4165001  42.3475647
  84.6061707  33.8019829  40.9941368   8.1380959  56.1563377  50.1418304
   8.9337187  55.6269417  50.0874786   7.7089601  56.0313568  49.2953949
  30.0070648  43.1386070  79.1602707  29.1653194  42.9200935  78.7603302
  29.7780247  43.6514206  79.9353790  48.6269798  15.2316437  36.5355034
  47.7207489  15.1060200  36.2540855  48.6308174  16.0927906  36.9534073
   2.7774971  15.0224066   9.4016476   1.8684373  15.1078482   9.6889477
   3.2930133  15.1420918  10.1992378  36.9531250   2.7063267   6.9912577
  36.9559250   2.0274293   7.6660333  37.8709259   2.7911420   6.7330256
  69.4776077  52.4541168  48.4229126  69.1337204  53.1211815  47.8287735
  69.2727051  51.6231003  47.9943619  50.6157417   1.0210873  60.7438583
  50.9953766   1.5234569  61.4647865  49.9319153   1.5896245  60.3897705
  27.9843235   2.8758533  81.1516190  27.8769436   3.8269994  81.1563721
  27.1569366   2.5431468  80.8038177  72.9266129  53.6384735  55.2445412
  73.8434906  53.8677139  55.0928535  72.4485779  54.4551888  55.1007080
  46.3499489  45.1691017   2.5340538  45.8488503  44.8196945   3.2709713
  47.1446266  45.5246696   2.9319117  76.0517502  15.4909782  26.6863728
  75.5564423  16.1811028  27.1275425  75.4313965  15.1113701  26.0640488
  32.8510780  45.7875023  56.4982376  33.2697563  45.4442291  55.7088699
  33.3961830  45.4673958  57.2170029  46.7058754  40.4485207  16.9413471
  46.3875961  40.2458344  16.0616608  46.2106895  39.8644524  17.5157032
  11.4374075  15.1151609  56.3979607  11.2862911  15.9457922  55.9469109
  11.8767414  14.5663261  55.7483482  47.0220680  70.1102829  63.0351524
  47.8408127  69.9521637  62.5651627  47.2124977  70.8564606  63.6036453
  62.2745018  15.7394629  31.6479721  62.9860802  16.1240234  31.1361122
  62.6623192  14.9630203  32.0516624  69.0238266  14.7635612  41.8789749
  68.4302750  14.2797718  41.3046265  69.5581207  14.0873775  42.2955475
  28.5303936  67.4193420   4.6323605  29.1587334  67.0105057   4.0371513
  27.6747417  67.2116318   4.2569289  15.8769188  11.0084305  66.7738113
  15.9310331  10.4859657  65.9736099  15.4311018  11.8118801  66.5055847
  84.3896790  22.8518753  71.0300293  85.0101013  22.5107479  70.3858795
  84.1215134  22.0838108  71.5344086   0.1885923  66.0059280  65.7878799
  -0.3829425  65.2586212  65.6114731   1.0464820  65.6166153  65.9572678
   1.2765768  56.4324455  41.2599564   1.3016483  55.4777641  41.1952896
   2.1738651  56.6811180  41.4819221  37.7271118  24.1174049  42.9125862
  38.4897232  24.6743546  43.0689926  37.3186150  24.4851818  42.1289406
   4.3350420  41.0715904  85.0826263   4.3856688  40.3162918  84.4967957
   3.4234893  41.3580818  85.0258255  65.8318634  52.1907043  50.4055061
  64.8845215  52.2678719  50.2922440  66.1784668  52.1657181  49.5136147
  62.1515579  54.0740318  19.7540283  61.6989708  53.7410164  18.9791126
  62.2846985  53.3019409  20.3039227  21.4610672  18.5201225   8.1655827
  21.0484581  18.4205341   9.0235262  22.3487225  18.8208523   8.3601685
  79.4382782   2.3286035  23.4810295  79.3447876   2.4625025  22.5378628
  79.6269608   3.2000749  23.8291206  64.0055695  57.6886101  52.3305702
  63.5631104  57.8118820  53.1703720  64.2388992  58.5737076  52.0505905
  82.4186096  52.4325027  15.5813837  82.7748184  53.3130302  15.6997499
  81.4705429  52.5601616  15.5479670  76.4411087  35.2969360  35.4716949
  75.6431656  35.7922211  35.6566467  77.0343018  35.9367485  35.0780029
  61.0501251  35.5887527  79.5361023  61.6531258  34.8536415  79.4255066
  60.6100845  35.6670074  78.6896515   1.6151407  47.3351212  75.3552551
   2.5281901  47.5086517  75.5842972   1.4022014  46.5243797  75.8174133
  40.0336227  59.8462296  48.6617317  39.8236732  60.3357735  47.8664360
  39.8195419  58.9381866  48.4475708  49.9717140  20.8709126  42.1768456
  49.1099510  21.2043800  41.9270439  50.4902573  20.9219532  41.3738899
  64.7271576  42.9695129  25.8835392  63.7813644  43.0055237  25.7406807
  65.0968933  43.4928055  25.1724186  60.3209152  50.4270630  80.7504501
  60.6042595  51.2500687  81.1487122  59.7124443  50.6918144  80.0605927
  81.1071625  44.7330132  10.4874954  81.3034821  44.4282990  11.3734074
  80.1724625  44.5593414  10.3761044  27.6937618  36.9759369  61.4618340
  27.1819820  36.9366531  62.2697754  28.1415958  36.1309624  61.4206657
  85.8554459   7.6337905  23.9914417  85.9712296   6.9046273  23.3822231
  85.9737549   8.4165516  23.4533710  15.5760174  40.6541443  19.7822132
  15.2944012  39.8319054  19.3811588  15.4468727  41.3109398  19.0979805
  49.6735268   4.1779265  20.4632797  49.6910858   4.9472585  19.8940258
  49.9947586   4.4966993  21.3067417  81.8324738  71.0622787  32.5122833
  81.9142761  70.2047119  32.0950089  82.3835983  71.6394043  31.9836731
  43.8550224  66.5842361  50.7730865  43.5926781  66.1421356  49.9656448
  43.7218781  65.9296570  51.4586792  33.1336937  62.2717209  19.0735302
  32.9236832  61.3989182  18.7413578  32.7055321  62.8703384  18.4615116
  49.8123970  33.6279526  70.4928207  49.0814247  34.0143242  70.9751358
  49.9691010  32.7893028  70.9268112  45.1171799  63.1593819  78.1088257
  44.3688583  63.0063248  77.5319214  44.7296486  63.4751129  78.9251328
  27.5535488  50.8848190  58.3094215  27.0122204  51.1089249  59.0663719
  28.1287575  51.6411514  58.1939812  22.9001465  55.5866165  68.2975082
  22.1704750  56.1617088  68.5279007  23.6805458  56.0682259  68.5718384
  43.0947533  11.1289606  39.7583427  42.5367775  11.9064598  39.7385368
  42.9890289  10.7361507  38.8918800  50.7604942  71.1387482  58.3591957
  50.5717354  71.4459305  59.2458992  51.3560143  71.7962494  57.9996376
  80.4311600  19.1380520  36.8320312  80.8608246  18.7015743  37.5676308
  79.5477142  18.7698650  36.8179169  47.0942879  22.3743153  69.0501022
  46.9858093  22.8153057  69.8927155  47.2829361  21.4641457  69.2786560
  51.5735779  22.7669411  83.4738007  51.6098518  23.5647182  82.9460983
  50.6577644  22.6999626  83.7440414   4.8896608  66.5271149  42.3617172
   4.5809951  65.6227188  42.3068085   4.3920145  66.9064789  43.0860558
  66.3524170  70.7600403  52.9724693  67.2991486  70.6210785  52.9475136
  66.1308441  71.0587082  52.0904617  22.1510277  23.5643768  62.2294960
  23.0312824  23.5308685  62.6040077  21.6900024  22.8301716  62.6352425
  64.3933716  38.7301331  71.6711044  64.1069565  38.0453568  71.0667191
  65.3275375  38.8339996  71.4900513  35.1444778  45.5138855  33.0212708
  34.9228516  44.8478050  33.6720047  36.1002808  45.5609360  33.0426521
  44.9880371  33.2173843  71.2134476  45.7405891  32.9173622  71.7232361
  45.0462646  32.7306290  70.3913116  55.8132820  14.3768797   5.7354755
  55.5290184  14.4241323   4.8226805  56.2261620  13.5168400   5.8135386
  16.1683598  35.4776802  57.8920555  17.0749512  35.5036087  58.1980782
  16.0033035  34.5525093  57.7102661  38.0807152   3.7546687  28.8154697
  37.7117195   4.3978992  28.2102203  38.7215233   4.2478399  29.3276997
  45.8932762  30.0773830  63.6174469  45.1296692  29.7863865  63.1189919
  46.4412193  29.2962723  63.6939812  72.8054199  23.1556149  72.4758072
  73.6090088  23.5864620  72.7670822  72.1064377  23.7624817  72.7194595
  84.2103195  70.4885635  65.4501801  84.1566162  69.5341110  65.4015732
  83.9198151  70.7889633  64.5890274  48.1846313   2.2438204  11.0241051
  47.6338921   2.4886053  10.2804651  49.0798454   2.3835366  10.7153978
   2.8020639   6.1492457  61.4025002   2.0673792   6.6644835  61.7356644
   3.5677893   6.5041075  61.8541298  65.2780151  64.9212799  38.6402931
  64.3570786  64.8737717  38.8969116  65.7548828  64.5735245  39.3938828
  11.4935627   2.7661417  10.4829245  12.4078751   3.0362771  10.3975382
  11.5319614   1.9396011  10.9641609  48.9696159  37.0324326  62.7440147
  49.0081825  36.3265457  63.3893585  48.1355934  36.8997154  62.2934341
   9.0744448  49.5988007  18.8920021   8.4020042  49.4418488  19.5548916
   8.8114786  50.4185066  18.4734802  70.6965179  33.5856819   5.2707996
  70.1689301  33.0154076   5.8299675  70.1287994  34.3345757   5.0889125
  20.4856968  61.0386810  76.4192276  20.9919434  60.3978767  76.9185410
  20.1268559  60.5406570  75.6847610  33.2485733  43.8832397  25.2981815
  33.3326416  44.5076523  24.5775738  34.0851135  43.9367752  25.7603149
  76.3924637  53.0974884  57.8106651  76.5769272  53.8270111  58.4022751
  75.8399582  52.5073128  58.3231659   0.6809496  17.7153244  80.5818024
   1.1294048  16.9170284  80.8608017  -0.1053498  17.7511616  81.1264877
  41.4378319  64.2268372  46.3113174  41.4258156  63.4149666  45.8044128
  41.7033920  64.8978958  45.6825180  65.8590240  17.3897285  43.9452209
  66.8008347  17.3660507  44.1145172  65.4733658  17.6691322  44.7755432
  85.2355042  69.6694946  74.9544067  84.5856705  69.8902588  74.2871552
  85.8901367  70.3649063  74.8905334  29.5740566  50.1298294  13.2758245
  29.9423981  50.8859901  12.8189011  29.0064983  49.7117958  12.6282463
  54.2865257  35.5195084  24.6593590  54.2849579  35.9605598  25.5088902
  53.6779099  36.0286636  24.1240292  21.6524677  52.0472374  85.5854187
  21.6018372  51.0916443  85.6080933  20.9044285  52.3141060  85.0511475
  23.0822086  35.2688141  88.4055710  23.8666782  35.7109795  88.7301178
  23.3849297  34.3952599  88.1576004  75.9710159   0.2386733  47.8071671
  75.2851868   0.8368415  48.1039238  75.6444931  -0.1067815  46.9763374
  86.2463150  38.6379128  26.7584095  85.8477783  38.6149101  27.6283932
  87.1754837  38.7967224  26.9247360  50.5751266  25.2839508   1.2179050
  51.1694336  25.9733276   0.9216168  51.0500183  24.4699421   1.0502785
   5.7223277  34.9590759  74.3196945   5.3590169  34.9486008  75.2052078
   4.9771547  34.7603836  73.7527084  80.0610962  58.9557228  55.8007927
  79.5397644  59.2076492  56.5630112  80.8559265  59.4847336  55.8688011
  70.8600006  18.0427284  78.4629364  70.1696320  18.5432854  78.8977585
  71.0859528  17.3536358  79.0876999  34.6410141  58.6685066  52.6094551
  35.4038773  58.1534729  52.3467522  34.6500130  59.4256477  52.0238876
   9.6244221  40.3202400  68.8149185   9.4147959  40.8407173  69.5904160
   9.4676647  39.4152107  69.0843277  52.5829315   1.9265568  26.4551811
  52.1755257   1.3376290  25.8200302  52.3124008   1.5841717  27.3071308
  82.6519623   5.5503035  80.7940292  82.1610565   6.3542495  80.6239777
  82.4580307   4.9880719  80.0440216  37.9524536   3.7357564  15.2621584
  37.0622063   3.9165373  15.5638399  37.8373528   3.1518486  14.5124683
  71.9217453  30.3864594  59.6463928  72.3075714  29.5172482  59.5375633
  72.5606995  30.8680534  60.1717873  60.2126503  17.9872456  17.7437477
  59.2933502  18.1841564  17.5639153  60.1855125  17.3388519  18.4473667
  59.8478432  21.0071564  49.3737602  60.4278336  21.7606258  49.4838600
  59.9405518  20.5125370  50.1880035  26.5972157  63.4024849  60.1076279
  25.6555252  63.4175835  60.2785683  26.8467808  62.4855309  60.2222748
  45.5589066  33.5951118  74.3774948  46.4284439  33.3573685  74.0556030
  45.2058907  34.1781845  73.7054520  53.4707146  67.0426025  27.9057732
  54.3961639  67.2570038  27.7882500  53.3263741  67.1135712  28.8493633
  72.4606094   6.1502113  66.5809174  72.9243927   5.3298407  66.4132004
  72.9565582   6.5658422  67.2862701  68.3476410  28.7801971  55.9465714
  68.8952484  29.2653084  56.5638466  68.3836060  29.2937965  55.1396294
   6.0968552  64.5984039  70.4680328   5.4606242  64.8876495  69.8139877
   5.8555536  65.0733109  71.2633133  64.1179733  59.6868210   2.3152583
  63.8786354  60.2141991   1.5531423  64.9498672  60.0567322   2.6108086
  51.5260582  33.2674713  42.9168243  50.7152061  33.6574669  42.5902481
  51.9655762  33.9808884  43.3795242  59.1214752  33.1014786  65.2787094
  58.6441460  32.4122200  64.8168488  58.6520081  33.9062614  65.0592728
  59.1207008  26.2860565  71.5387344  58.6042252  26.0604839  72.3124237
  59.7629395  25.5801048  71.4653091  17.5260429  60.1031342  17.9455719
  17.2072430  60.1260262  18.8478317  16.7974720  59.7382469  17.4433041
   3.9379804  45.7178535  38.5811768   3.6624277  44.9161720  39.0257111
   3.1216030  46.1827660  38.3978310  70.9211884  59.2427063  70.6685410
  71.4534988  59.6116409  71.3733597  71.3135986  58.3871078  70.4947586
  25.9054642  38.8068848  84.6727676  25.0060806  38.9318314  84.3699036
  25.9885750  37.8608665  84.7926636  81.7498856  50.5501328  20.3416348
  82.3672791  50.6573410  21.0652084  82.2137527  50.8937149  19.5780849
  17.1625957  15.4900284   0.9894558  17.6015301  16.0318909   0.3337465
  16.2999725  15.8916273   1.0935224  46.1858940  32.7476044  77.2094498
  45.3342247  32.7719841  77.6456833  46.0207977  33.1148415  76.3410568
  28.9735756  57.6833038  68.6463089  29.8577099  57.5176659  68.3190460
  29.0799274  57.7620506  69.5943146  70.6577606  70.6594696  25.8875008
  70.9925766  71.4513245  26.3083267  71.4140396  70.2941971  25.4283199
  12.7045937  56.0831642  10.1924124  13.0516386  55.5495415   9.4775400
  12.7640848  56.9826660   9.8705578  73.9057007   3.1401746   3.0835197
  74.0323334   2.4693289   3.7544618  74.7838135   3.3033457   2.7392409
  71.9947052  24.6093922   0.5798056  72.6483917  25.2514458   0.3028713
  72.0859985  24.5699978   1.5318270  13.3202991   6.4754615  13.4352970
  14.2584486   6.2868190  13.4581404  13.2067623   7.2005553  14.0497723
  86.3778229  16.2956848  15.9200306  86.7097473  15.5637436  15.4001074
  86.5105362  16.0239754  16.8282127  70.9907303  62.9077530  68.4417114
  71.5191727  62.1923943  68.0878220  70.1161728  62.5320854  68.5429916
  74.4533768  31.5045872   1.1415107  74.0257339  31.6097393   1.9913909
  75.3355179  31.1993580   1.3533947  36.2253151  71.3779221  23.8854809
  36.4522095  70.9262543  24.6983433  37.0647469  71.5196152  23.4478645
  63.3938179  55.3692665  10.4170361  63.4209404  55.7214622  11.3066740
  62.5820007  55.7158928  10.0468588   3.1837795  56.7809753  49.6447220
   3.1263289  55.8622437  49.3823013   2.3094289  56.9915886  49.9724159
  47.4488754  63.1855774  76.5952225  46.5937386  63.3228607  77.0028076
  48.0782700  63.3546753  77.2963028   0.8196176  45.4793739  29.0605965
   0.8426982  45.5346794  28.1052742   0.4775849  44.6038933  29.2416344
  35.4342079  24.6514225   9.0776052  35.6235428  23.9313145   8.4760828
  34.5789490  24.4347992   9.4488688  13.5578365  62.5430298  36.1975746
  14.1473160  63.2189445  35.8630867  14.0895643  61.7472343  36.2119560
  85.9328079  26.8640919  57.1949081  86.2356491  27.7526913  57.3817596
  86.6128235  26.2976627  57.5595627  75.7541580   9.2725983  61.9291992
  75.3024292   8.6614361  62.5111427  76.5606918   9.4945936  62.3944473
  35.3528061  70.9442673   7.5853968  34.4115219  70.7751007   7.5454412
  35.6622086  70.7886887   6.6930408   2.8871605  44.7379837  64.8380508
   3.2345812  45.0034523  65.6895523   2.2354474  45.4063301  64.6263504
  11.6122093  13.8735332  19.0095825  11.9659157  14.7619553  19.0523682
  10.6867809  13.9941645  18.7968330  68.3877106  53.1563988  13.6436548
  68.5777283  52.3357430  14.0982389  69.2255478  53.6188622  13.6239738
  46.9324188  63.5496864  65.5745544  47.7226105  64.0705261  65.7179108
  46.9252510  62.9215851  66.2968216  78.9970551   3.0656126  54.6488495
  78.6946716   2.9988239  55.5545731  79.6820145   2.4010313  54.5754013
  46.4153175  62.3624153  68.0061188  45.4931831  62.3065987  67.7555618
  46.6817322  61.4533081  68.1431503  84.1944122  17.1091175  60.4369469
  83.4716873  16.4829292  60.3947639  84.9763489  16.5842934  60.2655754
  29.7141323  29.8085480  69.9459457  29.4313927  29.0493908  70.4558258
  30.6605778  29.8500195  70.0828857  20.0470829  61.7549324  41.9681015
  20.9862080  61.9372253  41.9357681  19.8717327  61.5640678  42.8895416
  64.7238159   1.8556912  82.8811569  63.8579254   1.9635785  82.4876633
  65.1464615   1.1816466  82.3489304   0.7645549  51.2171745  17.2446308
   0.5274578  51.4298477  16.3419762  -0.0735199  51.1404800  17.7006798
   0.1643961  33.6505051  60.4432297   0.5981423  32.7980881  60.4047775
   0.3838031  33.9920006  61.3101044  37.8252678  37.9504318  27.3293114
  38.4379463  38.4239578  26.7666111  37.3640518  37.3577538  26.7358093
  24.1004677  70.9255371  85.6270294  23.3843880  71.5222397  85.4093094
  23.7326870  70.0517502  85.4948654  28.9361267  62.7265091  87.1134796
  28.8668118  63.0433960  88.0140381  29.7549229  63.1020432  86.7897797
  41.1122856  70.6062622  42.2141876  40.7949753  69.8190994  41.7715569
  41.4779892  70.2863464  43.0388985  83.0293579  10.1054306  52.5599480
  82.6079865  10.9324999  52.7936897  82.6950684   9.4770479  53.1999626
  86.1332092  19.0970612  78.4563141  86.8163910  19.5681667  77.9792938
  86.5946884  18.6748772  79.1809006  69.3887329  11.6313715  23.2419376
  69.0325699  10.8521099  23.6687069  69.2490921  11.4776649  22.3075352
  11.7933111  58.4539185   1.7238300  11.2228117  59.1232910   2.1015847
  12.3108721  58.9221954   1.0687882  36.8353310  48.8996315  67.0728073
  36.1264076  49.4003754  66.6691895  37.1472588  48.3219376  66.3762512
  45.9148560  49.2516022  53.5677490  45.1760750  49.3693886  54.1648788
  46.5192795  49.9591255  53.7920532  -0.0160433  49.5191116  40.3004684
   0.6262560  49.5885544  39.5941658   0.5078560  49.3622932  41.0860672
  23.8437843  52.3281326  71.1069946  23.9866905  51.4513817  71.4635315
  23.7743702  52.1939354  70.1617966  10.0172024  46.9114838  50.5734253
  10.6162996  47.2006912  51.2616653  10.3560219  46.0577164  50.3041458
  71.9987564  30.4521446  83.0069809  72.4443665  29.7745285  82.4985580
  72.4994583  30.5091419  83.8207855   1.0613912  36.0309792  19.2343521
   1.0904434  35.5207977  18.4249687   1.0949998  35.3760681  19.9316273
  25.8960266  44.6886902   0.5234004  26.0801563  45.0035439  -0.3615822
  25.0089836  44.3327866   0.4712768   6.8822918  34.7574348  54.1072617
   7.2182698  35.0310860  53.2537575   7.6241517  34.3236618  54.5288277
  29.0047264  56.1216698  21.4228592  28.3958435  55.4187698  21.1960850
  29.7805614  55.9477234  20.8898926  27.2813473  58.0070381  48.9740601
  26.9649124  57.2887573  48.4261780  26.9157982  58.7946014  48.5711288
  72.0628738  51.8047256  43.4806099  72.3916245  50.9960365  43.8732681
  72.3849945  52.4985542  44.0560036  66.4615173  68.4620590  66.4806213
  65.5527878  68.4488983  66.1801529  66.4061203  68.7236176  67.3997192
  46.8833427  52.9276390  61.1089668  47.4740982  52.1833344  61.2240791
  46.0945015  52.6845016  61.5935783  53.9459457  41.2861557  25.0450459
  53.4379425  40.6873016  25.5923462  53.3834763  42.0540848  24.9443359
  26.9263592  66.6782532  49.5471230  27.1565037  65.7506256  49.5997963
  26.1626949  66.7032013  48.9705582  64.6026154  69.9415665  79.6575394
  64.4735794  70.0145035  80.6031952  65.1808853  69.1860886  79.5522766
  22.0016308  65.3823242  82.4562988  21.5492954  64.7241745  81.9286118
  21.4380531  66.1546707  82.4105606   3.4289851  41.2501411  43.2583694
   3.2073886  41.9703445  43.8486519   4.3345556  41.0307770  43.4775810
  62.2156868  42.8783569  31.4394226  62.5231705  42.0051117  31.1962643
  62.8384476  43.1754456  32.1028519  56.9876442  37.5402069  73.5427094
  56.5767250  37.5349350  74.4072113  56.9173813  38.4487343  73.2496643
   1.2820599  39.9549637  23.4088383   2.1560616  39.9750710  23.0190315
   1.3019671  40.6401329  24.0769539  40.2994080  27.5490608   5.6154509
  40.5091515  27.9213524   4.7589235  40.7157936  26.6871834   5.6104579
  50.8958435   8.3585606  57.5883636  51.4549713   8.8377981  58.1998711
  50.0871887   8.8694620  57.5524445  56.1408119   7.4335160   8.7357435
  55.7406540   7.3711991   9.6030502  56.4570236   8.3353834   8.6821012
  84.8909607  34.9872818  21.4125767  85.1822205  34.2360954  20.8957386
  85.5018005  35.0228577  22.1486759  62.4544601  62.8616562  12.9193430
  62.8512344  62.0191765  13.1407633  61.5264931  62.6636162  12.7932920
  60.5916138  24.7702446  75.5895386  61.0985031  25.1363392  74.8647842
  61.0928116  24.0043163  75.8695145  14.3751869  25.7050743  13.6043444
  14.8860159  26.4960461  13.7765303  13.5126734  26.0288143  13.3445482
  68.6923599  64.5156555  19.1405582  67.8443909  64.7352295  18.7545872
  68.8694305  63.6247292  18.8386879  66.9276276  32.0359802  13.8681726
  67.6759415  32.1952515  14.4434004  67.1492691  31.2281971  13.4049358
  86.4667740  34.0823631   6.8776431  86.1181946  33.9320564   5.9989324
  85.8402863  33.6533318   7.4604597  57.9020081  23.4481544  66.1735611
  58.7369766  23.5146980  66.6368484  58.0380898  23.9387321  65.3629761
  18.0138264  65.5487213  66.5171890  17.9900188  64.8994598  67.2201385
  18.7440491  66.1234818  66.7466431  31.2622986  68.5251465  80.9540787
  30.5237484  68.2918320  81.5165253  31.5083122  69.4064713  81.2351074
  72.1158447  69.2270966  29.3349667  72.4524307  68.4268417  28.9318123
  71.1659851  69.1647491  29.2343655  67.3761673  45.1271706   1.7937623
  66.9155426  44.7065239   2.5197861  67.5983505  45.9979057   2.1234396
  66.4629288  39.4968719   3.7337635  65.8254623  40.1672707   3.9795787
  67.2145233  39.9901047   3.4050393  38.3601608  22.7899971   0.9134572
  37.4563637  22.6174965   0.6495838  38.6898727  23.4003887   0.2539543
  10.5388880  26.3812466  74.4228592  10.4821768  26.2242355  73.4803238
  10.1594391  27.2516441  74.5439301  24.0044689  23.0219250   3.9249926
  24.5205669  22.2162647   3.9530811  23.8382549  23.1675415   2.9936492
   7.2166052   3.6257169  19.6943455   7.8718700   4.1095781  19.1916142
   7.1930447   4.0663552  20.5437641   7.9097576  58.7754745  81.0074615
   8.2491131  59.6688576  81.0616531   7.3058276  58.7034264  81.7465897
  82.0609512  57.7819710  62.9436302  82.3213272  57.6457901  62.0326462
  81.1649399  58.1143341  62.8895187  14.8165607  26.3784981  67.4276276
  14.4965048  26.0429783  66.5902405  14.1980200  26.0383472  68.0741119
  84.5296555  69.8598099  21.3275108  83.8101578  70.2614136  21.8146076
  85.0942535  69.4823380  22.0020351  50.9545593  54.5110321   6.7069149
  50.9866447  55.3519020   7.1631446  50.3439674  54.6540489   5.9837580
   0.1286662  52.6629257  36.7687340   0.5295221  53.4360542  36.3714676
   0.0577937  52.0340996  36.0505486  12.0480633  23.2183609   5.6742320
  12.7221632  23.0767307   6.3388839  12.4607592  22.9495716   4.8534603
  41.2119522   4.6191716  31.6485691  42.1362648   4.6700315  31.4050694
  40.7708054   5.2109599  31.0391369  28.4845905  28.8700256  17.4889259
  28.5970421  28.5592594  18.3872643  29.2782173  28.5852184  17.0358543
  37.3439293  48.2978325  69.6437378  36.4721489  48.3478508  70.0358276
  37.2017899  48.4947128  68.7178574  54.8829384   0.6537093  34.7033958
  54.8326378   0.5759396  33.7506866  55.3245239   1.4897784  34.8524704
  77.0298843  31.9660988  77.8874664  76.0787888  31.8607826  77.8640137
  77.3702621  31.0715313  77.8762970  51.8463402  45.6975098  74.4689331
  51.5099335  46.4552231  73.9904633  51.3639793  44.9533234  74.1087265
  70.4994736   5.2269678  41.8327408  71.0624771   4.5262446  42.1617432
  70.5186462   5.8924575  42.5204811  56.7145996  27.4494305  55.1015320
  56.1525993  26.8759193  54.5805016  56.5875702  28.3187866  54.7216415
  61.7775993  29.2663460  47.4067497  62.0202370  30.1665306  47.6236000
  62.6132431  28.8091793  47.3122711  80.2879410  29.3806896  83.0884323
  80.9769135  29.1146164  83.6973267  80.0614624  30.2710209  83.3572235
  83.6474609  16.4782181  42.7712555  82.7180328  16.7012997  42.7200546
  83.8551025  16.5297318  43.7042389  52.0373764  52.6982422  14.0862722
  52.2382927  52.2741623  14.9205513  51.7879753  51.9790344  13.5059490
  44.1314125  29.1302967   9.3747406  43.8617554  28.9895954   8.4671497
  45.0409431  29.4219074   9.3119040  75.5168686   3.3947997  75.3301239
  74.9633713   3.8960068  75.9290085  76.4060822   3.5262129  75.6591568
  40.1339149  58.0524406  33.2677116  40.9867592  58.3946877  32.9998512
  39.5159836  58.4347153  32.6446037   5.0286789  29.4888325   8.1608953
   5.3060269  28.5726986   8.1579056   5.7284098  29.9524174   7.7007875
  11.4752531  48.4445038  21.7425518  12.2638006  48.9114494  22.0189362
  10.8212576  49.1321220  21.6172447  78.0783005  60.7763138  13.2808247
  78.5241089  60.2802467  13.9674139  77.7933273  61.5811920  13.7134829
  72.2774963   1.6602114   9.7162447  72.9143524   1.2553031  10.3050508
  71.4333801   1.5248466  10.1467962  66.4175034  42.6637115  54.6383247
  65.8671875  42.8500710  55.3990173  66.2930145  41.7286339  54.4759636
  48.7127190  17.7637100  68.6380920  49.3627396  17.2956142  68.1140747
  47.8711815  17.5067711  68.2612305  32.6034508   9.7922382  10.1317501
  31.9985733   9.1202784   9.8173790  32.4490166  10.5415564   9.5565071
  52.6551971  49.8638649  23.0231953  51.7629852  49.8437805  22.6770973
  52.5559692  50.1736183  23.9234390  59.6097603  16.3557091  72.0838318
  58.8546219  16.1223679  71.5438843  60.3588142  16.2828064  71.4923630
  18.9037838  59.3676186   0.2944455  18.5459194  59.0648460  -0.5401155
  18.1702042  59.8074379   0.7241536   4.4861665  42.6295280  48.4682693
   4.5968428  43.5559387  48.6821556   4.8195167  42.1649933  49.2359390
   2.5801187   4.1746392  22.2267170   1.9096859   4.7006984  21.7908115
   3.3628953   4.7253790  22.2133732  36.8376961  21.0922108  79.9357224
  36.3766670  21.4557400  79.1797256  37.7062035  20.8680496  79.6015472
  14.7048416  13.3300304  65.7701950  14.9067631  14.1039114  65.2443008
  13.8452950  13.0464287  65.4587784  43.9983902  52.9811859  61.2909050
  43.7346916  53.3530464  62.1325798  43.1914291  52.9563179  60.7766800
  78.3411331   3.1129429   1.3154323  78.4976120   3.4842036   0.4471510
  78.6076431   2.1970415   1.2358789  22.0413914  67.6597672  24.4706669
  21.1295567  67.7361603  24.7516594  22.5404644  68.1107101  25.1517029
  52.8483925  17.7500362  71.4034500  52.8643379  16.8324547  71.1313782
  52.1470070  18.1419659  70.8831787  81.8150635  15.5023241  60.7760201
  81.0696487  14.9216442  60.9289894  81.7746429  15.7026787  59.8408966
  11.0507469  25.2977448  63.8013496  10.6331854  25.4062939  62.9468956
  10.3269243  25.3264904  64.4270401  35.8131714  60.0969849  34.0200043
  36.6329079  59.7690659  33.6502304  35.6927414  60.9546661  33.6124420
  41.2790604  44.1732025   4.9354682  41.6864815  44.3592606   5.7814126
  41.3825912  43.2283592   4.8224068  50.7886391  27.0742912  19.3167953
  49.9007111  27.4256001  19.2505150  51.2662392  27.4938183  18.6011639
  56.3662834  65.8896713  83.9667130  56.7309227  65.5862274  84.7980881
  57.0249062  66.4928055  83.6222229  72.0128250  47.3828316  88.2637863
  71.8898468  46.8591461  87.4720459  71.7481308  48.2669182  88.0097046
  50.3214264  48.2318954  65.7303467  49.9317207  48.7938805  66.4000778
  50.9807968  47.7212830  66.2001801  37.9384193  64.9314575  59.2828026
  38.7975807  65.0212555  58.8704758  38.0634384  64.2595520  59.9529839
  51.3342781  31.1861782  67.1667175  51.5526352  30.2590580  67.2615891
  52.1289177  31.6479816  67.4341507  28.3350792  24.4097195  17.1265678
  27.7819366  23.8345089  16.5979862  28.8858204  23.8129807  17.6333427
  69.0292969   3.3232858  17.8745441  68.4628983   3.1449480  18.6252937
  68.4288559   3.3903768  17.1321125  55.0635605  39.6451912  46.0364456
  55.0022202  39.9688148  45.1377029  55.6543045  40.2593765  46.4723740
   6.6941438  25.3884983  58.8399963   6.3222842  25.4774914  57.9624825
   6.5402603  26.2383595  59.2526550  44.1698303  25.5623226  83.5921936
  43.2416916  25.5927982  83.8242798  44.1993141  25.8605824  82.6831207
  51.2473907  67.7525482  61.3640289  50.5976143  68.4521332  61.4318733
  50.7824020  66.9654465  61.6477242  50.8969383  45.4822121  14.7479658
  51.6884384  45.9493484  14.4804907  50.5742302  45.0772629  13.9429150
  43.8643074  24.7639179  75.0994492  43.3866158  24.3440380  74.3840866
  43.3799286  25.5718822  75.2691498  22.6201935  32.4517441  16.9474869
  23.5479069  32.2472534  16.8301792  22.5265656  33.3422318  16.6091080
   1.5150906  59.9811630  42.3581848   1.0076576  59.4405518  42.9635620
   1.9879837  59.3517227  41.8137550  15.4001923  43.7018890  77.8291245
  14.6570616  43.5454102  77.2464523  15.2953176  44.6101723  78.1124191
   8.8409319  42.1823387  45.1435089   9.7474718  42.4521027  44.9963837
   8.7437696  42.1783485  46.0957565  26.7617569  32.6123123   0.6753594
  27.6220093  33.0016136   0.8323444  26.5037270  32.9408760  -0.1858594
  70.4403305   6.5499673  33.1696320  70.9404144   7.3243093  33.4275894
  69.7117538   6.5178885  33.7896156  35.7792435  49.8654327  80.6590729
  36.3429756  49.4003105  80.0409317  35.5893440  49.2214661  81.3413315
   7.1953311   9.1801167  17.9350967   7.2780542   8.7323427  18.7770519
   8.0150928   8.9876795  17.4799156  36.0511818  62.6473160  73.3828278
  35.1337929  62.5661201  73.1219940  36.0338440  62.5966034  74.3385315
  71.8836975  67.5002823  85.1856461  70.9725647  67.3598785  85.4432297
  72.3945541  67.0411301  85.8523102  28.5024662  36.8882637  55.9096107
  27.6627903  36.7309875  56.3414001  28.3727226  37.7021561  55.4228096
   2.5804875  35.1014595  65.1141815   2.1149831  35.8218422  65.5391388
   2.1699657  35.0260849  64.2527695  14.6408348  63.1373024   2.6993012
  15.2074986  63.3290710   3.4465289  14.2337465  63.9768829   2.4857311
  29.2017899   8.8133345  74.6100769  29.1900139   8.6668978  73.6642227
  28.2828045   8.9443083  74.8436279  65.2986755  49.4417534  42.1893120
  66.0481491  50.0360222  42.2262611  64.5587082  49.9706459  42.4875488
  39.3556747  45.1765862  66.5981522  38.4591904  44.9689102  66.8616180
  39.5529175  45.9986382  67.0470963   3.5173910  22.3656750  63.4635429
   3.6082664  23.3067169  63.3138275   3.9124944  22.2206707  64.3232498
  14.6298256  22.7069397  74.2794952  15.5587435  22.9211502  74.3658524
  14.1762180  23.5294323  74.4638214  38.3856239  64.4321289  21.2430935
  37.9459915  63.7463646  20.7404213  37.6724510  64.9414215  21.6281166
  49.7725029  42.2976875  26.0637608  48.9569664  42.0096550  26.4738388
  50.4177170  41.6414185  26.3269005  66.7436371  26.6569061  41.5745888
  67.5416183  26.5446835  42.0911751  66.7665634  25.9408245  40.9398193
   5.8231053  17.9703083  16.6030045   6.7546048  17.8343754  16.4296169
   5.6197610  17.3596821  17.3115368  41.8078499  39.5862656  48.4549980
  42.0180244  39.5650749  49.3885994  42.2788734  38.8389206  48.0864296
  55.2327309  55.6301193  34.4490395  54.5484886  55.1321182  34.8962975
  55.9612160  55.6470070  35.0697250   2.4458337  21.1814995  55.0292854
   3.1953189  21.2107353  55.6239700   2.0091090  22.0242691  55.1527443
  66.4349670  31.1553459  75.3516464  66.2593079  32.0224648  75.7169952
  65.9040451  30.5603275  75.8810959  67.8745499  25.9919434   8.9417315
  68.6055222  26.4284630   9.3791790  67.6005859  25.3104305   9.5555038
  77.2883148  27.0660515  48.8300323  77.5376282  27.6932755  48.1513100
  76.9476852  27.6069298  49.5425301  15.7657051  67.8166199  78.7048874
  16.4197884  68.1386108  78.0846252  15.5612392  68.5746689  79.2524185
  23.2780228  65.9073944   0.6669550  22.4435749  65.5770111   0.3341292
  23.9373569  65.5068970   0.1002882  80.6680145  19.5266876   5.8273230
  80.7122192  18.6191750   5.5261574  81.2328110  20.0075836   5.2223697
  67.7115631   8.5218573  41.1404800  68.5125275   8.3944159  40.6321068
  67.0389099   8.0492811  40.6501236   2.3652780  59.0324898  29.1573029
   1.4946119  59.1111832  28.7674561   2.6465609  58.1442528  28.9378815
  73.3300781  48.6819839  64.3711090  73.9930649  48.1304512  64.7864227
  73.1813354  48.2758560  63.5171967  28.3274899  23.1126575  69.0864029
  27.4272366  23.1283817  68.7615509  28.2396812  22.9675884  70.0284653
  47.6268692  69.2755432  54.6217537  47.6930885  68.9998398  55.5359955
  46.9931908  69.9928589  54.6332016  49.7189445  28.1282444  58.2795486
  50.5370636  28.5296097  58.5724945  49.9946823  27.3606129  57.7786064
  66.9746246  19.1538563   3.9021285  66.6707458  19.8703671   3.3448999
  67.9261475  19.2553673   3.9251852  71.9667130  14.8826256   3.4339046
  71.8133698  15.8156404   3.5829058  72.7562943  14.8529587   2.8936152
  52.9150581  56.5875549  38.7134705  52.0202980  56.2999001  38.8948097
  53.3752289  55.7894287  38.4537163  74.0282974  25.1612434  10.9521475
  74.6521835  24.9189911  10.2678156  74.3873596  25.9638920  11.3303785
  26.9145851  56.2371597  37.7022858  26.5480785  55.4945335  38.1823006
  26.2789936  56.4107475  37.0079346  54.5565567   2.5519223  50.4188728
  54.7159119   2.9817040  49.5785599  54.5945969   1.6163006  50.2203865
  58.0485992  58.3245010  22.8556843  57.5189819  57.8243790  22.2347031
  57.4599266  59.0075645  23.1768131  48.1307678  57.2320633  71.1175919
  48.2653618  57.7977066  71.8779602  48.8067245  57.5017319  70.4958267
  53.8841629  60.2469559   6.7925186  53.0771370  60.0922508   6.3015919
  53.5926933  60.6424179   7.6140347  41.0141106  59.0724678  51.0467873
  40.5196953  59.3051338  50.2608795  40.3667908  58.6720352  51.6271858
   1.7014724  29.9499035  37.8601875   2.1294110  29.6542511  38.6637344
   0.8715643  29.4733162  37.8414993  59.3226433  63.3518753  70.4740906
  59.6048584  63.3269539  71.3884048  58.4063759  63.0760498  70.4986496
  76.1428070  32.7763023  11.8407631  76.6752701  33.5529213  12.0127335
  75.3819504  32.8760567  12.4129381  59.7708054  58.7098694  51.5291901
  59.5498161  58.2148819  52.3181038  60.4193039  58.1676865  51.0800629
   9.7929516  61.5824852  47.0423622   8.8566837  61.7757607  46.9946327
   9.8896379  61.0615349  47.8395424  19.9250984  36.2252274  73.1881866
  19.9413891  36.5612411  74.0843277  20.1914139  36.9695206  72.6484375
  72.1408691  11.7244968   9.5081062  71.2891617  11.7963228   9.0772190
  72.0639191  10.9482641  10.0628805   6.7469149  19.1985569  20.9456978
   7.6592078  19.4704514  21.0458336   6.3622026  19.3268681  21.8127403
  67.3550873  54.8022156  35.5719337  67.5445709  55.3083611  36.3619614
  67.8903122  54.0134010  35.6587296  24.4521484  44.3534927  47.8505936
  23.8176689  43.7566566  48.2473984  25.1836987  44.3701973  48.4676704
  79.4332428  62.4640770  71.0505829  80.0709763  63.0209160  71.4971848
  78.7544098  63.0692787  70.7520065  57.2843246  11.5540009  61.6777725
  56.3935127  11.9000549  61.6236534  57.1799088  10.6823778  62.0593491
  56.7009850  29.2706070  68.8963928  57.6018295  29.5883656  68.9575882
  56.7733154  28.3226452  69.0075989  69.7191544  34.1117859  17.7657871
  69.1963425  33.7844124  17.0338516  69.2849197  33.7640228  18.5447197
  54.7498970  60.1498642  36.9744110  55.2560539  59.5960999  37.5688705
  55.1070747  61.0285454  37.1031570  19.0488453  23.8606358  87.6534042
  18.1265144  24.0371952  87.4680252  19.0747795  23.6852379  88.5940399
  14.5525007  34.7112236  52.3666000  15.2894554  35.3125954  52.2594604
  14.8537474  33.8911514  51.9754906  69.4301529  69.4487762  28.6005344
  68.5848846  69.0151978  28.4832325  69.7262344  69.6410370  27.7108116
  32.4001236  52.5021362  45.5622444  32.8097191  52.3907509  46.4201813
  33.0790443  52.9086151  45.0236588  61.2898140  45.1701393  73.5871353
  61.2314682  44.8766556  74.4963608  60.4037704  45.0592918  73.2423477
  36.6024818  24.0467072  66.3419800  37.1922760  24.5705967  65.7998428
  35.7260704  24.2754383  66.0324402  76.0822220  68.2793808  31.8761330
  76.2839661  68.7921448  31.0934429  75.8959122  68.9335709  32.5496025
  11.4421635  39.1042061   1.8456454  10.9205589  39.3349724   1.0769399
  11.1370602  39.7000923   2.5297995  35.3964729  64.6198807  22.6660004
  34.9323807  63.9188309  22.2084179  35.6079178  64.2480164  23.5222950
  19.1556911  31.1134109  72.1520615  19.8185272  30.7974548  72.7661057
  19.3510876  30.6577015  71.3332977  40.4206848  58.2184105  85.6877136
  40.1010590  58.4663544  84.8201981  41.3595390  58.4026451  85.6587372
  11.5732431  52.7451477  86.3545074  11.2127695  53.6306076  86.3070526
  12.5176706  52.8653946  86.2553635  15.4974899  42.0962181  58.4772530
  15.6406803  42.7250977  59.1845284  16.3258457  42.0822601  57.9978142
  69.2153931  65.7549667  82.1505127  69.4319229  65.5307007  83.0555267
  68.3810272  66.2200241  82.2120590  64.6971283  61.9179764  84.1456528
  63.9821205  61.4825630  83.6815338  65.4127197  61.9463921  83.5105515
  12.1162052  40.3218842  78.0571365  12.6544209  40.5979385  77.3152847
  11.2942953  40.8001671  77.9478531  80.8007584  36.7359161  13.2868595
  80.3940735  36.5398827  12.4428129  81.7371674  36.6050720  13.1376886
  52.9585838  64.2867279  34.1205750  53.3509369  63.6702843  34.7388649
  52.0456619  64.0075760  34.0507660  75.5885162  48.0242615  21.2598343
  75.8781204  47.4923935  22.0011005  75.7825546  47.4887772  20.4905262
  53.6682243  35.3384552  43.8700562  54.3848991  34.8557892  44.2819290
  53.7859001  35.1878166  42.9321365  54.9443321  17.3743591   1.5649126
  55.8551102  17.1614914   1.7683797  54.7916794  16.9782162   0.7070075
  81.0071335  39.8099861  49.1880913  81.7812424  40.0062561  48.6603928
  80.7824478  38.9085197  48.9576530   8.6568155  53.0125656   3.3702965
   8.5560646  52.9867744   2.4187632   7.9646239  52.4395409   3.7000589
  14.6223516  38.1662292  46.3372536  14.0078630  37.6434212  46.8523369
  14.4406691  39.0704918  46.5932388  85.0012665   8.9655313  74.7006302
  85.5056076   8.1660404  74.8512344  85.1786499   9.1922178  73.7877274
  43.4434433  40.8176422  13.7229795  43.5035553  41.4684868  14.4222822
  42.6456375  40.3269653  13.9203920  30.5052776   2.8457701  86.5909042
  31.0210934   2.3131955  85.9854889  29.6449795   2.9137750  86.1767883
  27.4472370  52.0768890  76.6311035  28.2072563  52.6414108  76.4899673
  26.8651867  52.2706947  75.8963318  60.3287773  60.7985344  24.2746410
  61.0484924  61.3065224  23.9002151  59.6008034  61.4177780  24.3277760
  45.5660324   6.4703784  61.5690536  46.3483353   7.0123816  61.6713791
  45.0802574   6.8833232  60.8550987  34.3582191  21.1748543   3.6239433
  33.4542923  20.8784199   3.5177581  34.4959526  21.1889820   4.5710764
  63.8350258  49.6127472  76.7883072  63.1781273  49.6504211  77.4835052
  64.5907440  49.1893463  77.1955566  30.9571209  64.8120117  23.1657124
  31.0397816  65.7504425  23.3352547  31.1307735  64.7216949  22.2287388
  60.0492401  65.0042572  56.2879753  60.4915848  64.9451675  55.4411774
  59.7819595  64.1057968  56.4817924  69.3533020  15.6863070  21.8945808
  68.7660904  14.9554720  21.7014618  70.2113342  15.2791061  22.0137291
   6.8489141  51.8387794  19.9067822   6.3245416  52.4814720  20.3844948
   7.0158739  51.1444855  20.5442085   2.4644871  15.6331177  27.3695660
   2.7411330  15.9074707  26.4952507   2.2354004  16.4486828  27.8152161
  19.7378483   9.9136391  15.7301254  19.8306007   8.9670563  15.8378773
  18.8119583  10.0416241  15.5237799  84.6429596  21.7042046  27.1594658
  85.3970871  21.1166248  27.2072086  84.9542313  22.4524918  26.6501427
  60.5435104  12.0571251  43.2565002  59.9917412  12.5224085  42.6277771
  60.2222061  11.1556950  43.2360229  52.0918770  21.5319939  74.4978790
  51.9781570  21.1663113  75.3751373  52.4749336  22.3965111  74.6465683
  28.4406891  39.3792458  72.0340118  28.5001221  39.5629196  72.9715424
  29.3066196  39.0450897  71.8000488  61.9490662  11.4608097  60.0913582
  61.2337265  11.4821777  59.4556961  62.1942863  10.5371113  60.1450119
  61.3488159  71.0494766  61.7585106  60.9886208  70.2011795  61.4999008
  62.2896957  70.8946991  61.8422775  31.3527145  43.0030975  57.1149521
  30.9849072  43.8867989  57.1188316  32.1618690  43.0782280  57.6207733
  15.9901619  21.7818909  12.8852377  16.7206688  22.3565826  13.1139727
  16.2043324  21.4591103  12.0099230  49.9601669  29.4771557  14.0378189
  50.7854881  29.9089432  13.8172913  49.8400307  29.6524925  14.9711227
  57.9635773  54.8015213  48.5388145  57.4903450  54.1124382  48.0725021
  58.8759766  54.6877060  48.2727089  29.3932800  63.1451988  81.4995270
  29.4683189  63.9920273  81.9393921  29.1090050  63.3610039  80.6113510
  70.4199905  59.6324806  75.1641769  70.9728165  60.0710793  75.8108978
  70.3019791  58.7479439  75.5104446  58.2856522  62.9509087  59.4432259
  57.9936867  63.8504677  59.2956161  58.9243088  62.7893791  58.7487793
  39.2042427  51.7945061  13.4966860  38.4567108  51.6062622  14.0641298
  39.2574081  52.7500801  13.4797087  44.3837662  35.5529938  43.6495209
  44.1568031  34.6893349  43.9942169  44.5030098  35.4122391  42.7102623
  31.1896763  49.6725159  25.5860062  31.5971775  49.1070366  24.9299507
  31.8870392  49.8473015  26.2179604  47.7775955  32.1934891  25.1756496
  47.5186157  32.6759300  24.3905315  47.9006424  31.2934322  24.8740005
  48.5767632  46.4711342  25.1207886  48.0731735  47.2844925  25.1536484
  48.1694641  45.9654999  24.4174557  68.4146194  60.2210083  70.9118271
  68.6457748  60.9454536  71.4931870  69.2158203  59.7013550  70.8464661
  83.4386063   9.6570148  49.8983269  83.3204956   9.8251429  50.8332138
  82.6141281   9.9345465  49.4990273  68.8507843  15.5294418  77.4759064
  69.5157471  16.1448803  77.1672211  69.2610931  14.6691866  77.3873596
  77.1777267  55.0862083  24.8314877  76.5593338  54.6650352  25.4285107
  77.3228531  54.4390793  24.1412754  22.3308582  55.1803703  49.7286606
  21.7095680  55.4151573  50.4179382  22.9625149  55.8995171  49.7204361
  81.8918839  37.0615082  84.3665009  82.3619385  37.8201180  84.7126083
  81.5034485  36.6481972  85.1375504  63.9611893  15.3784246  50.0227394
  64.6123199  16.0799408  50.0345917  64.1121902  14.8977165  50.8365898
  17.2757778  24.5937748  71.9435577  18.0551853  24.1762161  71.5769501
  17.3658943  25.5173073  71.7086182  75.9328232  59.1549492  37.4546242
  75.5447083  58.3763771  37.0553360  76.8581390  58.9339333  37.5603371
  74.7750397   9.0302753  44.3636551  74.3440170   9.1067410  43.5124207
  74.0710831   9.1532450  45.0004845  18.8955097  65.9389725  28.4219913
  18.1793156  66.5390701  28.2141991  18.5326157  65.3541946  29.0872555
  14.5285330  61.4965744  78.3287735  15.4055014  61.2054291  78.0789871
  14.5368280  62.4412460  78.1746292  62.3344383  25.4820614  69.1497421
  62.9889832  26.1777439  69.0878601  62.8064537  24.7424412  69.5323563
  10.2079887  31.9514313  72.1995163  10.6843033  31.1529503  72.4270782
  10.1859913  31.9527073  71.2425690  30.5919781  68.1366348  59.2200203
  31.0349331  67.6131058  58.5522346  29.7083073  68.2661362  58.8756561
  78.9277420  66.8559952   4.9756713  79.3557358  67.1011810   5.7959995
  78.8726120  65.9010162   5.0103927  85.5062408  19.1893635   2.3797262
  85.8934174  18.4485741   2.8461595  85.1238480  18.8029327   1.5918936
  34.8597908  71.3935623  15.8615694  34.3607254  71.7390747  16.6016979
  35.6475105  71.0204163  16.2571602  65.1732254  36.8470726  87.1289597
  64.6360016  36.2164574  86.6494370  64.8392029  36.8135376  88.0253677
  71.3770447  48.0827942  53.7488365  71.6217651  47.1864204  53.5189285
  72.0125732  48.3408241  54.4164848  66.0853958  66.1516342  64.4427261
  66.4185867  65.2557373  64.4934692  65.8000565  66.3519058  65.3341904
  79.0788269  58.2609253  58.3963318  78.9776154  59.0761757  58.8876114
  78.7588654  57.5819969  58.9903984  63.6888313   8.8087959   2.8497241
  63.5872955   8.9845810   1.9142983  63.9049339   7.8774748   2.8963399
  74.9788589  70.1435242  26.5556660  74.5812225  70.3499756  27.4015331
  75.6454468  69.4871140  26.7581997  41.1347656   1.1954859  29.1929874
  41.2240334   1.5863811  28.3238125  41.8361778   1.5941421  29.7080822
  68.5037155  59.9672928  79.3417587  69.1674347  59.2932281  79.1956482
  68.6432724  60.5979424  78.6353302  29.4604759  50.6786880  46.5053978
  28.5327740  50.4430389  46.5139275  29.8505287  50.0925407  45.8569221
  72.6852722  41.1481590  86.5849075  72.5931931  40.2961807  86.1584244
  72.3408890  41.7736053  85.9473801  50.1839905  49.7099304  28.3430576
  49.3860245  49.2068672  28.1805515  50.6081543  49.7693710  27.4870300
  58.1558304  62.1861305  74.5528946  57.2668724  62.3222771  74.2251053
  58.3653374  62.9948959  75.0200500  34.8211174  40.2225990  20.3949413
  35.2028351  39.3448563  20.4044209  35.5633011  40.8081779  20.5449238
  53.0291939  47.4298172   0.9630794  52.4180984  48.0614014   0.5837452
  53.8925972  47.8193283   0.8250620  60.5044594  27.2976131  68.0993729
  60.3798523  28.0802441  68.6362076  61.2479897  26.8477840  68.5006790
  46.3644180  59.7339211  50.1233292  45.5611572  59.8993950  50.6169090
  46.6104889  58.8394623  50.3591728  21.1108894  27.4156818  12.3374844
  20.5830956  27.5032139  11.5437574  20.7577286  26.6414700  12.7757816
  32.5064583  46.8850060  20.6931114  32.0977516  46.0478821  20.9131393
  33.4140091  46.6615105  20.4866276  38.7365150  53.3131905  51.8371124
  39.3460083  54.0510216  51.8183060  38.0681419  53.5707703  52.4720650
  44.4461632  40.6652298  51.1720619  44.4822769  40.2143059  50.3284988
  43.6558151  41.2029381  51.1225700  -0.2634975  45.5499496  14.5606565
   0.4366437  45.3087158  13.9541578  -0.0610543  45.0695496  15.3634424
  53.6486244  51.5351372  75.6866913  53.5826340  51.3511353  76.6237183
  53.8230476  52.4750977  75.6388855   1.6948023   6.7409253  72.7084579
   1.2317408   6.7864056  71.8719482   2.5687139   6.4231339  72.4814758
  81.6746979  65.5775070   2.5134711  82.5544891  65.6063461   2.1374834
  81.6079865  66.3813858   3.0287895  63.2729759  30.6930847  16.0765896
  63.4648972  31.4983101  16.5572224  64.1320877  30.3520107  15.8279486
  38.6254349  56.9113655  71.4065857  37.9585838  57.2289886  72.0154037
  38.2658272  56.0936279  71.0627518  22.0278397  58.2225151  52.6425209
  21.5963516  58.2238350  53.4969521  21.9024067  59.1110992  52.3094826
  58.7726860   4.6306329  50.1980438  58.8397598   4.0103335  49.4721222
  58.0517807   4.2971630  50.7322044  74.8574142  25.1916218  21.3846455
  74.4982147  25.0332088  22.2576370  74.6733093  24.3868294  20.9002419
  23.0854702  34.3991318  81.4755859  22.9035606  34.9160690  82.2603912
  23.8235359  34.8454781  81.0605392  59.9315987  27.2773418  81.4466019
  59.5967484  28.1594372  81.2853088  59.3373528  26.9116783  82.1018906
  72.7009430  61.5695152  76.1232910  72.6792603  62.4323006  76.5372467
  73.1466827  61.0098953  76.7591934  22.2481136  60.1818657  43.5951881
  22.5779934  59.5648537  44.2484131  22.2609234  59.6906357  42.7737503
  70.5228577  65.9301758  39.4411964  70.8465347  66.3429413  40.2418785
  70.5854111  66.6157608  38.7761497  13.5622463   3.5981321  78.1334229
  12.8266306   3.9960275  78.5990219  14.3342409   4.0490427  78.4753799
  47.4766350  67.6619263  27.6874123  47.7392921  66.7673264  27.4707565
  48.0054169  68.2131577  27.1105556   9.4429579  54.4824829  37.2569504
   9.7894115  55.3737297  37.2135849  10.1224365  53.9415359  36.8545647
  17.3497448  52.5791588  47.7104645  17.4441013  51.9310608  48.4085312
  16.4052544  52.6424446  47.5684624  33.0854416  63.2411652  59.2899246
  32.3251381  63.2167320  59.8709335  32.8942604  62.5871544  58.6176529
  70.2713470  57.1225967  73.9580460  69.4035034  57.5170975  73.8717194
  70.8632355  57.8670959  74.0658188  57.8628960  48.4305267  22.8751335
  57.5761375  49.3308029  23.0284386  57.0615120  47.9104652  22.9347248
  56.1486244  35.4453392  57.4246597  56.7204132  35.7570229  56.7231293
  56.6449318  34.7421951  57.8435783  27.8459377  67.0411148  27.4543285
  27.1300392  67.4194717  27.9647903  28.1353607  67.7529068  26.8835258
  80.7490005  14.9152479  80.2920456  81.6517334  14.6598673  80.4820175
  80.4583969  14.2910767  79.6270752  32.4958496  42.2904053  12.2684126
  32.4460754  41.5970268  11.6104021  31.6915817  42.7948227  12.1461353
  75.9818954  31.2600880  38.4605103  75.6741638  30.8521080  37.6511383
  75.9294815  32.2004623  38.2896805  64.4300079  34.5557442  82.4766235
  64.1626968  35.2344894  81.8568878  64.8424377  35.0359764  83.1946182
   5.4592366  18.7829056  71.2017517   5.4315858  17.8931847  71.5536957
   6.3780913  19.0409546  71.2748795  40.1959000  14.7383957  86.8617706
  39.3340683  14.9339638  86.4940262  40.0532951  13.9657440  87.4084930
  85.2242355  68.4582596  18.9460812  84.9044266  69.0466766  19.6299896
  84.4308167  68.1171265  18.5333557   0.7053846  46.4294128  57.0716286
   1.6134515  46.5157204  56.7814636   0.2266475  47.0789795  56.5567474
  80.5214386   2.4553554  86.8686371  80.0378952   3.0965512  87.3894882
  80.1717529   2.5534887  85.9830170  30.1397591  16.3567829  87.5470886
  29.7771721  16.2164803  88.4217758  29.6795959  15.7262526  86.9930954
  76.3846436  19.1634121  74.6996231  75.6613770  19.2096310  74.0743408
  77.1010437  19.6329002  74.2723236   5.2959318  55.0016708  71.8174896
   4.8688149  55.8030434  72.1201630   6.0480351  55.3078499  71.3107071
  74.9697647  46.6024551  58.9025421  75.6856689  47.1717453  59.1847076
  74.9778824  46.6629944  57.9472923  14.5199337  63.9957390  86.9854736
  15.0357437  63.7415047  86.2202682  13.6628761  63.5948944  86.8405380
  57.7207451  31.2202930  63.7133713  57.6587105  30.4991150  63.0870438
  57.4071236  31.9847755  63.2302170  44.4692879  16.5411663  64.5944672
  44.7797127  16.4591713  63.6927223  43.5576401  16.2512836  64.5612335
  11.8783760  53.6154747  24.3474216  12.5909853  53.2631264  23.8142490
  11.1204929  53.0765915  24.1205883  67.2996674  35.7956161  30.7632027
  67.7909775  35.2600212  31.3860855  66.8130341  35.1628914  30.2349186
  79.7674561  71.0563354   6.6381297  79.8495407  71.7613907   5.9959512
  78.8515930  71.0894470   6.9144182  16.5526333  71.3283234  25.2684097
  16.3178272  70.5063400  24.8377743  15.9367352  71.9692383  24.9132614
  25.7198830  68.3720627  56.6038818  26.3146877  68.4835358  55.8622513
  25.2179165  67.5850296  56.3921280  73.1451874  39.5456238  12.5998201
  72.8158340  39.2925224  11.7374382  74.0492859  39.8168068  12.4407930
   0.4784121   2.0183387  42.0336800   0.5030884   2.3442190  42.9333611
   0.8663600   2.7219055  41.5133705  10.3717175  48.8114700  56.4557114
   9.6662464  48.2590103  56.1190681  10.2606258  49.6459312  56.0001183
  85.8799667  62.6575699  71.2170639  85.8947983  62.1196251  70.4254608
  86.0424957  62.0395470  71.9297104  47.6258621  68.5529099   5.1179028
  48.1069717  68.0658188   4.4489441  46.8759155  68.9226990   4.6520009
   5.0222683  61.0430336  12.6845579   4.1304941  61.0345383  13.0322628
   5.3481169  61.9210548  12.8823700  45.6278229  53.6140594  84.5966187
  45.3186035  54.5035019  84.4248276  46.2689285  53.7150764  85.3001862
  68.7485580  71.2901917  71.0396042  67.8099289  71.3395767  70.8585663
  68.8658295  71.8046036  71.8382721  66.8490677  38.7815514  18.1317444
  67.7295074  39.1517487  18.1950741  66.6269836  38.8493004  17.2031326
  44.8660011  11.5181942  13.4883156  45.2247887  10.6490173  13.6672993
  43.9569778  11.3549356  13.2368116  58.2990074  18.8699474  88.2731552
  58.5958481  19.1871319  87.4202118  57.7527122  18.1107864  88.0695114
   5.7235198  44.6423569  55.3226013   5.4741955  43.7302284  55.4712296
   6.6498961  44.6792831  55.5607071  76.1536636   6.9052329  17.7061920
  75.7518311   7.2421722  18.5069656  76.2149963   7.6671743  17.1300716
  47.9511337  15.3539429  13.3091173  48.5939903  14.7188311  13.6247120
  48.0121956  16.0832767  13.9260235  32.5657883  54.1092529  53.4721756
  32.2070503  54.6597786  54.1682129  33.1928101  54.6734695  53.0196991
  20.6695862  48.3776016  88.1834412  20.7787724  47.5592499  87.6990738
  19.7987537  48.6882210  87.9356613  44.2607346  33.0990295  40.0889473
  44.4108963  34.0351524  40.2206955  44.9546967  32.8273506  39.4882507
  76.2561493  71.3242493   4.0859685  76.0762024  71.4838333   3.1594794
  76.3141022  70.3715286   4.1580582  14.3135004  32.9249573  18.7784348
  14.2069101  32.7859573  19.7194710  13.4395332  33.1661377  18.4714394
   8.9537535  25.0775642  65.6331558   8.0408916  24.9778786  65.3630142
   8.9160633  25.6538086  66.3965378  56.7134247  24.7399750  37.1280746
  56.6060829  24.9631767  38.0526772  56.1020470  24.0177975  36.9834747
   6.1691713  46.0206871  76.1266556   6.5040355  46.4839973  76.8944016
   5.3675876  46.4896088  75.8946838  74.7349777  18.6763515  40.8148270
  75.0061646  19.2030983  41.5666428  75.5145111  18.6298180  40.2612953
  35.7833862  12.7838755  69.2333908  36.6774864  13.1083288  69.1259460
  35.3155174  13.5056629  69.6533356  15.6605558  46.8682632  32.5100517
  14.7799463  46.5353622  32.3370399  16.0377941  47.0102539  31.6418571
  65.7071304  20.4654121  19.9953346  65.3903122  19.7382946  20.5312061
  66.5236206  20.7349434  20.4159603  23.1274204  27.2394180  62.0061188
  22.1753883  27.1976547  62.0962296  23.3079529  26.8096523  61.1700897
  15.7139225  27.9724617  13.9455700  16.3354340  27.5149078  14.5117874
  16.2554741  28.3543434  13.2548313  68.3782654  69.8471832  20.4248085
  68.4933167  69.0515594  20.9443989  68.5111847  70.5615082  21.0479527
  43.1754456  52.4233513  65.4869537  43.6539764  53.0727501  66.0022354
  43.5728531  51.5864754  65.7276611  85.2178650  62.5022316  63.7185974
  85.3192291  61.5516129  63.6708565  85.0995483  62.6839638  64.6509094
  62.7889366  29.6366730  88.2265091  62.9119759  29.6097870  87.2776260
  62.0320396  29.0728321  88.3859482  56.4704742  26.9470959  45.9095383
  57.2817841  26.9038258  45.4034386  56.4316177  26.1098328  46.3718262
  83.3240891  51.3566628  54.6543617  82.6532593  50.8472557  54.1996918
  83.3405380  52.1958122  54.1941605  76.1895676  70.8281403  51.9016266
  76.7169495  70.2303085  51.3718147  75.9221802  70.3056488  52.6577568
  15.5693998  68.8764801  24.0950603  16.0557480  68.6959839  23.2906246
  15.0935516  68.0655212  24.2743301  21.2022972   7.7610693  13.4042244
  20.3827057   7.7007022  13.8949976  21.3877678   6.8610964  13.1361179
  13.2948513  42.7075882   8.1947527  12.9126101  41.9003944   8.5390806
  12.8828707  42.8213463   7.3382707  26.0254536  71.2899475  36.1703529
  26.4475536  71.3533936  35.3135948  26.1068382  72.1678391  36.5430565
  86.6181107  54.1326180  76.2360764  87.1252975  54.2569618  75.4338684
  85.7053375  54.1907654  75.9537888  49.6754570  47.3963432  56.9215889
  49.5051994  48.2392387  56.5011482  48.8885765  46.8793488  56.7490501
  36.4305458  62.9895134  76.2176514  37.2077103  63.5479431  76.1975021
  35.7954216  63.4816437  76.7378998  83.2520828  70.3780289  73.0839691
  83.2507324  71.2899551  72.7930756  82.3904190  70.2520981  73.4813309
  86.2040329  10.3260059  22.0711975  86.4104996  10.6510458  21.1948681
  85.3235474  10.6571302  22.2481880  83.6267166  63.4968719  77.0579147
  83.3624191  64.3562241  77.3863907  83.3077087  62.8801384  77.7167740
  75.8176880  65.9894257  74.4194565  76.3037720  65.2005615  74.1793594
  76.4809265  66.5800247  74.7765808  57.6234550   5.0696325  76.9853210
  57.1109505   5.1772170  77.7865677  57.4577065   5.8691669  76.4858170
  43.0024490  46.0012817  71.6181946  43.7188225  46.5826721  71.8731918
  42.5313759  45.8297462  72.4336014  55.1688042   4.6685619   7.8820329
  55.9491501   4.6354380   8.4353800  55.2137032   5.5243645   7.4556313
  21.3457890  38.7300377  17.4413967  21.4219799  37.7798157  17.5280037
  22.0089264  39.0787735  18.0371017  65.8644257  45.3573990  57.4859200
  66.7598877  45.0899925  57.2788849  65.3199615  44.8704338  56.8673325
   3.0174327  64.5309219  51.1228294   3.2981172  63.6178703  51.0612755
   2.6706600  64.6155319  52.0109863  71.5475235   2.8359196  73.6491699
  71.5958786   2.7371089  72.6983185  70.8822632   3.5103405  73.7863693
  62.3855858  21.5344887  86.7273865  61.5227661  21.1207829  86.7523346
  62.8869820  21.0055294  86.1068726  33.0036583  39.6740799  31.9038124
  33.7850304  40.0776634  31.5259075  32.8699913  38.8801003  31.3861618
  16.2837753  47.8790321  76.8424301  15.3499956  48.0339050  76.6999435
  16.4285221  46.9853821  76.5315247  73.9207001  63.4791641  24.0896854
  73.5309830  62.6099777  23.9955025  74.8645554  63.3199158  24.0879536
  74.0713577  24.8751297   2.4141619  74.3351593  24.8806629   1.4940490
  74.8578568  24.6033096   2.8871920  68.3839722  41.4608498  70.4978561
  68.2859726  41.2343826  69.5730057  68.6669617  42.3752441  70.4918518
  22.6236839  42.9989166  58.3166771  23.0708370  43.6588936  57.7868462
  22.5237427  42.2487488  57.7305946  55.5628166  27.9190140  82.6445618
  55.2276917  28.2662144  81.8178940  54.7834473  27.6168346  83.1109314
  31.8002529  16.9190521  65.8550491  32.1496696  17.0057774  64.9681320
  30.9780598  17.4088707  65.8375168  11.0910320  58.5883675  61.8249092
  10.8387308  57.8211060  61.3112106  11.8342667  58.2913017  62.3498726
  64.3543930  25.3790112  38.9697495  64.3087006  24.6805553  38.3168335
  63.5764694  25.2507515  39.5125351  36.8054543  43.4764862  66.9659805
  37.0966949  42.5659676  67.0146332  36.8679848  43.6986351  66.0370178
  46.7970085  27.9150620  20.7168350  46.9015160  28.8612366  20.8171444
  47.0016098  27.5585155  21.5812683  85.1457520  67.9188156  13.3343887
  85.3882217  68.2228241  14.2090445  85.6805878  68.4459229  12.7408028
  38.5024796  63.2431450  26.4341850  38.4015846  62.3579597  26.0841846
  39.0309029  63.7005310  25.7801228  74.7374344  56.2639160  50.5733910
  74.6266174  55.7634087  51.3817520  75.0846939  57.1084976  50.8603210
  64.5473480  52.6531830  80.8144150  65.3080826  53.2243538  80.7082291
  64.6641541  51.9729309  80.1512070  60.7864037  20.1815681  64.2522430
  60.4904556  20.9403782  63.7494011  60.1672745  20.1200027  64.9796524
  38.6348991  39.4908752  57.7486267  37.7281952  39.6732101  57.5018997
  38.9299850  38.8396645  57.1121674  14.8412514  44.4293098  81.9719772
  15.0667648  44.8798409  82.7858582  15.6849251  44.1822624  81.5932770
  74.2149887  70.7657852  29.0041332  73.4570312  70.1827850  29.0470104
  73.8409195  71.6466827  29.0221748   8.0479498   6.8823504  72.3306427
   7.4389572   6.9953485  73.0604324   8.8728056   6.6278157  72.7442322
  25.7982540  45.2608261  23.4712276  24.9287109  44.8613281  23.4482327
  26.3984127  44.5392113  23.2833004  75.4297638  26.9222107  45.2832336
  75.6670532  26.0135765  45.4684639  75.2262726  27.2961521  46.1405525
   4.2827768  65.6534805   6.8471746   3.4714067  65.2807693   6.5022168
   4.9314022  64.9581604   6.7374206  34.9436417  50.4310188  66.2194824
  33.9955215  50.3854027  66.3428421  35.0554543  50.9060860  65.3960495
  77.2018127  37.0692177  19.0194435  76.5626297  37.0132637  18.3091278
  77.3079224  38.0080795  19.1727657  60.4313850  29.4285240  45.0199356
  60.8448906  30.0829601  44.4569473  61.0657921  29.2807102  45.7212982
  85.1633606  11.9566250  30.9946079  85.9085464  12.5132551  30.7685738
  84.5374451  12.0939484  30.2835484  65.0438919  48.4575768  24.5860901
  64.8957520  47.5119400  24.5787144  65.4593201  48.6415100  23.7435818
  42.6811600   3.9248309  67.0262604  41.7566910   4.1721282  67.0054779
  42.6739235   2.9866700  67.2160797  43.9683800  47.9083672  32.4117813
  44.0170059  48.4173393  31.6025734  44.5385590  47.1555023  32.2558212
  76.8089523  43.0799866  88.4949646  77.2527771  42.2428932  88.6310806
  76.8852844  43.5310478  89.3357697  69.3918915  43.1215286  45.8229294
  69.2196655  43.8977203  46.3559380  68.8250122  43.2252083  45.0586510
  82.0026093  19.1706867   1.0809124  82.6838684  19.1933479   0.4088958
  82.3233337  18.5403633   1.7259412  17.6211414  53.2406693  29.2906418
  18.5162487  53.2889023  29.6263313  17.5390339  54.0026321  28.7171440
  32.3410263  52.7048187  38.9625587  31.6630573  53.3501549  39.1628952
  33.1616592  53.1398773  39.1939011  61.8208618  55.9451294  73.2832260
  62.7442780  55.6939278  73.2623672  61.3780060  55.2728271  72.7654190
  18.2210636  64.3491745  69.0436935  18.9170628  64.0653305  69.6363602
  17.4705124  64.5103455  69.6154709  49.1995735  42.0131531  66.8953476
  50.0480881  41.6627274  66.6243210  48.5641289  41.5525703  66.3473434
   8.8946276  49.1917076  48.9856148   9.2190647  49.0965691  48.0901146
   9.5590248  48.7661324  49.5275497  15.5856276   5.2726054  79.3966675
  16.1791706   6.0079718  79.5489044  15.0507088   5.2285218  80.1892319
  15.3125038  69.6209183  55.6747742  15.7660789  69.6907120  54.8347549
  14.6504354  68.9441071  55.5339775  50.3973312  68.9606628  53.7693024
  50.8024063  69.5981445  54.3573151  49.4979057  69.2704773  53.6631279
  56.7224045  37.7457047  53.0445442  57.0357437  37.5462074  52.1623611
  57.4287415  38.2567215  53.4397392  61.9050941  12.1335821  13.8023014
  62.6260300  12.4438925  14.3501987  61.2268906  12.8023157  13.8975115
  10.6130800  21.4244404  71.4079208  11.3986864  20.8802013  71.4613953
  10.5833054  21.8850899  72.2464600  77.3773956  30.1689663  66.2278061
  78.2400894  29.8249378  65.9962158  77.4923248  31.1192188  66.2342834
  30.6246796  34.6011467   8.4326448  31.1868248  34.0484276   7.8897567
  30.0807457  35.0782585   7.8059630  48.6539650  45.0003700  21.2885437
  48.1110916  44.6446915  21.9921150  49.4660797  44.4957848  21.3342323
  84.0888367  27.8157120  16.4780598  84.9097824  28.1291199  16.0985069
  84.3103638  26.9663906  16.8599129  70.1312790  70.4962082  14.7895803
  69.7358627  71.1248856  14.1857176  69.6168671  69.6972580  14.6742992
   1.2508632  30.5106392  78.5428543   0.4366078  30.0192490  78.4344254
   1.9412992  29.8737011  78.3588943  56.4782906  56.6845512  17.8465729
  55.9383354  57.4534035  18.0297146  56.0796852  56.2913589  17.0702076
  57.9394569  54.3868752  64.4742050  57.6937523  53.6452866  63.9211159
  57.2735672  55.0506210  64.2945709  67.8986206  63.9821053  73.9277115
  66.9613800  64.1742096  73.9577103  68.2437897  64.3453369  74.7432785
  36.6963692  48.4290009  35.5081329  35.8361626  48.8449821  35.5650291
  36.5795670  47.5784492  35.9314003   4.8600793  34.6129951   5.6245260
   3.9712236  34.9430275   5.7558451   4.9103017  33.8334732   6.1777492
  11.6752644  63.0444908  85.9047318  10.7715158  62.7322884  85.9494705
  11.5993700  63.9599686  85.6357040  53.8484917  33.1663513  57.0440598
  53.2322006  32.4909515  57.3273392  53.3070450  33.8056946  56.5811272
  75.5521469  60.8226509  32.4256859  76.0277100  60.0175323  32.2210960
  74.7047348  60.5231781  32.7549973  75.0402985  41.2897377  77.0381393
  75.3751068  41.5279961  77.9026489  74.2019501  40.8630638  77.2152176
  83.7219238  29.9734268  70.0343781  83.9796677  29.1665211  70.4801407
  82.7710114  30.0107002  70.1373596  57.2004280   3.7662323  24.3959103
  56.4753494   4.3911176  24.3928509  56.8609581   3.0077744  24.8710251
  57.5304909  49.5916023   7.1770635  57.4341583  48.6962624   6.8525300
  56.6588936  49.9757652   7.0823660  73.0262070  41.3674393  80.4845352
  73.1173096  40.8561096  81.2885666  73.9100800  41.6863480  80.3020554
  81.6730499  51.9207687  11.9266510  80.8185654  51.4925194  11.8747616
  81.9485321  52.0169144  11.0150042  51.4180984  56.4225235  76.6997452
  50.9737968  56.0370140  75.9446259  50.8758392  56.1751060  77.4487305
  54.9512863  44.5086403  17.1272469  54.7300911  43.9452095  16.3857269
  55.2079582  45.3399696  16.7281914  85.7831650  41.6140976  42.0190506
  85.6202545  41.7218742  42.9561081  85.4348831  40.7464981  41.8136253
  79.3294983  31.1825008  23.5315800  79.4345322  32.1316109  23.5978127
  79.2726593  31.0128574  22.5912495  84.5708237  66.3817139  22.3340759
  84.7590179  65.4919357  22.0355721  83.7021942  66.5741196  21.9809494
  66.7025604  11.2316933  61.5016861  66.0003662  11.4883509  62.0994148
  66.2541046  11.0155201  60.6841316  35.3036804  62.6297150  60.3127403
  35.4772720  63.2829247  60.9905434  34.5604362  62.9833183  59.8240776
   3.4460926  63.1776772  83.2865448   4.3321447  63.2530441  83.6407547
   3.3725739  63.9048767  82.6684799  80.9251709  34.6309319  49.1617393
  80.1908112  34.4780121  49.7563515  81.6812668  34.2563362  49.6136475
  71.3562241  46.9226303  18.9870644  71.4097672  46.0487099  19.3738785
  72.2681046  47.1909409  18.8743382  78.7039948  52.2298851  29.9549923
  79.1088867  52.9525146  29.4753036  78.6512222  51.5185051  29.3167229
  77.2764359  47.8660316  39.3356209  77.2097168  48.7645378  39.6588440
  76.8316040  47.8826790  38.4882240  23.2748165  13.9804335  76.0062027
  23.9195728  13.6627960  75.3740387  22.4285583  13.7889290  75.6019669
  55.2764053  20.8183403  29.3474045  55.8225784  20.2086468  29.8435860
  55.8997002  21.3487854  28.8510532  35.4278793   5.8285227  62.4091263
  34.7909279   5.5138044  61.7676620  36.2775574   5.5818172  62.0438652
  72.3284683   4.8777528  51.0162735  72.2308502   3.9398522  51.1807289
  71.7153854   5.2924309  51.6232376  59.0720024  22.0584393  78.8147202
  59.8279610  22.3922024  78.3316498  59.4312515  21.3727398  79.3777390
  22.5617657  23.3430824  86.0136185  21.7439556  23.6125507  85.5955200
  22.3675766  23.3570614  86.9508057  39.5268898  63.4496536  39.7036247
  38.8156853  62.9661255  39.2833595  40.3135338  62.9437256  39.5000076
  56.3615456   4.9762282   1.6961797  56.7477684   5.8484802   1.6171911
  56.6434441   4.6665130   2.5569010  17.9211292  26.1494732  27.3429470
  17.8339996  25.2627277  26.9932003  17.0394535  26.3787804  27.6367111
  77.1753082  21.0175343  14.3377686  77.8741760  20.4728127  13.9756889
  77.5480194  21.3833714  15.1399441  32.0293427   1.5312852  65.1415024
  31.7019482   2.3492837  64.7674408  31.3211708   0.9029793  65.0002441
  67.3486481  25.7176533  81.2951965  67.5019379  26.2067966  82.1035767
  67.1263504  24.8340092  81.5884323  27.3127632  44.6946030  48.5120544
  28.2298336  44.5138397  48.7183075  27.2831478  45.6391945  48.3600502
  80.2867432  71.1483612  82.2370682  80.0255356  70.8868256  83.1200104
  79.5802383  70.8312607  81.6744690  30.2502346  20.9073524  78.9077301
  29.9804745  21.5045624  79.6054459  31.1010475  21.2407188  78.6227493
  54.8958435  18.1421585  30.7407894  54.8197250  18.8172359  31.4151115
  55.7505684  17.7412205  30.8986721  56.6014709  42.0602913  84.0363846
  55.8173561  41.6849403  83.6357422  56.4034424  42.9928131  84.1225281
  78.2691956  21.0503559  56.1952896  77.8045731  20.4201126  55.6446991
  78.1996994  21.8792038  55.7215652  11.3280458  35.2477493  70.5166245
  10.4769459  34.8103180  70.5393295  11.4662495  35.5495567  71.4144211
  50.4131012  14.5197258  27.4160252  49.9908638  15.0394764  26.7320614
  49.7209892  14.3610868  28.0579357  32.5743980  13.5090265   6.7924695
  33.3703537  13.5329456   6.2613268  32.2587395  14.4126816   6.7917671
  10.4781427  34.5522575  12.1164494  11.0846729  33.8700790  12.4045181
  10.5480576  34.5473709  11.1618185  86.4625015  41.1750412   5.5567136
  86.3014069  42.0533142   5.2118683  87.2542953  41.2672920   6.0866032
  20.5463505  42.5210915  43.8447189  21.2593288  42.9716072  43.3920288
  20.1212883  43.2049637  44.3622818  71.1475601   2.5818841   2.6439853
  71.9592972   3.0891340   2.6413207  70.4573975   3.2349775   2.7596345
  28.8170300  27.3547211  71.5954437  28.8273220  27.5030994  72.5410156
  27.9261322  27.0583420  71.4091873  74.8741989  20.2697639  58.8142853
  75.6621475  19.7839375  58.5706902  74.4572525  19.7290630  59.4851341
  52.5753174  14.4417171  25.6101341  52.7676353  15.1232529  26.2541504
  51.9923248  13.8366098  26.0686035   8.9688158  49.6960983  68.1375504
   8.0591040  49.8327332  67.8730011   8.9103107  49.1604500  68.9286804
  69.2934952   6.5937080  46.5970573  69.1854019   6.0062366  47.3450050
  70.1982117   6.8995872  46.6615334  44.4134636   6.8567629  34.3488464
  45.1680870   6.7124910  34.9197731  43.6903572   6.4114957  34.7905312
  79.5814056  64.8579941  72.7301178  78.7097778  64.7067566  73.0956497
  80.1678848  64.8198700  73.4856415  48.2491646  51.7613487  79.9407730
  48.6906624  52.6102371  79.9673004  48.3712120  51.4003601  80.8188553
  34.0310783  39.4066696  27.7129173  34.7092400  40.0652122  27.8633995
  33.9363823  39.3735809  26.7609882  27.0418663  12.0995493  25.8192062
  27.0201283  11.2573109  25.3649025  27.6476746  11.9631910  26.5476551
  55.9002495   0.2812214   0.3470860  55.7375717  -0.1460284  -0.4938804
  55.0315437   0.5349889   0.6588233   6.3517451  32.9155693  77.0002213
   5.5809665  33.4127083  76.7263870   6.1189179  32.0020561  76.8343430
  29.7468605  37.1143646  33.6075211  29.7573605  37.4137268  34.5166435
  28.8219051  36.9572868  33.4177513  21.9799728  68.5717773  21.7965851
  22.2086277  68.0723343  22.5804901  21.0480232  68.7647324  21.8989029
  67.8865433   0.1916042  25.2295437  67.9174194   0.5617267  26.1117496
  68.6295471  -0.4109548  25.1964664  55.5536766  61.1438293  53.4658699
  56.2887497  60.7695808  52.9802399  55.5348129  60.6531677  54.2875328
  64.1474609  67.8652496  44.5634842  63.5511360  67.1577225  44.8084908
  63.6174507  68.4474792  44.0191154  71.7881775  41.8264847  27.9115410
  71.6697922  41.7375031  26.9658680  70.9734116  42.2241440  28.2185555
  51.7500725  38.1587791  63.1344566  51.8241425  38.3266830  64.0738983
  50.8100548  38.0624847  62.9817390  50.7412415  47.7788734  24.2621212
  51.2159615  47.2836342  23.5945759  50.0546036  47.1821632  24.5599480
  41.2354507  64.6680756  27.1089058  41.7666397  63.9065475  26.8762093
  40.9834328  65.0502167  26.2682571  51.2243729  64.2471542  64.6823502
  50.6556129  63.7706413  65.2870712  50.9369049  63.9681587  63.8130112
  14.5168285  57.0463600  55.3247223  13.6159229  56.8755264  55.5993462
  14.9509106  56.1953468  55.3845291  51.2880249  10.8514090   3.9728694
  51.8524933  10.1148977   3.7380121  50.7860718  10.5380669   4.7252622
  74.4556122  59.4256668  88.8414917  74.6210785  59.1031990  87.9555664
  73.5220642  59.2686005  88.9830933  78.9445801  69.0823593  55.9172249
  78.9531708  68.1254883  55.9407272  79.8680801  69.3290100  55.8667870
  54.7069740  67.6497574  14.0974913  54.7517586  68.5220413  14.4890785
  53.8337250  67.6066742  13.7078619  64.6133041   7.6830997  41.4718475
  64.1760483   8.5298452  41.5616608  64.5349503   7.2801642  42.3365631
  43.3096161  13.2454557  15.4781904  43.8000107  12.4448118  15.2918663
  42.3936424  13.0019064  15.3443871  64.2493210  39.9702454  12.6685038
  63.5183449  39.3766785  12.4965162  64.5283966  39.7549438  13.5584440
  27.7736359   0.4474269  87.6644974  27.4780273   1.1265241  87.0581360
  28.1905251   0.9291757  88.3788910   9.2669544  70.6922379  71.5822601
   9.5936480  70.8531647  70.6970444   9.9752455  70.2165604  72.0161743
  22.3422222  43.3260422  76.5014954  22.3108273  44.0464821  75.8720474
  21.5809345  42.7870102  76.2867432  81.5453339  26.5657291  26.6492023
  81.1249084  26.9746532  25.8927269  82.4553604  26.4418030  26.3795166
  74.0508423  63.2696762  85.8748322  74.8712692  63.2490578  86.3674774
  74.2062073  63.9066010  85.1773911  85.3349304  38.5252304  87.1044998
  85.8520203  37.7435951  86.9098282  85.9737473  39.1607018  87.4275055
   8.5639887  56.8353348  52.9834862   8.0472250  56.2812538  52.3985252
   7.9383006  57.4762688  53.3210526  17.8428936  30.3648033  67.5857086
  17.2075729  30.6173592  66.9157715  17.8044033  31.0710506  68.2306671
  15.1562548  62.6745148  15.0011921  15.8966427  62.6044083  14.3985786
  15.5582190  62.7959518  15.8613720  71.4139633  56.3986893  17.0671005
  72.1357498  56.8692322  16.6501465  71.5681381  55.4799767  16.8470364
  74.3399048  54.0723267  70.9191971  75.0415726  53.4250488  70.9893570
  74.7713089  54.9115753  71.0797729  52.2395744  44.7022858   0.7654318
  53.0622406  44.2453041   0.9404176  52.4114838  45.6097298   1.0168746
  58.1728935  55.7587624  14.8021021  58.5611000  56.6308098  14.7309551
  57.2361946  55.9218712  14.9126558  85.7227478  48.0665665  14.9134045
  86.0968323  47.2275696  14.6443701  84.9001236  48.1287079  14.4279547
  47.9838333  36.4266586   6.1000986  48.8442535  36.0140953   6.0245934
  47.4351311  35.9523315   5.4754629  83.3676987  63.3005180  45.4600372
  83.8590393  64.0718384  45.7426682  83.2575989  63.4191132  44.5166168
  50.9479904  20.5048637  76.9536285  50.5809669  19.8181477  77.5103531
  50.1844368  20.9730129  76.6159058  79.6259155  71.6264648  30.8663654
  79.3935928  70.7879791  30.4673653  80.3293991  71.4132309  31.4794540
   0.5666237  67.7711487  73.7552490   1.1208005  67.3843689  74.4331284
  -0.0818058  68.2827301  74.2390366  71.3785629  25.9921627  41.0482254
  70.6939392  26.2802067  40.4444389  71.9300690  26.7647877  41.1711807
  61.8460541  44.5010986  60.1164207  60.9076767  44.3435936  60.0121498
  62.2635841  43.7625122  59.6732635  20.9859409  25.6719933  79.8459625
  21.8232632  25.6292171  79.3841248  21.2219067  25.6405926  80.7730865
  10.0646257  69.1737289   2.5603476   9.8814449  68.7608032   3.4042494
   9.9201021  68.4793549   1.9175495  26.7950554  58.0503159  17.1351242
  27.6489639  57.8036423  17.4904060  26.6785088  57.4808960  16.3745918
  53.0296593  24.9975910  31.7370720  53.5730057  24.9777946  30.9492817
  52.1456947  25.1721573  31.4140205  61.6963120  45.4205055  13.9305525
  61.3440399  44.5394478  13.8045645  62.5871964  45.2787399  14.2506475
  65.9199677  26.4020462  45.3131180  66.4694748  25.8668880  44.7405052
  65.5167007  27.0429173  44.7275467  59.8298569  66.0847244  64.5027237
  59.8863525  65.1904602  64.1660690  59.5812111  66.6113586  63.7430801
  79.6932144  65.8035202  33.4953156  80.6204376  65.6280060  33.3350220
  79.4696655  65.2472610  34.2415276  68.0877151  69.7266617  11.9481020
  67.2410812  69.4349136  11.6099787  68.3957596  70.3646011  11.3043842
  36.0655670  51.9305534  36.3590317  36.1730843  51.1688232  35.7894402
  36.9054871  52.0122681  36.8107986  34.2093735  58.4703598  83.5330658
  33.3866577  58.9586258  83.5019531  33.9421463  57.5572281  83.6380157
  75.0904312   3.4132264  54.2188187  75.8125229   3.9473462  53.8878708
  75.2715988   2.5337059  53.8873749  78.8531952  33.9889832  50.8950310
  78.6485977  34.8933678  51.1326408  78.0167618  33.5284996  50.9626274
  78.7209778  48.4055862  45.8651390  78.2473907  49.2145233  46.0589752
  78.0883636  47.7093925  46.0422058   0.5151402  13.2910700  22.7099991
   0.4175266  13.0168610  21.7981262  -0.3142723  13.0501728  23.1226425
   5.8778872  31.3251419  88.3097687   5.9485698  30.4289360  87.9810638
   6.0136418  31.2453613  89.2539291  72.8129883   7.4020724  71.2827454
  72.2234039   8.0199680  71.7149887  72.4225388   6.5436749  71.4468613
  31.6653652  60.8672028   8.7578650  31.0515003  61.4215889   9.2395906
  31.7440510  60.0767403   9.2919102  18.9155121  59.3494606  79.2729111
  19.8453236  59.3804779  79.0477066  18.8956528  59.4575157  80.2237854
  68.3738708  53.1414185  38.9620743  67.6963501  52.5482979  39.2867470
  68.5838928  52.8100967  38.0889511  65.4266968  31.3261337  60.0703659
  65.4732437  30.8022690  59.2705956  65.6770248  30.7206554  60.7681923
  57.6267090  23.6791382  18.4503975  56.9854164  23.5621834  19.1513233
  57.1060448  23.9385548  17.6902370  49.6095543  64.8011932   9.6958809
  49.0367699  64.0378494   9.7697725  49.6555328  65.1530838  10.5848637
  22.1538754  45.3664665  74.8565979  23.0046082  45.3424988  74.4185257
  21.5197430  45.4466019  74.1440735  61.7220573  63.1138420   7.9897656
  61.5316734  62.7361183   7.1310978  60.9341049  62.9442062   8.5060883
  22.6227016  55.1970291  26.7591667  23.0210361  55.8121490  26.1433830
  23.0249748  54.3541031  26.5496788  83.7381439  22.5293655  15.4642124
  82.8741074  22.2363243  15.1747303  84.0943832  23.0035362  14.7128887
  49.1870117  21.8992920  57.3046913  48.7068825  21.5231724  56.5669670
  48.6136284  22.5902843  57.6363411  53.1341667  47.6053505  50.8192863
  53.1817284  46.7983665  50.3066940  52.2657890  47.5828896  51.2213326
  61.5186005  59.3606071  28.6907253  62.1867256  59.5410652  28.0294571
  60.8253288  58.9054680  28.2127571  12.8015461  55.9411278  39.2915611
  12.1112194  55.2788239  39.3237419  12.8829269  56.1573219  38.3626518
   3.0476217  37.5653267  12.3071384   2.3590333  36.9598656  12.5819054
   3.6330001  37.0335274  11.7679224  17.5696621  23.2534790  81.5082092
  17.3525219  24.0706291  81.9569244  17.7114964  22.6229057  82.2142487
  75.4234543  68.2105637  44.1808434  75.4847183  67.2804718  44.3985825
  75.4272766  68.2332840  43.2239227  24.6902905  59.9047203  64.0950165
  24.4122715  59.0086479  63.9052887  24.2016888  60.1455154  64.8821106
  51.9494400  12.7214851   6.7087216  51.7081680  13.0418892   7.5778360
  51.1445312  12.3347569   6.3640561  65.8688660  24.8493462  84.3412704
  65.2190933  25.4714222  84.6684570  66.0642242  24.2896042  85.0927734
  41.0967255  45.3430939  77.0915604  40.9213371  45.8359833  76.2899780
  42.0499878  45.2605476  77.1182404  85.9004822  40.4780579  21.8743420
  86.6192093  40.3804588  22.4989548  85.1570587  40.0463562  22.2952785
  16.9119949  48.7400780  58.6573257  16.8705959  47.8093987  58.8772240
  17.6635685  49.0694313  59.1501694  12.2774591  60.9887390  15.2187119
  11.5467424  61.5247421  15.5269146  13.0328274  61.5761032  15.2442532
  41.6402969  43.6922264  27.6777630  40.8574791  43.7064018  28.2284241
  42.1093292  42.9029655  27.9485149  66.5295868  50.8137093   4.5864835
  67.1785126  51.1676025   5.1946626  66.9605179  50.0562859   4.1904526
  72.8189316  20.5902328  44.8229332  72.9406891  20.1838131  45.6809731
  73.5469666  21.2066994  44.7444344  82.5885620  25.4963360  78.9202957
  82.1776886  24.6404705  79.0424042  82.4008789  25.9699249  79.7306824
  80.1058884  26.6658058  33.5549126  80.0834885  26.7865677  32.6056252
  79.3731995  26.0779800  33.7389297  47.7293854  34.9368057  72.9305878
  47.4688835  35.3497696  73.7538986  47.4930344  35.5748253  72.2573166
  50.8413658  64.8903961  75.4712830  50.5774002  65.6009521  74.8867645
  50.5722504  64.0928497  75.0155106  24.5270004  60.5761108  18.5447903
  24.7084942  60.1761322  19.3952675  24.4168301  61.5073776  18.7367077
  74.8300247  23.5029259  55.8908539  75.6885223  23.1094475  55.7346458
  74.8361359  24.3057938  55.3697014  16.6585197  10.1960344  86.0976562
  17.2660656   9.4951630  86.3340912  16.0287247  10.2202330  86.8180771
  56.2910538  62.7880325  49.4689102  55.9264946  62.7464752  48.5848274
  56.1700630  61.9056473  49.8196030  22.3997822  53.7421722  18.6742477
  21.8451042  54.4449844  18.3356915  23.2920837  54.0213928  18.4691525
  59.1428108  32.3705177  71.9835434  59.7825394  31.7114582  71.7140579
  59.1459961  32.3304291  72.9398956  57.9959717  42.4283104  17.1694546
  58.2155075  41.5349083  16.9051304  58.0519714  42.9378510  16.3610821
  65.9130325  27.7958260  22.7063179  66.1668930  27.5226994  21.8247337
  66.4463425  27.2539272  23.2878323  83.6794968  65.9213181  67.5102997
  84.4911423  65.4141006  67.4964447  82.9876099  65.2691803  67.3996429
  81.0170135  22.4559708  15.0234442  80.2658844  22.5107689  15.6142349
  80.8784637  23.1633339  14.3936243  41.4984131  57.1209221  40.0359077
  42.3869667  57.4463997  40.1800346  40.9320030  57.8033676  40.3960228
  19.7961884   2.9319091  44.2095070  20.0450726   2.1074493  43.7917099
  20.5894508   3.4665391  44.1757812  14.6527033  51.0223694  10.0522652
  14.8336220  50.0936546  10.1971560  14.1079092  51.2791634  10.7962313
  82.3345032  31.7936687  42.7887459  82.5972748  30.8917637  42.9724541
  83.1355667  32.2188988  42.4826164  42.5804253  13.3603840  66.2341919
  42.0263176  12.7035179  65.8126144  42.5003166  14.1345730  65.6770172
  51.0687180  61.2593613  44.7452507  51.2559357  62.0900650  44.3080902
  50.1234055  61.2751198  44.8947945  81.5174408  43.8730240  13.1353426
  81.0515289  44.1300964  13.9310007  82.2136383  44.5236511  13.0446558
  66.3250122   3.1786375  52.4523087  66.6913223   3.1479468  53.3361130
  65.3847275   3.2970419  52.5867424  34.7223778  69.3431702  23.1045513
  35.4230118  69.9416504  23.3637066  34.5836487  68.7897110  23.8731003
  66.6968460  66.0907516  33.0500145  66.4295502  66.5593185  33.8407288
  67.5988007  66.3728027  32.8978310   4.5638647   6.7803345  20.6163502
   5.3783574   6.8554382  20.1191654   4.8418040   6.5128560  21.4923859
  51.2712440  37.5185356  37.8080750  50.4986458  37.0092468  37.5632248
  50.9338684  38.3975296  37.9806366   8.9764328  39.8331184  54.1383400
   8.0914745  39.7002296  53.7986031   9.3473759  38.9523163  54.1914368
  63.4731369  19.0212250  31.7046661  62.8980637  18.7095013  32.4034882
  64.3533936  18.9668598  32.0767288  84.3931732  35.7993279  76.9367294
  83.9069443  35.6346054  77.7446136  85.1498337  35.2154236  76.9892883
  79.3181686  56.4704514  36.9690781  79.3833923  56.7089615  37.8937874
  78.9665222  57.2527733  36.5441666  61.5481224  52.3327980  57.3768158
  62.3902473  52.6680069  57.0690994  61.7605629  51.4976273  57.7934532
  32.9357567   8.3565426  77.8401184  33.7454071   7.9701915  77.5063019
  32.2486649   7.7515502  77.5606232  52.3565979  43.0066109  60.4917984
  52.0660439  42.4988785  61.2494354  51.6130219  43.5720482  60.2829666
  35.2371902  60.1400604  21.8980789  34.9322891  61.0051956  21.6245689
  35.0053291  60.0864639  22.8252258  67.9902039  43.5646324  43.4403687
  68.2196579  43.4989433  42.5134010  67.1494217  43.1127090  43.5116005
  73.7026291  14.6349125  46.3576431  72.8741455  14.1923065  46.1734009
  73.9117508  14.3866215  47.2581139  84.8647537  44.9827156  52.1995239
  84.6969376  44.2613678  52.8059273  85.1988449  44.5584335  51.4092064
   0.9217093  30.6047592  69.7302322   0.5197574  30.2235641  70.5108490
   1.8404280  30.7271938  69.9693909  46.5535851   0.3343713  54.6314774
  47.0985947   0.1967384  55.4062386  45.8107605   0.8476334  54.9492874
  51.5028381   1.5914280  68.8516312  51.6057014   1.0460591  68.0717392
  50.5860481   1.8659552  68.8327026  25.6894035   5.4680305  61.9093895
  25.8155651   5.1602454  61.0118446  24.7417297   5.5709357  61.9963264
  78.9536438  49.5768051  42.1433334  78.9933472  48.6614838  41.8661270
  79.5700912  49.6329002  42.8734550  11.7968826  53.3377953  20.8378448
  12.1305952  53.5725479  21.7037296  12.4343824  52.7100716  20.4975662
   7.9041939  34.3431435  21.8239117   7.1082649  34.5583382  21.3376808
   7.6670866  33.5750885  22.3436222  58.6729736  33.3594322  74.6406860
  57.7548599  33.1938057  74.4265060  58.9137764  32.6454391  75.2309875
  28.1373692  58.1208801   4.3413768  29.0114803  58.0332298   3.9612699
  28.0275631  59.0623398   4.4749103  13.6394863  57.3739090  12.7638292
  13.9670696  56.9675751  13.5662107  13.7427092  56.6981850  12.0937719
  20.0607204  42.2636948   3.3966725  20.4892731  41.4093781   3.4488051
  19.3533325  42.1385994   2.7640703  78.2033768   7.6892390  59.2238960
  77.5810699   7.0767112  59.6160393  78.6272049   8.1113386  59.9711761
  22.0565262  48.4359436  53.4652596  22.9874725  48.6583595  53.4550972
  21.6407146  49.1217232  52.9427261  35.2122154  12.5791044  72.9539719
  35.3230934  13.3556480  72.4054184  36.0269470  12.0890932  72.8429260
  79.2590714  61.6017075  78.8910675  79.5428772  60.7303123  78.6147461
  78.5846329  61.4362411  79.5498505  14.6227436  70.3202972  63.9366455
  15.5688410  70.3336716  64.0813904  14.3717184  71.2435608  63.9082108
   5.1705465  29.2975979  82.8665543   4.2829838  28.9554482  82.9733200
   5.1102591  30.2111797  83.1457825  62.8910217  32.8681564  62.8688087
  63.5182648  32.2674370  63.2712250  63.0117455  32.7451210  61.9272575
  86.5997086  58.2187233  68.1273270  87.1333694  57.4792900  68.4183197
  85.7102890  57.9945831  68.4010620  30.7390289  37.4585381  72.0638657
  31.4855289  36.8892517  71.8770981  30.1542587  36.9196548  72.5966644
  70.4174194  59.4049301   1.2098351  70.8195419  60.2367783   0.9597342
  69.4902420  59.6124687   1.3260314  18.7566280   8.2027559  46.1280251
  19.0427704   8.1130238  45.2190132  18.7965240   7.3137317  46.4805527
   6.0573115  22.4543190  67.6364136   5.3732996  22.1752033  67.0277634
   6.0588341  23.4094391  67.5733795  33.5532875  68.6473160  54.0089149
  34.2667580  68.3025894  54.5459023  32.8494453  68.0057983  54.1053085
  75.6249390  39.1510086  48.3102036  75.6565170  39.4737320  49.2108078
  74.9750900  39.7063255  47.8794365  32.0494499  39.7036476  88.6005783
  32.5712891  39.5923119  87.8058929  32.6151009  40.2016068  89.1907501
   9.3766441  29.2286625  79.4878311   9.2106905  28.3203373  79.7400894
   9.0552893  29.7450466  80.2269516  74.4900589  64.6718063  35.6204147
  74.0418015  65.0863266  36.3576202  74.3649292  63.7332993  35.7610474
  46.2316513  45.5608330  64.3112411  46.1011925  46.4552383  63.9961929
  46.2414589  45.6418724  65.2649536  53.7418594  34.7295532  87.7305069
  54.1102142  34.7114372  86.8472061  52.9146118  34.2539825  87.6548309
  25.3676987  17.8155003  71.3141785  25.9547291  17.3229332  70.7405930
  25.2599373  18.6606216  70.8778458  58.8765144   8.3261795  57.5130310
  59.3107300   9.1791344  57.5255051  58.4096375   8.3072891  56.6776276
  34.2978516  47.3387566  78.1675186  34.9592323  47.8394928  77.6899567
  33.4679909  47.7553482  77.9350967  50.6461258  37.1655998  30.2677460
  51.1685524  37.6689606  30.8921909  49.8313751  36.9777107  30.7337017
  44.9246407  63.4960938  38.3774757  44.9760246  64.4053879  38.0829124
  45.6971169  63.3794861  38.9305725  11.9889221  61.1546097  29.2338924
  11.4937830  61.9068985  29.5581264  12.3725090  60.7639313  30.0190430
  72.5363541  34.6779022  45.6926498  72.1347122  35.5465279  45.6724930
  71.9504776  34.1309204  45.1693954  46.4685783  28.8014202  31.0809193
  46.7702942  28.1966286  31.7587299  47.1427460  29.4801350  31.0481853
  75.5133743  27.0262909  81.2198563  76.0747452  26.4377003  80.7152176
  75.5246277  26.6662083  82.1066742  77.3596344  21.8831062  63.2436295
  78.1860580  22.0768566  63.6860237  77.0065842  21.1287212  63.7153168
   1.9312550   6.8576922  75.5679398   1.8223808   7.8025041  75.6761475
   1.8851556   6.7180552  74.6221008  29.1433678  20.1217365   8.8786888
  28.8292351  19.8108234   8.0296392  29.2462940  21.0665302   8.7646551
  26.2022514  17.5201797  86.1724014  26.6517754  17.5458641  85.3277130
  26.1511726  16.5890503  86.3883209   0.4853605  59.2130661  85.4341202
   0.9254532  58.3757744  85.2875061   0.9797389  59.8393250  84.9053268
  24.6519985  69.5499802  15.1729174  24.8781643  69.7014694  16.0905952
  24.0361385  68.8175659  15.1957788  42.7096176  39.3992462  31.7652531
  41.7577667  39.4404526  31.8575497  43.0379753  40.0637283  32.3709564
  58.5990295  44.5851364  73.4952240  57.9072418  44.4708138  74.1468353
  58.4717865  45.4742508  73.1642914  50.1948128  27.8466644  43.0716515
  50.2397118  28.8027267  43.0842972  49.6178818  27.6242981  43.8023605
  11.8212357  33.5173836  18.0129128  11.1994429  33.4469490  18.7372379
  11.2985611  33.3412971  17.2305851  77.5284119  36.9414864   8.3460884
  77.6618118  36.6621437   7.4403267  76.8681717  36.3385887   8.6878977
  64.4250946  20.9335823  38.1680107  63.5777664  20.4991226  38.2655525
  65.0610886  20.2918682  38.4841461   1.4227927   0.1687640  29.0026226
   2.1245184   0.8106880  28.8942413   0.7583553   0.4303301  28.3651752
   7.3710732   1.3824085  13.9264450   7.5272555   1.5456547  12.9962893
   7.6244559   0.4683567  14.0550461  46.1931000  19.6577225  82.9691696
  45.9074440  20.5018234  82.6197052  45.6039581  19.4913921  83.7050247
  48.8160820   7.2385678  39.8425865  49.7605820   7.3889632  39.8034515
  48.5555801   7.5734353  40.7006264  45.5839920  16.3438492   3.6754839
  46.3343697  16.3188839   4.2692351  45.0101318  15.6431112   3.9851363
  74.8271255  57.0100365  36.0565758  73.9878159  56.9372292  35.6021690
  75.4801407  56.8024139  35.3882217   9.0117149   9.4904032   1.9606130
   9.6673746   8.8909845   2.3170388   9.3875723   9.7922840   1.1336724
  42.0370140  15.2709055  77.0633545  41.8231888  16.1498871  76.7504654
  42.2706184  15.3944025  77.9833603  48.1206627  69.9418716  21.1301060
  47.2236366  69.6906662  21.3502655  48.1853104  69.7964478  20.1862278
  78.5464478  16.0704479  41.5548553  78.7957535  15.9921322  42.4756927
  78.3533401  17.0005627  41.4372711  22.8655529  45.7135391  68.1316757
  23.1085739  46.5143318  67.6670303  22.3348370  46.0159264  68.8686523
  19.3413296  54.8191414  11.3922052  19.5289040  54.7688713  10.4549103
  18.4890690  54.3942795  11.4890347   5.5492759  62.6149063  88.2140350
   5.4587407  62.2533150  89.0956726   4.6515899  62.6786461  87.8879547
  34.1693344  51.0662308  30.6537800  34.6724091  50.3967590  31.1174107
  34.2754288  51.8558350  31.1843433  66.7746887   2.4461215  57.5870934
  65.9951324   2.5999737  58.1208115  66.5682602   1.6591005  57.0828934
  25.7777843  13.8830643   2.8381686  25.8525219  12.9533110   3.0531232
  25.0014935  13.9384098   2.2809081  67.5474091  41.1574669  59.2331581
  67.0036316  40.3846054  59.0807533  67.5311050  41.2783585  60.1825523
   3.4124770  65.3543701  81.3351593   2.9253423  65.0757523  80.5597229
   4.3260694  65.3731232  81.0501556  22.9285412  34.9066353  24.4739075
  23.2649574  34.6984406  25.3455219  22.3168774  34.1970520  24.2774677
   8.4930248  41.7097549   5.8469539   7.6904626  41.3998451   5.4273343
   8.3053102  41.6661301   6.7845526  41.9253807  37.0608368  59.0287704
  41.5662193  36.3846207  58.4543419  41.6527481  37.8858299  58.6271706
  46.2569160  54.2714920   7.2280068  45.8901176  53.3965111   7.3548894
  47.0816841  54.2581825   7.7136126  19.1589947  48.4468117  60.5417786
  18.8225422  48.6098022  61.4229507  20.0021629  48.8993797  60.5198326
  18.3317108  68.6190186  69.2922821  19.2126923  68.9342346  69.4941330
  18.1542625  67.9586868  69.9621353  21.6297989  53.7210464  77.6996002
  21.7540970  54.1541252  78.5441208  21.1081791  52.9446678  77.9030380
  48.0539970   0.7162092  64.4909286  48.1655121   0.0186875  65.1368866
  47.8982391   1.5033313  65.0128555  36.8495255  35.4699059   4.1773653
  36.2821999  36.1096573   3.7471435  37.0403214  35.8557014   5.0323443
  63.5442619  31.1474075  56.7947426  64.4040375  30.8664646  57.1079292
  62.9298782  30.8097591  57.4464760  10.9656210   5.6844435  69.0489578
  10.6801453   4.7709322  69.0336914  10.2139473   6.1758456  68.7176819
  83.8994141  31.9029026   7.4521551  83.6969681  31.0767899   7.8912258
  84.5714645  31.6744175   6.8099852  51.8918571  11.5838795  82.9863510
  51.0465775  11.3616571  83.3766708  52.2984810  12.1775522  83.6175766
  82.0433350  21.0398865  83.6116638  82.1879654  20.4744911  84.3703766
  81.2117996  20.7399502  83.2444916  44.3124886  62.4216690  58.3700676
  45.2522049  62.4841881  58.1990204  44.2200584  62.6644592  59.2913399
  46.5637932  17.4406719  29.3855820  45.7994843  16.8700600  29.3051758
  46.9330826  17.2270603  30.2424526  40.4480324  52.8748131  66.8470688
  41.0061798  52.2064247  66.4496307  41.0183907  53.3225403  67.4719391
   8.7288218  51.3268623  16.6606083   9.0501413  50.9727287  15.8314056
   8.0295210  51.9299202  16.4085579  30.8223820  18.4714031  77.6214066
  30.3540401  18.4299717  76.7876358  30.6237335  19.3425751  77.9646683
   0.5868494   8.7689962  66.0822983   1.1092346   9.5518312  65.9076157
   1.0742280   8.3024149  66.7612686  39.5102768  30.1228962  74.2105255
  39.0463676  29.2893620  74.2895126  40.0112801  30.0421982  73.3989105
   3.7557280  57.5635567  52.9273796   4.2542415  56.7488747  52.8640862
   3.1351786  57.5217781  52.1997795  66.2339325  41.4419518  38.8019142
  65.7322006  41.0729904  39.5287971  66.2786865  40.7347374  38.1584244
  46.0552673  26.0759640   7.7840414  45.5043640  25.8216457   8.5243530
  46.1874733  27.0173397   7.8961310  86.4082336  67.2145844  37.5594826
  86.4586945  67.4009171  38.4970131  87.3001709  67.3507462  37.2398758
  26.2617741  56.7832642  29.2732773  27.1386356  56.5097160  29.0039845
  25.9915352  57.4130135  28.6049843  47.3957443  18.6941032  72.6012497
  46.7541199  18.0918808  72.9779205  48.2365723  18.2517185  72.7175903
  68.7464447  65.6159592  87.3356628  69.0453491  66.4770203  87.0433502
  68.5395813  65.1470642  86.5272217  80.7437744   1.3433089   9.8677225
  80.5053864   1.0969386  10.7614250  79.9092407   1.3887671   9.4011173
   4.2574644  69.3233032  34.4839516   4.4269724  68.6933823  35.1844521
   3.4515722  69.7660980  34.7498589  77.5568771  49.3518372  82.6213684
  78.3121796  49.9151688  82.7899017  76.8748550  49.9504242  82.3167953
  33.9779663  68.8253784  14.8258171  34.1312752  69.7543640  14.9982080
  34.2258224  68.3866653  15.6396542  14.5689402  28.5825520  72.8621674
  14.3496056  29.1523170  73.5993805  14.9361954  27.7970409  73.2675400
  54.2876396  49.2727890  74.0484619  53.8028984  49.5224152  73.2617340
  54.1242332  49.9851532  74.6665802  52.7645836  31.9486485  77.6453018
  52.7295837  31.6487160  76.7369766  52.5810890  32.8867493  77.5950089
  34.7272987  19.1962757  71.5834961  33.8140831  19.3317375  71.3306808
  35.0298004  20.0609932  71.8609619  27.5880852  27.8179893   3.9801311
  26.8106155  27.4099903   3.5989351  27.6079159  28.6965714   3.6007493
   4.3520823  31.1620083  15.9351645   4.8830581  31.9526024  16.0313759
   4.6701226  30.5749531  16.6210556  50.1658249  19.5531673  14.2877693
  49.4185257  18.9932327  14.0774059  50.8265190  18.9517670  14.6313229
  83.3753738  33.8861427  50.2850304  83.8524323  34.3588829  49.6030006
  83.9036484  34.0065269  51.0741234  36.1884651  35.9004173  26.3322544
  35.6717224  36.1265984  25.5589180  35.5717583  35.9696159  27.0610332
  18.9055748  53.7056122  71.4170532  19.4358768  54.1916504  72.0485458
  19.3693256  53.8077545  70.5859528  73.8569107  27.8539734  32.9818192
  73.2712555  27.8676910  32.2248192  73.8351364  26.9463444  33.2850761
  11.8419962  26.0963802   1.5783495  12.3004246  26.6822872   2.1806674
  10.9999781  25.9287891   2.0016108  72.8424149  40.0185928   7.3883414
  72.4384308  39.3663292   7.9606872  73.6004410  39.5708885   7.0126019
  65.3520889   6.6774359  85.5403214  64.8970032   5.9630251  85.9861298
  66.2221756   6.3261046  85.3512497  70.4338684   0.9300908  54.7720032
  69.9823532   1.3827759  54.0596542  70.7258682   0.1050093  54.3844376
  78.0331802  32.7624702  84.2322617  78.4230576  32.6061363  83.3721542
  78.7733994  32.9982262  84.7914886  59.8094482  14.9000950  63.5254135
  60.1576233  15.7913418  63.4992371  60.4767265  14.3694019  63.0902824
  48.2833786  38.9272804  20.6030388  48.6499481  39.4528923  21.3140869
  48.6875305  39.2810555  19.8107414  51.8023186   1.5483394  22.0125866
  51.3065529   2.2938499  22.3512058  51.8017464   0.9146039  22.7299519
  60.1460876  50.4056244   5.9456258  59.3536949  50.2341995   6.4545050
  60.1678925  49.7055321   5.2932224  58.2715340  39.8520126  15.8817463
  58.1078606  39.1528358  16.5146694  57.5204010  39.8194618  15.2893190
  20.0319405  24.1858635  10.5249500  20.4549026  23.5643330   9.9324675
  19.5483475  24.7763252   9.9472618  80.3650513  20.6187954   8.3061819
  80.4712830  20.0974312   7.5104899  79.4398346  20.5243855   8.5326443
   5.5229249  24.7026405  70.5108185   5.4343438  24.6668282  69.5583954
   4.8624725  25.3371449  70.7891006  12.3926573  70.3632126  78.1941071
  11.8620806  69.5791626  78.3354874  11.7697868  71.0876694  78.2526169
  11.5664492  60.1182175   4.2546315  11.4473419  59.3426666   4.8028688
  12.1018133  60.7073555   4.7861729  58.9241257  10.1763763  69.7415848
  59.4316292  10.1868343  70.5531006  59.2941513  10.8875065  69.2185059
  57.5493507  69.4068375  58.9554977  58.2785492  68.8316498  58.7238541
  56.7852325  69.0019989  58.5450592  16.0936031  65.0093918  26.4027386
  16.3667202  65.7550278  26.9372177  15.6089582  65.4004898  25.6758347
  18.3129711   5.7610917  83.0538483  19.1401768   5.8736806  83.5221329
  18.0150833   4.8856339  83.3009720   3.1299417  37.6478844  52.9698257
   3.7053819  37.6643677  52.2050819   2.3568053  37.1651726  52.6774521
  31.3000546  24.7158356   1.4421140  31.6126080  24.6743469   0.5383320
  30.4212074  25.0890846   1.3747184  58.5383415  27.9009323  52.9318810
  59.4907608  27.9914913  52.9014473  58.3297768  27.8766918  53.8657684
  77.5279541  36.3908463  63.1253052  77.0884933  37.0605774  62.6013107
  77.3247986  35.5676651  62.6810837  25.3735142  56.5664368  34.4745064
  26.1960278  56.1578102  34.2048264  25.0859680  57.0569077  33.7044487
  41.2203598  68.7593918  28.2767887  40.6812057  69.4206924  28.7106419
  42.0358658  68.7488556  28.7778587  69.9499435  65.1485214  63.5765877
  69.5970078  65.4034119  64.4290543  70.8971863  65.1144638  63.7100105
  29.7203674  45.6087837  56.8870773  29.2132549  46.0088043  57.5935135
  30.4995861  46.1593552  56.8101425  67.8146820  52.1609116  10.9138889
  68.0702667  51.2430611  10.8219194  68.0841904  52.3967934  11.8015594
  23.5292606  53.8709717   3.7198451  24.0016289  53.1696281   3.2712727
  23.9203873  54.6769333   3.3826861  54.8690224  68.6205750  17.4884739
  53.9545555  68.9010696  17.5246601  55.1949844  68.9727859  16.6602650
  67.3953629  22.0027885  79.4967346  67.5872040  22.6960583  80.1282425
  67.1107330  22.4676189  78.7098770  66.4326172  26.3868103  59.7205048
  66.9374313  26.6065731  58.9375000  65.5350037  26.6406403  59.5058327
   2.9010062  19.5239906  81.4386520   2.9274433  18.6235561  81.1149979
   2.2641778  19.9626732  80.8745193  15.9083033  41.3334198  28.0557919
  15.6527672  41.0049438  27.1937962  15.4867363  40.7366295  28.6741428
  78.8581390   4.3296685  87.9259033  79.4543304   5.0115085  88.2355652
  78.4288483   4.7155657  87.1623459  69.7690048   1.2356145  51.0030518
  69.9939194   0.9344213  50.1227531  69.5068130   0.4412354  51.4682922
  86.3438950  28.2370453  15.0547676  86.8775558  28.9302616  15.4432030
  86.4357986  28.3646431  14.1105719  24.7117767   2.1479425  63.0871735
  24.4833450   2.4478631  62.2073441  24.9112034   1.2180210  62.9789734
  27.3074608  51.6127167  73.0521469  26.8364220  50.8808632  73.4505692
  26.9119091  52.3925514  73.4415436  66.3222733  45.2577553  53.9269753
  66.1289291  44.3241081  54.0115509  67.2618790  45.2924805  53.7476234
  63.9358177  10.2139778  15.9499063  63.0560417  10.3355598  16.3069038
  64.2567902   9.4162388  16.3704052  33.6492653   5.8450942  83.4349976
  33.5331993   5.1533117  84.0863037  32.9570427   6.4766498  83.6304474
  68.2447968   3.5731871  50.1827393  67.5853348   3.9832747  50.7423515
  68.3801651   2.7071238  50.5672417  38.1221619  50.2767296  55.8002357
  37.8818626  49.6449699  55.1224670  37.4057045  50.2327843  56.4334717
  58.4087143  39.5900040  60.8552666  57.9964676  39.7543297  60.0071602
  57.6763229  39.5140457  61.4668732   8.8168669  29.2900295  11.5757952
   8.9104624  28.7677383  12.3724651   8.3453102  28.7191753  10.9691725
  80.3333282  59.5621414  77.0978851  80.2512512  59.0169449  76.3154221
  81.0277786  59.1456108  77.6082611  70.7629776  59.8272171  65.1373825
  70.7952728  59.2726364  65.9168854  70.2247620  59.3363953  64.5163803
  68.9703217  26.2467613  61.7046585  68.9930725  27.1983337  61.6035347
  68.1413803  25.9831924  61.3051338  54.1400337  70.1140823  28.4479713
  54.9460869  69.6222916  28.6049728  54.4227371  70.8881531  27.9610157
  61.8853302   6.1786408  87.2387619  62.6001053   5.7621508  86.7572327
  62.0745087   5.9908729  88.1580963  53.7960167  12.0697117  53.8538933
  53.0086555  12.3247423  53.3730011  53.4746017  11.8017397  54.7147713
  58.9014854  62.3563499  27.1614742  58.8872185  62.5607605  28.0964851
  58.0413284  62.6303825  26.8432484  13.0978851  46.5084267  43.3610382
  13.7908106  46.7242851  43.9851303  13.2960606  47.0397339  42.5898895
  80.1800079  26.6120701   1.4228333  79.8285751  25.7338161   1.5691106
  80.0448074  26.7716370   0.4887612  25.3924656  50.2787285   9.6603689
  25.0097637  49.4451599   9.9341183  24.6387806  50.8378067   9.4716244
  42.6264801  30.3272972   1.4747170  42.6353912  29.9789467   0.5831987
  43.4939842  30.1194000   1.8217765  62.1035614  22.1116676   3.5848720
  61.7678528  21.2205467   3.4877424  62.2351112  22.2166748   4.5271564
  45.9553833  67.0310669  79.7753372  46.8024788  66.5891724  79.7171173
  45.3191643  66.3200836  79.8525772  37.2472343  51.5551529  15.4934759
  36.3028564  51.6960564  15.5607624  37.4892616  51.1520615  16.3272457
  59.5051117   3.8308737  54.6601753  59.8992767   3.3097529  55.3596725
  60.1419334   3.7944946  53.9464760  86.0325165  49.0271454  87.1315842
  85.6914520  49.9213257  87.1129379  86.8472595  49.0710793  86.6310883
  28.2315769   1.4896101  15.6086769  28.1802788   0.9051793  14.8523426
  27.9917412   2.3496029  15.2635345  16.2209949  68.0487823  21.8071976
  15.5559845  68.4408035  21.2412319  17.0537891  68.2997131  21.4075489
  52.2064896  58.6881142  88.1092834  52.6454239  58.6187592  87.2614899
  52.6749496  58.0721512  88.6726303  79.8807602  38.7897224  62.3540077
  78.9502106  39.0080910  62.3027191  80.2198029  39.3488159  63.0530739
  71.1447983  46.1742706  66.6275635  70.8784256  45.3770447  67.0854950
  71.3247604  46.8031311  67.3264008  25.0483608  51.5915604  28.7602692
  24.4919205  51.7471466  29.5234184  24.8611946  52.3246384  28.1739292
  65.3655548  34.9372215  66.7447586  64.9041672  35.7751160  66.7088242
  65.8403931  34.8894920  65.9150085  24.6121998   3.0410740  75.9724731
  25.2011719   2.9995506  76.7258835  23.7462463   2.8538144  76.3348160
  39.1622009  68.8950577  46.5356255  38.7444725  69.6877518  46.8723335
  39.5106316  68.4591217  47.3133087  15.0075426  13.9035749  78.1728668
  15.2238770  14.8359814  78.1799622  15.7277088  13.4942513  77.6932373
  71.6507416  33.1712379  24.8166637  71.7505875  34.0927277  24.5776730
  72.1753159  32.6980896  24.1707611  46.8745956   1.9817828  62.1043243
  47.1069603   1.5631946  62.9331932  46.2382240   2.6547365  62.3459778
  56.8585510  15.0207539  80.5638123  57.4927063  15.6792679  80.8474274
  56.2383690  15.5047150  80.0184784  37.8755913  67.0065155  83.0353699
  38.7283859  67.1130295  83.4568253  38.0812683  66.8617783  82.1118011
  10.6090117   9.9104500  75.0191727  10.2687254  10.6735687  74.5521774
  11.1087284   9.4292564  74.3596497  22.8446579  71.1726151  10.7576237
  23.6937714  71.5015030  10.4625463  22.3318596  71.9606476  10.9372740
  82.6356430  47.3917160  71.5820236  82.1719437  46.5734787  71.7600861
  83.5496368  47.1995506  71.7915955  44.0975380   6.3959742  15.0371876
  43.3521347   5.9958076  15.4849339  44.5161934   6.9376087  15.7062073
   5.6051702  41.9117851  79.2525940   6.4767137  42.1625710  79.5587845
   5.1924934  41.5029411  80.0133743  42.2589912  36.4809723  15.7264376
  42.7453194  35.6726418  15.8886480  42.7484627  37.1539955  16.1993980
  32.4920197  53.6994514  21.0383835  32.5060730  52.7733803  20.7966671
  31.8907928  54.1015396  20.4114189  81.2010956  19.7349243  49.9723892
  81.5851822  20.5644951  49.6886253  81.7940063  19.4169426  50.6532516
  45.7343178  60.4478683  26.4888000  46.2765808  61.1393929  26.8682461
  46.2980766  60.0322571  25.8363667   8.4633207  34.0284576  71.0788040
   7.7691193  34.2551575  71.6976166   8.8804789  33.2555847  71.4594421
  20.1682110  46.2163010  86.3708954  19.6001396  45.4997025  86.0880280
  20.9514427  46.1298447  85.8274765  77.5123520  68.4584656  35.5576286
  77.6232224  68.5765076  34.6142273  78.1465073  69.0584106  35.9502373
  74.2905426  67.7955780   5.7789803  73.5930634  67.1424408   5.7226644
  74.5936432  67.7447510   6.6854978   0.9210898  52.9973869  63.5734711
   1.1201369  53.6088486  62.8644409   1.6850762  52.4222260  63.6152763
  71.7979050  39.3856812  72.0658569  71.1676712  40.0632210  72.3107681
  72.3892059  39.3260956  72.8162231  20.1089439  69.9758530  61.3977623
  20.2532520  69.3055420  62.0656662  20.5564442  69.6402435  60.6210098
  86.7847978  71.6060847  89.1454904  90.0000000  90.0000000  90.0000000
