QMMM reactant CHA#2 frame 20000
 55680
  35.7131462  55.8653412  49.8115044  35.8753128  55.5183296  50.7460556
  36.0281181  56.8248749  49.8251877  34.7351456  55.7427673  49.5910759
  36.4525032  54.9276695  48.9419670  36.2269859  55.3500748  47.9627762
  37.9499779  54.7531967  49.3220901  38.3619919  55.7601089  49.3889656
  38.0435524  54.3635063  50.3357391  38.8112030  53.9245338  48.3512764
  38.4477501  52.8992805  48.4209900  38.6362114  54.1876411  47.3080826
  40.5885925  54.0484619  48.6067009  40.9269791  55.7215576  48.1378021
  40.6976128  55.9455872  47.0960274  40.3758774  56.4243355  48.7626915
  41.9930305  55.8248405  48.3402138  35.8245239  53.5486755  49.0442963
  35.5538292  53.0885773  50.1094742  35.5980148  52.9695969  47.8682976
  36.1887817  53.2694054  47.1059265  34.8178101  51.6969986  47.7139397
  33.9653778  51.7258263  48.3926468  34.2574501  51.8665237  46.2571526
  33.7581596  52.8286018  46.1422195  35.1395416  51.9571266  45.6232643
  33.2865219  50.8138962  45.6954994  33.9528999  49.9834518  45.4622574
  32.7171211  51.2153320  44.8572083  32.0794754  50.2731514  46.9166756
  31.2707672  48.9468880  46.0191307  30.3322773  48.8009605  46.5539665
  31.7535439  47.9747353  45.9193954  30.9561329  49.2696342  45.0266914
  35.6677589  50.5093651  47.8936157  36.8560257  50.6285286  48.1669540
  35.0977859  49.3139114  47.7434921  34.1037369  49.4193077  47.5990715
  35.6044884  48.0081406  47.8306198  36.6941452  48.0308113  47.8460083
  35.1299515  47.3087616  49.2059937  34.0793991  47.0526428  49.0687294
  35.8659363  45.9656105  49.4095879  35.2926369  45.3855095  50.1327133
  35.8535728  45.4257011  48.4627838  36.8870621  45.9474640  49.7904701
  35.1340256  48.2928429  50.4293098  34.7601051  49.2869453  50.1842613
  34.4765091  47.8203545  51.1590576  36.5058403  48.3778076  51.1588669
  36.6844482  47.4402122  51.6852875  37.2675552  48.3970757  50.3794327
  36.6931343  49.2863350  51.7312202  35.1678505  47.2138290  46.6119957
  33.9753838  47.2307320  46.3957787  36.0805626  46.4967728  45.9411888
  37.0552368  46.4991150  46.2059555  35.7375908  45.6937790  44.7574806
  34.7525787  45.2394943  44.8645897  35.7254868  46.6411934  43.4619179
  36.7545547  46.9963417  43.4072304  35.5082130  46.1618805  42.5073738
  34.7695045  47.8869667  43.5068398  33.8007317  47.5430336  43.8691788
  35.2774658  48.6385498  44.1111565  34.7274208  48.4758377  42.1480217
  35.7473793  48.7777748  41.9100647  34.3239136  47.7294579  41.4637756
  33.9126778  49.6524277  42.2081261  32.9340057  49.5405006  41.9850311
  34.2667847  50.8996277  42.5064354  35.4810143  51.2006721  42.8859482
  35.7920456  52.1466370  43.0548058  36.1414642  50.4659348  42.6760330
  33.3755493  51.9075623  42.3776398  32.5218468  51.8173256  41.8455162
  33.7540283  52.8437157  42.3991928  36.7381592  44.5143356  44.7592583
  37.7740746  44.5833778  45.4247246  36.3932953  43.5294762  43.9277649
  35.5219345  43.5531158  43.4175911  37.0915680  42.2422180  43.7308197
  37.7032852  42.0205116  44.6053200  36.3549767  41.4388084  43.7229843
  37.9037552  42.2112350  42.4196510  37.5844231  42.9091187  41.4813461
  39.0696983  41.5984612  42.5407562  39.3211517  41.3385124  43.4837837
  40.1007042  41.6728439  41.5137444  39.6871338  42.0535774  40.5798759
  41.3229218  42.6027603  41.9023628  41.8692436  42.1229973  42.7144356
  42.3299599  42.7943993  40.6383629  42.8383141  41.8481064  40.4534264
  41.8564491  43.1870728  39.7385330  43.1003151  43.5373611  40.8449211
  40.8307381  43.9725838  42.4627342  40.1265869  44.4452362  41.7779922
  40.4371185  43.8738594  43.4743767  41.9155197  44.9417229  42.5823936
  41.6479568  45.6069794  43.4033356  42.8345108  44.5062828  42.9747581
  42.2316933  45.4617615  41.6781311  40.6474152  40.2137794  41.2054482
  41.0232697  39.4955978  42.1288528  40.5738335  39.7897072  39.9272728
  40.4435692  40.5202141  39.2420769  40.7766342  38.4086647  39.4166946
  40.7484016  37.7438545  40.2800217  39.4874573  38.0666313  38.6488266
  39.3826180  38.8275299  37.8754311  39.6845703  37.1441727  38.1026459
  38.2972870  38.0166206  39.5783310  37.9903297  38.9701347  40.0080833
  37.4650230  37.5734634  39.0314751  38.3404045  37.0082512  40.7217979
  38.7517433  37.5457191  41.5762177  37.3865738  36.5572586  40.9954987
  39.2077293  35.9189987  40.3612938  40.1303596  35.9832954  40.7671547
  38.9232063  34.8359528  39.7051086  37.7592430  34.5642815  39.1719170
  36.9600868  35.1791763  39.1139221  37.5921211  33.6247635  38.8410454
  39.7770157  33.9360733  39.4523773  39.6410332  33.2225494  38.7505989
  40.7454453  34.0717354  39.7050438  42.0228653  38.1849747  38.6343994
  42.4876595  39.1059189  37.9698982  42.6145821  36.9799728  38.5675697
  42.0514946  36.2118721  38.9037971  43.9261589  36.6379471  37.9502563
  43.8442116  36.9861107  36.9206085  44.7487068  37.0798721  38.5125885
  44.1786804  35.1323357  37.8093109  43.6186256  34.3655930  38.6659050
  44.8426323  34.5890007  36.7937012  45.3975182  35.2515144  36.2709427
  45.2643967  33.2005043  36.6560974  45.4768829  32.8216362  37.6558075
  44.0224915  32.3734779  36.1469841  43.8737183  32.6543350  35.1043472
  44.2481194  31.3091755  36.2137337  43.0736542  32.6950035  36.5764351
  46.5581131  33.0737877  35.7962875  47.0355911  33.9290352  35.0788116
  47.2284470  31.9493847  35.9882965  46.9539986  31.2595615  36.6730766
  48.5300980  31.6893921  35.3805504  48.6429214  32.1191330  34.3852119
  49.6780472  32.2466354  36.2367935  49.4104729  33.2627983  36.5264969
  49.9218216  31.3841038  37.4974289  50.3126259  30.3869209  37.2949524
  50.8120270  31.7684402  37.9953423  48.9769897  31.5146847  38.0249977
  50.8623581  32.2304573  35.4484787  51.4454002  32.8685532  35.8662033
  48.7338409  30.1903362  35.2133904  47.9145813  29.4422340  35.8175926
  49.7033424  29.7492027  34.5004959  50.3491707  30.4389725  34.1438065
  49.9958916  28.2942944  34.3289070  49.4181709  27.6650028  35.0059128
  49.5204659  27.7072296  32.9883652  49.9372711  26.7032642  32.9082031
  47.9955025  27.5565014  32.9207153  47.7153664  26.7651176  33.6159363
  47.5155792  28.5012093  33.1762543  47.8611069  27.2176495  31.8934803
  49.8687859  28.4147072  31.8448811  50.7856140  28.2067909  31.6504631
  51.4019737  27.8824692  34.5185051  52.2992363  28.5795498  34.1302910
  51.5777168  26.8260002  35.2695389  50.7672005  26.3753796  35.6696701
  52.8028870  26.0062065  35.4873848  53.6168022  26.6046638  35.0781288
  53.0455017  25.6970654  36.9761963  53.9871101  25.1480293  36.9702911
  53.1530914  26.9723015  37.8689117  52.9070053  26.7835941  38.9138680
  54.2049561  27.2548656  37.9117546  52.5722771  27.8325386  37.5361137
  52.0644035  24.7629223  37.6792145  52.3891335  24.3117409  38.6168060
  51.1680298  25.3321114  37.9254532  51.8376312  23.9238434  37.0214729
  52.7534370  24.7506161  34.6300774  51.7556000  24.1942863  34.2464523
  53.9334946  24.2545471  34.3184319  54.7538567  24.7507954  34.6359901
  54.1061554  22.9507027  33.5858727  53.2136192  22.8708363  32.9653091
  55.3207703  22.9746017  32.7189140  56.0582390  23.5629406  33.2648964
  55.6907959  21.9592037  32.5769653  55.1888084  23.5595016  31.3349628
  56.1750717  23.6273232  30.8758507  54.6068382  22.8575897  30.7376938
  54.4763336  24.9223671  31.3040142  53.3906250  25.0344372  30.7738132
  55.0851479  25.8984852  31.8782749  54.1064072  21.6550331  34.4724312
  53.9382858  20.4965439  34.0279503  54.4068069  21.8458881  35.7860527
  54.5701294  22.7818966  36.1285667  54.6071701  20.7096291  36.7046776
  53.9738846  19.9062157  36.3284111  56.1171417  20.4977455  36.8245659
  56.5228157  21.3881359  37.3049126  56.2855949  19.6805134  37.5258980
  56.9602547  20.1996269  35.5566597  56.6179352  19.2862854  35.0701141
  56.8587570  21.0385914  34.8682251  58.4482307  20.1215496  35.6814384
  58.7803917  19.3270569  36.3496819  58.7587471  19.8811169  34.6646347
  59.0708694  21.3963394  36.0278015  58.7700958  22.1611519  35.4406929
  59.9676056  21.7582054  36.9697647  60.3584023  20.8603687  37.8430405
  60.9023285  21.0703068  38.6677628  59.9698105  19.9308643  37.9145660
  60.4004326  22.9197769  36.9600372  61.0154190  23.2542629  37.6880569
  60.0130615  23.4813766  36.2152901  53.9816170  20.8434029  38.1092529
  53.8103333  21.9947205  38.6298676  53.6043015  19.7293491  38.7330933
  53.7481499  18.8682461  38.2252464  53.2456665  19.6028404  40.1449089
  52.5255470  20.3725185  40.4226265  52.4750404  18.3113232  40.3230133
  51.6386909  18.2514400  39.6265678  53.1622353  17.5225582  40.0168800
  51.8903999  18.1899796  41.7176476  51.5678482  19.2127037  42.3668098
  51.5488739  17.0289841  42.0431137  54.4756470  19.7243652  41.0407906
  54.9477615  18.7639961  41.6141167  55.0192604  20.9347191  41.2348442
  54.6947517  21.6206760  40.5683174  56.1473236  21.1932487  42.0667610
  56.0527725  20.6274033  42.9935722  57.4629974  20.7549381  41.4434891
  57.3882179  19.7335358  41.0703316  57.7498970  21.5642834  40.2495499
  57.0928917  21.1976852  39.4608498  57.6692467  22.6410942  40.3981285
  58.7674751  21.3865700  39.9016151  58.5165405  20.8315105  42.3663559
  59.3226395  20.6153431  41.8919334  56.2234612  22.6391220  42.5171776
  55.8426056  23.5936146  41.7795410  56.6433868  22.8523369  43.7480774
  56.8247414  21.9960556  44.2520523  56.8345642  24.1902218  44.3859978
  55.8262367  24.5799904  44.5254860  57.5567207  23.9955502  45.7580757
  57.1753426  23.1902905  46.3859329  58.5519905  23.6427670  45.4877129
  57.7111511  25.2288837  46.6745300  58.5872307  25.7855148  46.3417358
  56.8697433  25.9103489  46.5490761  57.7933311  24.7970257  48.1397591
  58.3966942  23.7235336  48.4844856  57.0573883  25.3530445  48.9465408
  57.5926743  25.2187729  43.5752945  57.3569679  26.4202919  43.7199402
  58.6380234  24.7261562  42.8713799  58.9444122  23.7643547  42.8372955
  59.6229439  25.6022701  42.1153984  59.7911644  26.5335693  42.6562119
  60.9316101  24.8138638  41.8599358  61.6950378  25.4998016  41.4928360
  61.2431183  24.3225746  42.7817307  60.7725906  23.7868557  40.7716141
  60.2598610  22.9691811  41.2781868  60.1554184  24.0728455  39.9199028
  62.1099129  23.3176346  40.1717606  62.2135277  22.8542500  39.0549889
  63.1120529  23.3973999  40.8814926  58.9725647  26.1769581  40.8604660
  59.4701118  27.2219467  40.3111267  57.8590469  25.6087246  40.4666023
  57.4346581  24.8346748  40.9573593  56.9676743  26.3391705  39.6172066
  57.4588013  27.1667805  39.1053848  56.5469131  25.4048309  38.4059258
  55.9966507  24.5999489  38.8932457  55.7740707  25.8611031  37.7873573
  57.7370186  24.9292278  37.5206566  58.5332222  25.6717281  37.5741310
  58.0645142  23.9534874  37.8795090  57.2503090  24.6778374  36.0834923
  57.9882278  23.9816685  35.3904152  56.3135986  25.3202229  35.4870338
  55.9173622  27.1288013  40.3922958  55.8572388  28.3421783  40.2817307
  55.0214005  26.3533611  41.0634193  55.3165970  25.4234142  41.3244934
  53.8093300  26.8876514  41.7453499  53.2388611  27.1970711  40.8696098
  52.8866844  25.8555889  42.4685173  53.5374413  25.5190067  43.2755699
  51.5969810  26.3623161  43.1153107  50.6376839  26.1628036  42.6377716
  51.5451393  25.8647041  44.0837097  51.6929588  27.4242821  43.3413963
  52.6010475  24.5874176  41.6808395  51.8716049  24.8780289  40.9248238
  53.4169312  24.1665764  41.0931969  52.0277748  23.4111347  42.5878105
  52.6536751  23.3029137  43.4736137  51.0530930  23.6200142  43.0288010
  52.0111198  22.5003796  41.9891891  54.0513039  28.2304935  42.5146103
  53.3822594  29.2624893  42.2887459  54.9790878  28.1616077  43.4687309
  55.4654045  27.3096008  43.7088890  55.1752129  29.3422623  44.3270531
  54.2263680  29.5645504  44.8152962  56.0448303  28.9923553  45.4827271
  55.7270927  28.0225773  45.8657036  57.0555191  28.8736801  45.0921783
  56.0139809  29.8841343  46.7224045  54.9737396  30.1518631  46.9076424
  56.4608154  29.1653862  47.9739342  57.5264854  28.9398537  47.9342270
  56.2411537  29.8111057  48.8241653  56.0430412  28.1590958  47.9431534
  56.8058357  31.2008667  46.6175003  56.9438324  31.4718285  47.6642342
  57.7966156  30.9545059  46.2357101  56.2632179  31.9631290  46.0583725
  55.7571030  30.5394745  43.5056992  55.1982193  31.6088123  43.5056496
  56.7665520  30.2583084  42.6305771  57.1065903  29.3181267  42.4872856
  57.4257469  31.3495941  41.8437958  57.7185135  32.1705666  42.4983139
  58.6836967  30.7790070  41.0967178  58.4784508  30.0210724  40.3407326
  59.2337685  31.5468445  40.5527077  59.6933899  30.2017174  42.1770172
  59.2034531  29.4484978  42.7940445  60.5195389  29.7607975  41.6191826
  60.2914238  31.1757030  43.1553841  61.0217133  32.0838203  42.8260918
  60.1200829  30.9306774  44.4153862  59.7571335  30.0391674  44.7213058
  60.5467987  31.6842155  44.9351883  56.4945564  31.9737988  40.7464561
  56.4635201  33.2090416  40.5627365  55.7406807  31.1844406  39.9947853
  55.8643990  30.1840019  40.0573540  54.7702675  31.6008110  39.0584183
  55.2338753  32.3000946  38.3625946  54.3301582  30.3630409  38.3052483
  55.1411705  29.6606960  38.1126862  53.5293007  29.7996941  38.7841682
  53.8740005  30.7179108  36.7908134  53.8934097  29.7708244  36.2516022
  52.8191147  30.9804935  36.7110176  54.7979622  31.5970955  35.9743538
  54.5470886  31.7233315  34.9211540  54.7579117  32.6042061  36.3893547
  56.2195244  31.2319584  35.9567528  56.6045418  31.1851711  36.9754143
  56.3790512  30.2888622  35.4340515  56.9616814  32.2151489  35.1139488
  56.5532417  32.3572350  34.2012062  57.0604019  33.0651436  35.6504784
  57.9102325  31.8864174  35.0031090  53.6928673  32.3817978  39.7796631
  53.5095215  33.5475731  39.3866882  53.2894478  32.0106049  40.9724846
  53.5629959  31.1039886  41.3236542  52.3624954  32.7862358  41.7880058
  51.5792885  33.1588287  41.1277962  51.6806297  31.9315796  42.8394318
  52.5309181  31.5769634  43.4219780  50.5837784  32.5614014  43.6581841
  50.9741745  33.2941704  44.3644066  49.8554497  32.9923820  42.9712372
  49.9660263  31.8729229  44.2347984  51.0746307  30.8208008  42.1709251
  51.7718544  30.2582607  41.8259201  52.9184418  34.1527901  42.2947845
  52.1454773  35.0774269  42.2824707  54.2169952  34.1575317  42.5942078
  54.6754646  33.2576103  42.6012383  54.8993454  35.3823547  43.0025597
  54.3154907  35.8904457  43.7700615  56.2096939  34.9505005  43.5773811
  56.0046883  34.2240677  44.3637466  56.7505913  34.4356117  42.7833900
  57.1454048  36.1469383  44.0176048  57.3392487  36.8943710  43.2482719
  56.5351677  36.6863594  44.7419891  58.5023766  35.7653656  44.5469742
  58.4087257  34.9142761  45.2214966  59.0820045  35.3686638  43.7134552
  59.3133087  36.9081078  45.2720108  59.8641434  37.4783401  44.5239983
  58.5948944  37.4454308  45.8910904  60.2846298  36.3151093  46.2592545
  60.9837761  36.9610825  46.5969162  59.7432289  35.9380150  47.0239716
  60.7782707  35.5874367  45.7623558  55.0387840  36.4437904  41.9632416
  54.7619286  37.6041756  42.1933365  55.2451630  35.9275970  40.7739105
  55.3985672  34.9398003  40.9182205  55.2337799  36.6776619  39.5236702
  55.7622566  37.5901184  39.7997704  55.8868828  35.8830299  38.4198532
  55.4314575  34.8935623  38.4604149  55.7806740  36.3782272  37.4546585
  57.3296394  35.7604370  38.7265358  57.8609657  36.6832733  38.4938049
  57.5525131  35.5706558  39.7764931  57.9054451  34.6390305  37.8912926
  57.5261841  34.3637352  36.7474403  58.7470894  33.8321190  38.4285812
  59.2476883  33.1887512  37.8322754  58.9642982  33.9290504  39.4101715
  53.9014320  37.1430931  39.1397934  53.8141823  38.2962112  38.7168503
  52.8465004  36.3865547  39.3450279  53.0539894  35.5703926  39.9026413
  51.4088669  36.7093544  39.1189117  51.3192673  37.1654968  38.1330070
  50.6062813  35.4133682  39.1783829  50.8625298  34.7324448  38.3667297
  50.9055367  34.9151611  40.1005173  49.0172729  35.6323280  39.3065262
  48.8345146  36.1367226  40.2553596  48.3880997  36.3556671  38.1484909
  48.6128883  35.9654121  37.1558838  47.3090363  36.4192123  38.2887993
  48.8120422  37.3593597  38.1172905  48.3738937  34.2182426  39.3709984
  48.6779823  33.7093010  38.4563332  48.8368988  33.7198524  40.2226639
  47.3090973  34.2009315  39.6033974  50.8970566  37.7723351  40.1421852
  50.4406090  38.8083344  39.8056717  51.2557983  37.6423569  41.4459000
  51.7759514  36.8181305  41.7108498  51.0909309  38.5943298  42.5829124
  50.0215302  38.8016434  42.6216698  51.4892807  37.9749107  43.9546814
  52.5446777  37.7162666  43.8689728  51.4313850  38.8059158  44.6576576
  50.5874557  36.7848930  44.4436684  50.3930016  36.0803680  43.6350098
  51.2753792  36.1607552  45.6265450  50.5622177  35.4654083  46.0692520
  52.1702728  35.6273842  45.3059654  51.4666176  36.7657623  46.5128326
  49.1245499  37.0561333  44.8301163  48.6131134  36.1380119  45.1192207
  49.0927010  37.7340202  45.6830864  48.6445770  37.5651054  43.9942513
  51.8170815  39.9309387  42.4314156  51.1997566  40.9701691  42.5621910
  53.1151695  40.0130043  42.0620079  53.6530380  39.1611099  41.9907684
  53.8712349  41.1993790  41.7392311  53.8419685  41.8608131  42.6051102
  55.4089737  40.9798660  41.6379814  55.6654625  40.2232170  42.3794632
  55.7484818  40.5059814  40.7169647  56.3120804  42.2422943  41.9765892
  55.9853134  42.9672279  41.2310753  56.0169449  42.6292458  42.9519157
  57.8180885  41.9434814  42.0170708  58.3043327  41.0199776  41.3065567
  58.4889259  42.5446014  42.9252129  53.2879639  42.0332794  40.4963531
  53.4872017  43.2469940  40.3917923  52.5698509  41.2472878  39.6769867
  52.4317665  40.2714996  39.8980522  51.8843117  41.7026253  38.4631233
  52.5636749  42.4935532  38.1453323  51.9263344  40.5730553  37.3428307
  52.9707718  40.2814064  37.2324142  51.2953072  39.7084541  37.5486755
  51.4479713  41.1097832  35.9745178  51.2823448  40.2799416  35.2874718
  50.5044250  41.5967751  36.2208176  52.3482666  42.1085510  35.2742920
  52.7822800  42.7099953  36.0730400  53.2619171  41.6361885  34.9134331
  51.6264839  42.8626785  34.1446190  51.1059837  42.2672005  33.3945618
  50.9134636  43.6328926  34.4386826  52.5667343  43.7928200  33.4979935
  53.1138916  44.2712288  34.1993065  53.2043495  43.2464294  32.9367371
  52.0415726  44.4103203  32.8955002  50.4938316  42.3121338  38.7186699
  50.2486115  43.4149513  38.2628059  49.6622391  41.6884270  39.5923424
  49.9167290  40.7502708  39.8665581  48.4671135  42.2932587  40.1636925
  47.7496452  42.4781075  39.3642120  47.7761841  41.2497902  41.0793114
  48.4495735  40.9398613  41.8784332  46.4679146  41.7779427  41.7030792
  46.6417427  42.8301430  41.9283867  45.6012421  41.6091003  41.0639610
  46.2253952  41.3160820  42.6601410  47.4437141  40.0350533  40.1792030
  46.6499405  40.2934799  39.4783173  48.1976624  39.9025116  39.4032555
  47.3597679  38.7063255  40.8780479  46.5245705  38.7002335  41.5784111
  47.2201347  37.9510651  40.1046257  48.1872101  38.4410934  41.5361519
  48.7522049  43.5911789  40.8642769  48.1627159  44.6392059  40.5305481
  49.7688637  43.6074181  41.7794876  50.0278778  42.8146896  42.3492203
  50.2469063  44.9239235  42.3354645  49.3830338  45.3205795  42.8688431
  51.3376923  44.6845856  43.3834457  52.1347084  44.0964890  42.9284592
  51.9488106  45.9791679  43.9377670  51.1965637  46.4831924  44.5445480
  52.7548370  45.7517738  44.6354141  52.4035721  46.6479492  43.2070007
  50.7564125  43.7579308  44.4983215  50.1399879  44.4418030  45.0817947
  50.2587128  42.8978195  44.0504303  51.8543968  43.1520729  45.3783112
  51.4172249  42.4970055  46.1318855  52.3679276  42.5184250  44.6552086
  52.5326462  43.8953171  45.7974358  50.6252861  46.0266151  41.3058701
  50.3171692  47.1339989  41.5720901  51.2650681  45.7009125  40.1821022
  51.5495682  44.7435989  40.0314026  51.6429138  46.7351761  39.1573410
  52.0184784  47.6244812  39.6635056  52.8322563  46.1404114  38.3702698
  53.7442703  46.2583809  38.9554291  52.6515846  45.0655060  38.3764877
  53.1439323  46.5706367  36.8945274  52.2144394  46.4794960  36.3325386
  53.4655647  47.6121063  36.8955994  54.2617531  45.7852974  36.2613106
  54.1466217  45.3288078  35.1008377  55.3647575  45.7575073  36.8092918
  50.4872360  47.1799698  38.2375450  50.3666534  48.2883148  37.8772202
  49.5608635  46.2638397  37.9215050  49.6090431  45.3433876  38.3344841
  48.3062286  46.4970360  37.1526947  48.5508652  46.9808922  36.2071075
  47.6037445  45.1839981  36.7588234  47.6116867  44.6134720  37.6875534
  46.5514450  45.2768173  36.4902115  48.4363022  44.4926071  35.6507683
  49.5069809  44.6045456  35.8217010  48.3118591  43.4155006  35.7623634
  47.9927673  44.9565811  34.2112350  47.3165398  44.1573029  33.5472832
  48.3470383  46.0497818  33.7812843  47.2156143  47.2862282  37.9325714
  46.4430389  47.9734421  37.2885818  47.1982689  47.1461945  39.2314720
  47.7502556  46.4007149  39.6310616  46.1491737  47.6448059  40.1287308
  45.3717613  48.1784325  39.5819473  45.5177345  46.3830528  40.8095589
  46.2277260  45.7496681  41.3413887  44.8043213  46.8251534  41.5050354
  44.7989311  45.6160698  39.7309761  43.6545639  45.9101982  39.4669151
  45.4065742  44.6486702  39.0993919  44.8342361  44.3006363  38.3434792
  46.3917770  44.4815559  39.2462082  46.5998993  48.6000023  41.2138138
  45.7941322  49.0159950  42.0128784  47.9712906  48.8741379  41.3901138
  48.7039948  48.5120811  40.7966843  48.6474113  49.6789284  42.4037094
  49.7119713  49.5129738  42.2385712  48.3716850  51.0882950  41.9517860
  47.2988091  51.2686806  42.0188980  48.7788429  51.8485489  42.6183815
  48.8681755  51.4349861  40.5645485  48.2710724  52.1498413  39.5942383
  47.4290352  52.6961670  39.7064781  49.1302910  52.1811066  38.5485725
  48.9541931  52.4992104  37.5316162  50.2818642  51.5781937  38.8395958
  51.0890388  51.4072876  38.2570534  50.0899048  51.0772705  40.1028099
  50.7832146  50.4576073  40.6521225  48.3973618  49.3419113  43.8626556
  48.4956284  50.2100410  44.7041969  48.1732941  48.1084404  44.1526604
  48.1916237  47.5077705  43.3408966  47.6080360  47.6755943  45.4433784
  46.8046036  48.3825798  45.6501923  47.0143967  46.2351952  45.3765106
  47.8547745  45.5574150  45.5264816  45.9297981  46.0153999  46.4169464
  45.4103661  46.9619675  46.5662918  45.1847916  45.2816887  46.1091652
  46.3622665  45.5946083  47.3246918  46.4579697  46.0594864  44.1011505
  45.6049347  46.4990005  44.1286240  48.7008858  47.6715012  46.5963593
  49.8747749  47.4712753  46.3664589  48.3069572  47.8185692  47.8654594
  47.3548050  48.1334076  47.9854202  49.1095581  47.7439651  49.1125755
  50.0654335  47.2685204  48.8926773  49.5934944  49.1540680  49.5721169
  50.1405029  49.0157738  50.5047226  50.3035431  49.5521736  48.8472404
  48.4551697  50.1552544  49.8634071  47.6273651  50.0835342  49.1579323
  47.9646721  50.0115967  50.8261490  49.0474586  51.5805283  49.8621864
  49.9526939  51.4862556  50.4619865  49.2500954  51.8619308  48.8288193
  48.1045380  52.5519295  50.4733772  47.7941055  52.1240921  51.4266319
  48.6390877  53.4961586  50.5772629  46.9150887  52.9079361  49.6086082
  47.1212578  53.3438072  48.7211304  46.2966385  52.1344452  49.4102898
  46.3902245  53.5681152  50.1642914  48.3454552  46.7926636  50.1980896
  47.1232681  46.7589302  50.1653214  49.0823326  46.1378746  51.0461044
  50.5590286  46.0026283  51.0180550  51.0354271  46.9570770  51.2420616
  51.0105019  45.6626434  50.0860214  50.9523468  44.9448013  52.0679970
  51.6521835  45.3552666  52.7959023  51.5118904  44.2013168  51.5003319
  49.6687775  44.4310265  52.7378578  49.6538124  44.7706223  53.7734985
  49.6415367  43.3419571  52.7736740  48.4878845  44.9635735  51.8883514
  48.2511253  44.2451630  51.1035347  47.4101562  45.3669014  52.8012543
  46.4077034  44.6676064  52.9703560  47.5866547  46.5494461  53.4415703
  48.5128517  46.9500389  53.3992653  46.6643600  46.9779778  54.4506493
  46.5102272  46.2171135  55.2157822  47.2327538  48.0899506  55.3432617
  46.5500450  48.4035187  56.1329994  48.0604172  47.5584831  55.8129692
  47.6422615  49.4733505  54.6883354  46.9149208  49.8170891  53.9528656
  47.5492859  50.2457085  55.4518280  49.0971756  49.3906517  54.0434532
  49.5395126  50.5085106  53.6406250  49.7633896  48.3110390  54.0604820
  45.2647400  47.2659531  53.8960037  44.2880058  47.3321037  54.5941658
  45.1516647  47.5739632  52.5988998  45.9890289  47.4855423  52.0411377
  43.9201431  47.8380280  51.9032288  43.3139763  48.4880753  52.5341797
  44.1654854  48.5873947  50.6248741  44.9464798  48.1205292  50.0247192
  43.2678070  48.6021423  50.0067673  44.5673256  50.0308418  50.9029884
  44.2534866  50.5864067  52.0181541  45.1191177  50.6695480  49.9822464
  42.9743614  46.6205788  51.6079865  41.8286552  46.7411423  51.1341019
  43.4644699  45.4511986  51.9488716  44.3886833  45.4018974  52.3532257
  42.7841110  44.1604538  51.6509285  42.1086082  44.2956352  50.8062286
  43.8772697  43.1392860  51.1652489  44.6682587  42.9785538  51.8977776
  43.2788162  41.8272362  50.7115479  43.0667343  41.3478737  51.6672325
  42.3535538  42.0255280  50.1705589  43.9773407  41.1723709  50.1906624
  44.5430870  43.7576828  49.8848686  45.4887428  43.2978973  49.5977707
  43.8329773  43.8689537  49.0654411  44.7802925  44.7900200  50.1419983
  41.8037910  43.7176971  52.7273903  42.2322502  43.5527306  53.8726196
  40.5838852  43.4145851  52.3636856  40.3252945  43.6137161  51.4078751
  39.5299492  42.6790466  53.1236992  39.3784065  42.9623604  54.1652718
  38.2125893  42.8331451  52.3155518  38.2793045  42.5438614  51.2667580
  37.1371155  41.9267197  52.8083229  36.1813278  42.1505203  52.3345337
  37.3330078  40.8548317  52.7803726  36.9145126  42.2153091  53.8355827
  37.7365723  44.3257828  52.2098618  38.5328484  45.0419655  52.0070496
  36.9776993  44.2913971  51.4281769  37.2706413  44.5480881  53.1698532
  39.8433456  41.1813087  53.0994377  39.9055557  40.5766602  54.2243423
  40.1241188  40.5788803  51.9158287  40.2293434  41.2027473  51.1285439
  40.4936752  39.2230721  51.8418541  41.1951103  39.1181183  52.6695442
  39.2345390  38.3119049  51.9913940  39.6220169  37.2974243  52.0851479
  38.7288437  38.6199455  52.9065361  38.1959763  38.3839417  50.7974052
  38.1555023  39.4411011  50.5349617  38.3377037  37.8634911  49.8502274
  36.8573265  37.8815536  51.2037582  35.8240089  38.5154839  51.1909752
  36.8513718  36.6940498  51.7044449  35.9806824  36.2900162  52.0187073
  37.7813873  36.3132858  51.8053970  41.1155510  38.8652229  50.5151367
  41.0499992  39.5776749  49.5562897  41.7347679  37.7181358  50.5278778
  41.9177589  37.3144073  51.4354134  42.3025208  37.0989914  49.3630447
  41.6910400  37.5143242  48.5619850  43.7387657  37.5430870  49.1745377
  43.6705360  38.6048660  48.9377480  44.2658501  37.2461929  50.0812569
  44.3446121  36.7440338  47.9766731  44.7942886  35.8517799  48.4123001
  43.6683159  36.5350151  47.1477966  45.5877342  37.6377563  47.0897293
  46.5968323  38.3268852  48.4150887  46.8608208  37.5452042  49.1273994
  47.5177841  38.7336464  47.9973640  46.1128311  39.1562691  48.9308090
  42.1332588  35.6372223  49.3725243  42.1449585  34.9504433  50.3976440
  41.9249649  35.0646057  48.2293587  42.0022964  35.6996460  47.4477921
  41.7498207  33.6064262  48.0412598  42.2561035  33.0844765  48.8532562
  40.2889862  33.1419601  48.1349754  39.7851372  33.5120773  47.2420845
  40.3471375  32.0683136  47.9560699  39.5253754  33.3172264  49.5084839
  40.2404556  33.3420525  50.3307610  38.6241951  34.6053200  49.5011826
  39.2682648  35.4811592  49.4226265  37.9707108  34.5702896  48.6294975
  37.9983215  34.6858635  50.3899460  38.4998817  32.2240868  49.6213036
  37.8321075  32.1325264  48.7646866  39.0705032  31.3065510  49.7648811
  37.8402710  32.2850952  50.4869232  42.3914604  33.2009430  46.7114525
  42.3052711  33.9340706  45.6993141  43.1481781  32.1110840  46.7518387
  43.2103195  31.7010365  47.6727676  43.7525864  31.4676895  45.5936203
  43.4968300  32.0684013  44.7207909  45.3025780  31.4727859  45.7441597
  45.4083824  30.8623066  46.6409416  45.7392120  31.0184860  44.8547440
  46.0782661  32.8523026  45.8689003  45.5545616  33.6610107  45.3591728
  46.2486534  33.3533821  47.2675591  46.6999054  34.3406677  47.1688843
  45.3427811  33.3587303  47.8737526  46.9145966  32.7402573  47.8747635
  47.5265160  32.6762924  45.3428268  47.4929352  32.3744125  44.2959976
  48.1742859  33.5353127  45.5176926  48.1039238  31.9210224  45.8759956
  43.2242355  30.0657959  45.5363312  42.3938789  29.7162914  46.3390045
  43.6619225  29.3413849  44.5277710  44.1797180  29.8450127  43.8218346
  43.3407173  27.9359131  44.1691170  43.3358269  27.2634048  45.0269089
  42.0016632  28.0781994  43.4833679  41.3327141  28.7163563  44.0607452
  42.0655403  28.5275784  42.4923630  41.2474289  26.8833618  43.2230644
  41.0489922  26.4576988  44.0603409  44.2548523  27.4160347  43.0989418
  44.9037819  28.2074928  42.4553986  44.1945038  26.1453018  42.7173576
  43.4902115  25.5175362  43.0778923  44.9459724  25.6139870  41.6352997
  45.1165810  26.1917801  40.7269211  46.3184128  25.2201748  42.1720200
  46.9500046  24.9857388  41.3151436  46.8232651  25.9499054  42.8050461
  46.1558075  24.3079319  42.7460213  44.2416496  24.3962898  41.1061478
  43.6979904  23.6105747  41.9109879  44.2627831  24.1513081  39.8180428
  44.6746101  24.8980179  39.2768250  43.3618584  23.2079010  39.1284828
  42.4151840  23.3529453  39.6489372  43.4262924  23.4168968  37.6183167
  42.8880806  22.5805168  37.1723404  42.7280464  24.7587795  37.4053230
  42.6130257  24.9463558  36.3377647  41.8212204  24.9002552  37.9933281
  43.3498192  25.5386257  37.8450241  44.7691422  23.3928699  37.2279282
  45.1081848  22.4947395  37.2318535  43.6636543  21.7406788  39.3931808
  44.7587166  21.5393944  39.8875771  42.7093887  20.8252144  39.2234650
  41.4100494  20.9651966  38.6695061  41.4944649  20.8197517  37.5925560
  41.0238495  21.9605751  38.8889885  40.5785713  19.9250050  39.3745880
  39.7758102  19.5650520  38.7310715  40.2366257  20.2952213  40.3410835
  41.5931625  18.7224979  39.4470024  41.7992401  18.2860317  38.4696922
  41.2696190  17.9026585  40.0883217  42.7718697  19.5271187  39.9368591
  42.6640549  19.6431828  41.0152855  43.9815102  18.5890007  39.7516479
  44.1550102  17.6670532  40.5678253  44.7662010  18.9525166  38.7789612
  44.6626129  19.8833904  38.4010162  46.0356216  18.3255444  38.3791084
  45.9240265  17.2562771  38.5588722  46.1318550  18.4723740  36.8541985
  47.2130013  18.4017620  36.7348480  45.5428581  17.6560898  36.4360352
  45.7628860  19.8208866  36.2266960  45.8204765  20.8759041  36.8834152
  45.4723473  19.8729267  34.9954758  47.2848701  18.8925724  39.1089134
  48.3922768  18.3965721  38.9079323  47.1363449  19.7996330  40.0399017
  46.1981773  20.1525993  40.1638336  48.2446632  20.3354130  40.9562454
  49.1727104  19.8103638  40.7300720  48.4543991  21.8421745  40.6526642
  47.5017395  22.3059254  40.9085426  49.1952667  22.1646938  41.3842430
  48.8740578  22.2294674  39.1778603  48.0892105  21.8837624  38.5051041
  48.9559479  23.7120647  39.0449142  49.5598984  24.2431850  39.7806168
  49.4268341  23.9212341  38.0843849  47.9663582  24.1690216  39.0467949
  50.2410164  21.7152023  38.7599525  51.0509834  22.2968102  39.2001572
  50.3246460  20.6657505  39.0423660  50.2762985  21.8741627  37.6821823
  47.9363823  20.0681572  42.3953438  46.7908897  20.1898098  42.8342934
  48.9376907  19.7936630  43.2152061  49.8177223  19.7070446  42.7272110
  48.8750992  19.4356556  44.6092606  47.9371071  19.8153172  45.0144005
  48.6541367  17.8508720  44.7813721  49.5294609  17.3522625  44.3650780
  48.5082855  17.5905838  45.8297386  47.4028435  17.3936291  44.0323143
  46.1446800  17.9321499  44.2883797  45.8794098  18.5794926  45.0168571
  45.2679558  17.2562180  43.5064354  44.2167778  17.4929256  43.4329796
  45.9865875  16.3917885  42.7101364  45.5639458  15.6383829  42.1868286
  47.3017197  16.4520206  43.0596809  48.0840187  15.7683220  42.7647858
  50.0580025  19.9184132  45.5300179  49.7650146  20.1531525  46.7002220
  51.3209114  19.8712215  45.0395164  51.4449615  19.6169624  44.0699501
  52.5551376  20.1443729  45.6943054  52.9708672  19.2281818  46.1136665
  53.6253586  20.5276127  44.6744347  54.5301628  20.8061523  45.2146645
  53.9151764  19.6675396  44.0707970  53.2270584  21.3078613  44.0258484
  52.5071335  21.0840759  46.8798485  53.1180458  20.7002163  47.8711891
  51.8569336  22.2293701  46.8643188  51.6637688  22.5526180  45.9271431
  51.7299118  23.1950474  47.9926529  51.7866287  22.6128654  48.9124069
  52.8429947  24.2679577  47.9966354  52.6875496  24.8479156  48.9063530
  54.2429085  23.5701046  48.2024078  54.5519028  22.8773556  47.4196434
  54.9239006  24.4125080  48.3236809  54.0888023  22.9919491  49.1134987
  53.0627861  25.0966129  46.6804466  52.0937996  25.2011795  46.1923561
  53.5348663  26.0517063  46.9107475  53.5946007  24.5871696  45.8768654
  50.4542007  24.0010071  47.9773178  49.7201805  24.0088959  46.9801025
  50.0308380  24.6409435  49.0845299  50.5822334  24.4547443  49.9099960
  49.1447563  25.7784843  49.0439262  48.2726212  25.4833527  48.4605064
  48.7147102  26.1765842  50.4853706  49.5952263  26.5129852  51.0327454
  48.0597954  27.0339241  50.3299408  47.9918175  25.1128120  51.3056602
  46.6119843  24.8552284  51.2434387  46.0432014  25.3853931  50.4938965
  46.0170898  23.7232304  51.8990288  44.9675903  23.5379543  51.7240257
  46.7692757  22.8872433  52.7772675  46.4478798  22.0083065  53.3163261
  48.0884285  23.1935997  52.8245354  48.8109550  22.5044575  53.2361565
  48.6837196  24.3135738  52.1952057  49.7589264  24.4095974  52.2286034
  49.8201141  26.8590355  48.1475029  50.9125900  27.3174324  48.4613724
  49.1414909  27.4261990  47.0936356  47.8256950  26.9915314  46.5895996
  47.1083260  26.6838245  47.3503876  47.8939476  26.1576881  45.8909225
  47.2469864  28.1771660  45.8924599  46.8750534  28.9462013  46.5694771
  46.4086647  27.9775276  45.2250290  48.4793205  28.7701149  45.2084579
  48.2288933  29.7898350  44.9159508  48.7719383  28.1217632  44.3825531
  49.5118294  28.6583443  46.3383064  50.4087868  28.5345039  45.7314835
  49.5518799  29.8854294  47.1689835  50.3666992  30.8018322  47.0766907
  48.8483467  29.8882294  48.3194923  48.2812576  29.0682697  48.4812965
  48.9456177  30.9686718  49.3229599  48.6780243  31.9383774  48.9032364
  47.7832794  30.7483673  50.2410011  47.8322716  29.8188877  50.8082466
  47.6832047  31.6213741  50.8859406  46.8652191  30.6439648  49.6627541
  50.2350960  31.0823708  50.0417099  50.5022888  32.1202850  50.6667175
  51.0776939  30.0794086  49.9294891  50.7771072  29.2647552  49.4136505
  52.4272842  30.2051449  50.5190201  52.2732201  30.4618454  51.5671005
  52.9957809  28.7560940  50.3903046  52.2077065  28.1183147  50.7906532
  53.0723572  28.5232754  49.3282166  54.1914520  28.4683514  51.2194748
  55.0737839  29.0553436  50.9644699  53.9876480  28.6344109  52.2773018
  54.7263794  27.0096550  50.9443092  53.9080048  26.2897320  50.9357300
  55.0713272  27.0138683  49.9103394  55.8760185  26.4860115  51.8471527
  56.6823616  27.2150192  51.7668076  55.5540123  26.6572475  52.8743324
  56.2720032  25.1267948  51.5379982  57.1852531  24.9744415  51.9415627
  55.6327324  24.4561901  51.9401474  56.4885979  25.0790863  50.5526505
  53.2547836  31.3053226  49.8756256  54.2431564  31.7627640  50.4750557
  52.8786201  31.8217525  48.6913490  52.0951996  31.4024525  48.2112007
  53.5138130  32.8719025  47.9483223  54.5908737  32.7346115  48.0442123
  53.0443649  32.8764343  46.5219193  53.5057449  33.6340256  45.8884468
  53.1839981  31.8731117  46.1195030  51.9991646  33.1856728  46.5169716
  53.1336021  34.3303795  48.4827232  53.8580284  35.2568817  48.2460518
  52.0387573  34.5138283  49.3640251  51.5825882  33.6316605  49.5478554
  51.5861549  35.8423004  49.8725243  51.5844231  36.4970322  49.0010681
  50.1330109  35.6743965  50.4191513  50.1040039  34.9814377  51.2600212
  49.4993896  36.9847488  50.9288979  49.9245110  37.8518448  50.4234123
  48.4195747  37.0108261  50.7825279  49.7544365  37.0821304  51.9841576
  49.2525635  35.2909698  49.1880455  49.6792488  34.4129601  48.7031326
  48.2153625  35.0535126  49.4245453  49.2322960  36.0888824  48.4457321
  52.6334839  36.3696442  50.9279709  52.9405975  37.5449600  50.8386383
  53.2116318  35.4897118  51.7431412  52.7848625  34.5784302  51.8299522
  54.3233299  35.8663979  52.5759277  54.0426178  36.6148071  53.3169975
  54.7620506  34.6104050  53.4725227  54.7480354  33.6987190  52.8752518
  55.8020515  34.7923622  53.7434273  53.9470596  34.4169312  54.7713165
  53.9540672  35.2471809  55.4775314  52.9248123  34.2105217  54.4542885
  54.4001389  33.2424965  55.6326828  55.4518356  33.3873901  55.8797302
  53.9160728  33.3525009  56.6030846  54.1034813  31.8871193  55.2042770
  54.9162254  31.2882633  55.1739311  52.9595261  31.3881321  54.9587898
  51.8084183  32.0010300  55.3021088  50.9664536  31.5992718  54.9150810
  51.8621178  32.8310165  55.8751183  52.9023285  30.3139725  54.2581749
  51.9930916  29.8798389  54.1880455  53.7943077  29.9407978  53.9662628
  55.5880165  36.4039993  51.8732376  56.3311920  37.0816536  52.5107117
  55.8655396  36.1154137  50.6075668  55.1973953  35.6203194  50.0343628
  57.1567917  36.4987679  49.9169159  57.9093323  35.9525414  50.4856148
  56.9940834  35.9488525  48.4739685  56.0355301  36.2804642  48.0748329
  57.7285194  36.4960022  47.8829231  57.0923386  34.3647842  48.4287949
  56.4346085  33.8333817  49.1166191  56.6734200  34.0580597  47.4703941
  58.5041580  33.9411812  48.5257912  59.2432327  34.4020271  47.6671104
  58.9615936  33.1417542  49.3966560  57.5128479  38.0403061  49.8679314
  58.6689339  38.3583221  49.9307175  56.4569893  38.8924294  49.9220848
  55.5981407  38.3789520  50.0592575  56.4970894  40.2841263  49.7525444
  57.5064545  40.5993347  49.4881020  55.3947182  40.7153053  48.7229538
  54.4362144  40.4051476  49.1390953  55.2786865  41.7787132  48.5136566
  55.3931351  39.9390640  47.3645134  55.4960251  38.8593483  47.4728203
  54.0525818  40.2038574  46.7099380  53.8737335  39.7196007  45.7499352
  53.2668991  39.8420792  47.3732033  53.8608360  41.2705650  46.5938530
  56.5257912  40.3002892  46.4553070  56.1292801  40.3840904  45.4434509
  57.1270752  41.1500244  46.7785835  57.2637711  39.4995422  46.4073601
  56.2287788  40.9630241  51.1027756  55.5181885  40.4382019  51.9520111
  56.8307228  42.1459236  51.4296761  57.2322845  42.5714264  50.6063957
  56.8740807  42.8231697  52.6781998  57.3207016  42.2091255  53.4602356
  57.7943840  44.0909233  52.7940445  58.8229980  43.9106483  52.4817085
  57.3611641  44.7763062  52.0655708  57.7676468  44.6657181  54.0504837
  58.4188423  44.1860352  54.5676384  55.4071426  43.1488457  53.1005440
  54.6214714  43.5639420  52.2478981  54.9942017  42.9127502  54.3267136
  55.6308441  42.5481186  55.0208511  53.7068443  43.3682747  54.7992439
  53.7521744  43.5049133  55.8796959  53.4870224  44.2572861  54.2081070
  52.5201340  42.4398003  54.4922256  51.5614166  42.4816551  55.2132835
  52.6040611  41.6067657  53.4620895  53.4504204  41.6091080  52.9109344
  51.4996986  40.7615776  53.0039825  50.6005058  41.3729401  52.9278793
  51.8372841  40.2555809  51.5512695  52.8752441  39.9229126  51.5597954
  51.2282639  39.3679314  51.3801727  51.6299896  41.1697426  50.4429932
  52.5433311  42.0277824  49.9880028  53.5322990  42.0776176  50.4191360
  51.9543686  42.9112625  49.1220055  52.4150543  43.6922073  48.6770439
  50.6071167  42.5617027  48.9383812  49.5717201  43.1103325  48.1109657
  49.7213554  44.0561371  47.6115036  48.3223915  42.5391121  48.0876312
  47.5616150  42.8843231  47.4032021  48.1103096  41.4498329  48.9452477
  47.1151428  41.0332565  48.9953156  49.0893211  40.8978195  49.8563538
  48.8505020  40.0607719  50.4956627  50.3985901  41.4220352  49.7559738
  51.2415161  39.6264877  53.9883270  50.1528702  39.0010071  53.9504814
  52.1149406  39.3074150  54.8977318  53.0388451  39.7154083  54.9044456
  51.9915657  38.2498741  55.9103928  51.9407043  37.2925072  55.3917694
  53.2623138  38.0908775  56.7740974  53.1920853  37.1349297  57.2930717
  54.1375465  38.0535545  56.1254997  53.5817490  39.1458969  57.7865639
  52.6498871  39.4331779  58.2735977  54.1144218  38.6649055  58.6069336
  54.4224281  40.3576775  57.3415298  54.2708168  40.9413376  56.2858315
  55.3912468  40.7854881  58.0448608  55.7753525  41.6947136  57.8306732
  55.7268219  40.2576218  58.8378601  50.7098427  38.4067497  56.7696648
  50.2604485  37.3990250  57.2192955  50.2834396  39.6796112  56.9037971
  50.7225723  40.3775330  56.3205566  49.0985565  40.0447884  57.7148628
  48.9352379  39.3067513  58.5001869  49.4029503  41.4377213  58.3329277
  49.5733109  42.1424255  57.5190048  48.4518700  41.6878662  58.8030090
  50.5822105  41.3828545  59.3128662  50.5730362  40.6076508  60.4770203
  49.7028770  39.9995193  60.6755028  51.6505661  40.6205940  61.4063454
  51.6453629  40.0560379  62.3270226  52.8313828  41.3840370  61.0596962
  53.9488792  41.1705551  61.8001442  54.7534981  41.4109039  61.3349304
  52.9045677  42.0562019  59.8084793  53.8536339  42.4440727  59.4690247
  51.7033501  42.1484146  59.0350456  51.7961426  42.6792488  58.0990944
  47.7608376  39.9426575  56.8852997  46.7203445  40.3220634  57.4321136
  47.7895203  39.5277901  55.6718483  48.6350441  39.5902061  55.1229439
  46.5889778  39.4506264  54.7979546  45.8774567  40.2058296  55.1318855
  46.9928246  39.6602135  53.2951584  47.8534546  39.0272560  53.0788689
  45.8314781  39.3599625  52.3139915  45.5192337  38.3193169  52.4015007
  44.9883118  40.0385323  52.4432755  46.2757912  39.6172142  51.3524818
  47.3819046  41.0938644  53.1378250  46.5360489  41.7645073  53.2890854
  48.1030693  41.3935165  53.8982391  47.7724533  41.2685089  52.1352921
  45.7531548  38.1480255  54.9598083  46.2750626  37.0494118  54.8914680
  44.4270363  38.1426277  55.2800026  43.7141685  39.2789268  55.7472801
  43.7616501  40.0347900  54.9633675  43.9890785  39.7044182  56.7124138
  42.3020821  38.8304062  55.7730751  41.8601074  38.9775009  54.7876205
  41.7523880  39.4692078  56.4643555  42.4116402  37.3381233  56.1301155
  41.5465660  36.8301506  55.7038460  42.5699654  37.2229271  57.2023849
  43.6485596  36.8408508  55.4863052  44.0914650  36.2634163  56.2977905
  43.4183540  36.0678558  54.1638756  42.7548828  36.4838524  53.2435112
  43.8976555  34.7457581  54.0985527  44.2746162  34.3873329  54.9643059
  43.7290382  33.8030014  52.9025574  42.9231491  34.1304970  52.2457542
  45.0270767  33.5825005  52.1503792  45.5287247  32.6780090  52.4943962
  44.8972435  33.4323082  50.5863037  44.2904892  34.2613258  50.2220421
  45.9608803  33.4617386  50.3498497  44.4849434  32.4954109  50.2116928
  46.0051956  34.6957817  52.3497887  46.1779594  34.8857536  53.4091072
  46.9862061  34.5824089  51.8884125  45.5407104  35.5955582  51.9463577
  43.1999969  32.3488884  53.2602386  43.2299118  31.9801331  54.4700241
  42.6016884  31.6839714  52.2811775  42.6368332  32.2593651  51.4518433
  42.3351097  30.2091331  52.2496605  43.0838470  29.6852551  52.8438377
  40.9136276  29.8053780  52.6949768  40.7766113  28.8514805  52.1856575
  40.8886032  29.6828175  54.2293320  40.8431244  30.6889420  54.6461525
  40.0528908  29.0653629  54.5586205  41.7672729  29.2234974  54.6821785
  39.9409904  30.7825947  52.4431877  39.8572197  30.9494152  51.5015106
  42.4371681  29.7033138  50.7804260  42.3287735  30.4978256  49.8674431
  42.7964783  28.4389763  50.5535126  42.9492760  27.8058300  51.3254433
  42.8693924  27.8386421  49.1861382  42.9515495  28.6814575  48.4998360
  44.2109985  27.0571136  49.0426674  44.3259010  26.2281456  49.7410278
  44.2375336  26.5184441  48.0954399  45.6167221  28.2081394  49.1884880
  45.7795525  28.0340652  50.5030518  41.5982895  27.1231060  48.7597122
  41.3386841  26.0041924  49.2029991  40.9083977  27.7372723  47.8063469
  41.3755798  28.4750423  47.2988701  39.6816063  27.0931129  47.3062019
  39.1075172  26.7518883  48.1676483  38.8757782  28.0720692  46.3949165
  39.4902763  28.3665600  45.5441742  37.9862366  27.5704918  46.0138168
  38.5847626  29.3979645  47.0501938  37.9015999  29.2033253  47.8769379
  39.4586334  29.8846760  47.4832802  37.9271393  30.6812935  45.9399948
  39.4223251  30.9742451  44.9855652  39.3519440  31.8805161  44.3840485
  40.2851448  31.1380882  45.6311607  39.6261520  30.0986557  44.3692055
  40.0003853  25.8345070  46.5440826  40.9050102  25.7714176  45.7620125
  39.2725334  24.7464619  46.7889671  38.7437553  24.6112995  47.6388054
  39.2817459  23.5673618  45.9296341  40.3446198  23.3432446  45.8392220
  38.5689926  22.3196640  46.5950165  39.1285706  21.9932232  47.4716072
  37.6507683  22.6909828  47.0500793  38.3473892  21.1049175  45.6966209
  37.7840614  20.3725967  46.2749557  37.6125832  21.3888226  44.9432526
  39.5787888  20.3530502  45.1831169  40.4492683  20.0237904  45.8914223
  39.5673752  20.1635685  43.8906708  38.8930435  20.5041466  43.2203026
  40.3447266  19.6311588  43.5268478  38.6154442  23.8322926  44.5650444
  37.4726639  24.3366375  44.5573959  39.2242126  23.4191761  43.4535446
  40.1630783  23.0469456  43.4449196  38.5840759  23.5887775  42.1837578
  38.1354866  24.5817814  42.2122383  39.6923409  23.6746006  41.1377258
  40.5181847  24.3174591  41.4423828  40.0849113  22.6577988  41.1276894
  39.1937180  24.1511745  39.7410240  39.8953781  23.7184944  39.0278854
  38.2371178  23.6803188  39.5144920  38.9776001  25.6938953  39.5703506
  38.1565742  26.2723446  40.3192520  39.7164192  26.4415112  38.8392754
  37.5073662  22.5171146  41.9064789  37.8298988  21.3191566  42.1294365
  36.3383942  22.8938618  41.3261147  36.0467186  23.8585415  41.2596359
  35.4871445  21.8929806  40.6893616  35.5011482  21.1025772  41.4398041
  33.9825478  22.3883419  40.4447517  33.3865433  21.4893131  40.2878151
  33.5283623  22.7369461  41.3722725  33.8624802  23.4298058  39.3355103
  34.7330322  24.0853615  39.3575745  34.0098267  22.9438057  38.3710442
  32.1951828  24.2583313  39.4363556  31.1890984  23.0276852  38.6353226
  30.1808128  23.4415607  38.6221390  31.5039482  23.0345898  37.5918083
  31.1681099  22.0485458  39.1138077  36.1441040  21.3623104  39.3584442
  36.6087379  22.1569214  38.5343933  36.1187706  20.0340996  39.2153435
  35.9859924  19.4670696  40.0405388  36.6260338  19.3181725  38.0615654
  37.5971489  19.7151928  37.7659187  36.8803101  17.8711491  38.5914764
  37.6222115  17.9854393  39.3818054  35.9634895  17.4963741  39.0465469
  37.2633286  16.8283176  37.4839706  37.1077461  15.6181526  37.7864838
  37.6780968  17.1820145  36.3214874  35.7272949  19.3890133  36.8157654
  34.7707024  18.6018791  36.7403564  35.7911148  20.5460701  36.1621246
  36.5557899  21.1763172  36.3574677  35.1212578  20.8797302  34.8889656
  34.0872002  20.5350723  34.8826637  34.8972549  22.3594666  34.7813683
  35.7052040  22.8742065  35.3013306  34.7452354  22.8834400  33.3311920
  35.5393906  22.4845371  32.7000885  33.8133011  22.5853691  32.8508339
  34.7808914  23.9727154  33.3136444  33.5685310  22.5527706  35.5515404
  32.7427826  22.2165165  34.9245033  33.5370445  22.0659504  36.5262794
  33.4176979  23.6095600  35.7718964  35.7997665  20.2406826  33.7143478
  36.9824409  20.1388168  33.7103996  35.0256310  19.8017159  32.7310944
  34.0407677  19.9928112  32.8478355  35.3869247  19.1186504  31.4601097
  36.2987022  18.5620689  31.6768627  34.3390923  18.1835403  30.8909588
  34.6677475  17.9481258  29.8787003  34.1716919  16.9089298  31.6788845
  33.9778976  17.1342335  32.7275925  33.2563248  16.4078388  31.3640575
  35.1194344  16.3770065  31.5955524  33.0501900  18.7270336  30.9394512
  32.9998474  19.0658169  31.8362751  35.6154175  20.3060913  30.4987850
  34.9028587  21.3457489  30.4011536  36.7254448  20.0920467  29.8056927
  37.0686951  19.1478195  29.9092007  37.0711403  20.9749641  28.7263737
  37.7131844  20.3747082  28.0817242  36.1430168  21.2421150  28.2210827
  37.7885208  22.3135986  29.1842651  38.2216721  23.1469688  28.3366432
  37.9675903  22.4785271  30.5261192  37.5611115  21.7496471  31.0949860
  38.6496010  23.6269836  31.0935535  38.4325066  24.4882946  30.4618015
  38.2664909  23.7386951  32.1078758  40.1523819  23.5264530  30.9965076
  40.7180367  22.4933720  30.5965061  40.8596611  24.6576748  31.1108761
  40.4349022  25.5582104  31.2803478  42.3026237  24.6542530  31.1205730
  42.6073799  24.1349068  30.2119980  42.8157425  26.0693607  31.2046871
  42.3962212  26.7186146  30.4361992  42.6973953  26.4626446  32.2143517
  44.3746223  26.1625061  30.8931847  44.8954163  25.4630394  31.5471115
  44.7612953  25.8643227  29.5021801  45.8242798  25.9842358  29.2929249
  44.4482994  24.8382702  29.3089218  44.2473640  26.5202312  28.7995033
  44.6622505  27.6336784  31.2318630  44.1592331  28.3853703  30.6235580
  44.4627113  27.8557625  32.2801781  45.7011871  27.9457989  31.1255951
  43.0695648  23.8478241  32.2668037  42.7963104  23.9813595  33.4368591
  44.1083336  23.1224995  31.8689499  44.2914467  23.0985184  30.8759766
  44.9376869  22.2919178  32.7806702  44.3263664  21.9335079  33.6088867
  45.2562485  20.9858170  32.0679245  45.7767982  21.1189919  31.1195602
  46.0615120  20.5386505  32.6507568  44.0244370  20.1074562  32.0122795
  43.6933022  19.8084850  33.0067978  43.2121658  20.6745930  31.5576687
  44.2650185  18.7612438  31.2322464  43.4395752  18.1050377  31.5081692
  44.3423042  19.0913067  30.1963005  45.5186920  18.0273361  31.6047649
  45.5684052  17.1671982  30.9370861  46.4532585  18.5664291  31.4496307
  45.4854622  17.5618134  32.9847870  46.3694839  17.1905823  33.3022728
  45.3705864  18.3509197  33.6046410  44.7888832  16.8367901  33.0807915
  46.1444626  22.9976463  33.4321442  46.7439270  23.8992577  32.8399277
  46.5216675  22.5539474  34.6512108  46.0860367  21.7237587  35.0268631
  47.6270523  23.0551357  35.5758247  47.4903030  22.6458149  36.5767517
  49.0130768  22.5348625  35.0843964  49.2088814  23.0338135  34.1352882
  49.7642021  22.8086281  35.8253212  49.1292381  21.0130882  34.9133072
  48.9199600  20.4940414  35.8486633  48.4514503  20.6204376  34.1553268
  50.5130463  20.5202255  34.4177513  50.7089577  21.0810146  33.5038338
  51.2395401  20.7436008  35.1990395  50.4071846  19.0212288  34.0350113
  50.0732040  18.4520245  34.9025154  49.6121864  18.8807468  33.3026581
  51.6488533  18.6055107  33.4070969  51.8243713  19.1919289  32.6037254
  52.4763908  18.6160660  33.9860420  51.5820389  17.7079010  32.9489098
  47.6801224  24.5300140  35.7165489  48.6993256  25.1913261  35.6222191
  46.5035667  25.1249619  35.9579086  45.6678162  24.5781460  36.1082916
  46.3089256  26.5185413  36.1872787  47.1553688  27.1030846  35.8268013
  44.9680481  26.9906921  35.4545975  44.8380470  26.5896645  34.4494247
  44.0839272  26.7638378  36.0503883  44.8893814  28.7805023  35.3497658
  44.4643669  28.8359375  36.6151505  46.2661171  26.9056816  37.6910667
  45.6375885  26.2085953  38.4188881  46.8943367  28.0604687  38.0626411
  47.3506393  28.6322975  37.3662949  46.6531219  28.7117901  39.3430977
  46.1242371  28.1361065  40.1026840  47.9772873  28.9738064  40.0894814
  48.5805931  29.6585484  39.4934502  47.8193893  29.4945049  41.5062866
  47.3757172  30.4895439  41.4723282  47.3322372  28.7121944  42.0883293
  48.8350563  29.6898117  41.8503418  48.8992157  27.7220764  40.3145485
  48.7564392  27.2342815  41.2787971  48.6043167  27.0637951  39.4973526
  50.4515419  27.8862514  40.0890503  50.7855415  28.2328796  39.1110992
  50.8497887  28.5204754  40.8810463  50.9370651  26.9475842  40.3560143
  45.6854439  29.9053326  39.1738930  45.7714767  30.5875645  38.1718140
  44.8847275  30.1119938  40.1733131  44.9011269  29.4762821  40.9579773
  43.9484825  31.2633228  40.2158165  44.0759048  31.9404564  39.3712120
  42.5072556  30.7311058  40.1575432  42.3694077  30.0702286  41.0133095
  41.8737602  31.6134434  40.2484474  42.1747856  30.0039921  38.8588829
  42.5679703  30.6448956  38.0697365  42.5837479  28.9939804  38.8858109
  40.6327515  29.8319168  38.6067200  40.1683769  30.8156796  38.5383835
  40.4115028  29.3724804  37.6433601  39.9007492  29.0993500  39.7346535
  39.9447403  28.1008320  39.5893021  39.1236343  29.6748486  40.6643410
  38.8534927  30.9258671  40.7887726  38.0150757  31.1374950  41.3106651
  39.3157806  31.5181599  40.1138039  38.5060730  28.9229584  41.5003204
  37.8186569  29.2140388  42.1806374  38.6424789  27.9417973  41.3033028
  44.1240387  32.0278091  41.4809532  44.3674507  31.4864750  42.5678139
  43.8082275  33.2968216  41.3783951  43.7706070  33.6448822  40.4310112
  43.7592583  34.2880478  42.4455566  43.7055702  33.8748169  43.4527588
  44.9158096  35.3045578  42.3106804  44.9022903  35.8045464  41.3422127
  44.8110352  36.2105408  43.5888023  44.6917839  35.5779648  44.4684181
  45.7751236  36.6772461  43.7908363  44.0424309  36.9469719  43.3542595
  46.2161522  34.4613380  42.4074059  46.0519676  33.7800446  43.2422562
  46.2234459  33.8334694  41.5164337  47.1599464  35.0066376  42.4060059
  42.4174385  35.1068001  42.3825569  41.9089012  35.4344215  41.2946472
  41.9353676  35.5517731  43.4912872  42.3867378  35.2250443  44.3336716
  40.8438492  36.5371246  43.6702766  40.8466873  37.2154236  42.8170395
  39.4182014  35.8978271  43.8653831  39.2425461  35.4209785  42.9010925
  39.5833015  35.1650658  44.6552582  38.3250694  36.9275360  44.3522110
  38.5742569  36.9819832  45.4119492  38.4786034  37.8668480  43.8209724
  36.5879478  36.2885895  44.2992516  35.6144371  37.5581055  44.9902229
  35.9270287  37.6545029  46.0299759  35.7213249  38.3740425  44.2754326
  34.5412025  37.3955307  44.8910408  41.2064056  37.3409233  44.9164886
  41.5967445  36.7895508  45.9548874  41.2323990  38.6721497  44.7570229
  41.1163788  39.1399689  43.8694496  41.6119270  39.6460228  45.8328285
  41.5946045  39.1543884  46.8055038  43.0626183  40.1890831  45.5346260
  43.7933693  39.4073029  45.3274460  42.9741440  40.8923302  44.7065468
  43.5508423  41.0576897  46.7598991  42.7108498  41.6212845  47.1659546
  43.8060646  40.3462524  47.5452766  45.0241356  42.1370583  46.4378014
  44.5816650  42.9590530  44.8622704  43.6336899  43.4516258  45.0786552
  45.3301048  43.7267151  44.6657143  44.5727539  42.2344704  44.0480270
  40.6111298  40.7668304  46.0075378  40.1298943  41.2693062  45.0200043
  40.1573410  41.0790825  47.2606392  40.6631279  40.7222252  48.0587196
  39.1654396  42.1293907  47.5701637  38.9665375  42.6105347  46.6125374
  37.8213959  41.4611969  48.0498161  38.0118294  40.7406616  48.8452187
  36.6578636  42.3922577  48.3703880  36.4368362  43.0299492  47.5144691
  35.8138618  41.7708244  48.6696968  36.7783890  43.0582695  49.2247849
  37.3046112  40.7987823  46.9225883  36.7422180  40.0966949  47.2578354
  39.6817589  43.2034035  48.6131592  40.4518242  42.8341522  49.5039673
  39.4697113  44.4849358  48.2429771  38.6928940  44.7261772  47.6442642
  40.4543152  45.5481911  48.5091324  40.6820412  45.4827271  49.5730705
  41.6396294  45.3969269  47.5244904  42.0776138  44.4174118  47.7163773
  41.3030853  45.5020828  46.0493088  40.6321487  44.7028275  45.7344437
  40.8152466  46.4664345  45.9073868  42.2082291  45.4228897  45.4471970
  42.7181358  46.5259857  47.8324051  43.1484871  46.5128555  48.8337669
  43.4886436  46.4276009  47.0677261  42.2371559  47.4680252  47.5691032
  39.6869392  46.8498573  48.4482613  38.6671906  46.9352722  47.7654724
  40.0547142  47.8250237  49.2886772  40.8315468  47.6344490  49.9053688
  39.5789146  49.2359428  49.3286819  38.5247459  49.2297096  49.0515747
  39.8167229  49.7984276  50.7402725  39.2703667  49.2332611  51.4953766
  40.9048958  49.7510796  50.7819901  39.3735428  51.2729073  50.8783150
  40.0536385  51.9622574  50.3779526  38.4264259  51.2997169  50.3394737
  39.0511055  51.7844353  52.2592926  38.0621490  52.4533691  52.3812141
  39.8721466  51.4758987  53.2554321  39.6592331  51.6693153  54.2236023
  40.7074509  50.9411125  53.0647278  40.2042084  50.0240097  48.1947708
  41.4137840  50.0988998  48.0616646  39.4031410  50.5679092  47.3547478
  38.4348373  50.3539467  47.5463448  39.7243538  51.2814331  46.0411758
  40.6981583  51.7524223  46.1752434  39.8481178  50.2163200  44.9584656
  40.5258026  49.4863281  45.4011307  38.5910034  49.5240517  44.6565590
  38.7042427  48.5855064  44.1139641  38.0690994  49.2488899  45.5730782
  37.8874779  50.1501045  44.1077271  40.4582214  50.5435028  43.7489700
  41.0581665  51.2480965  44.0043335  38.7013321  52.3433800  45.5522652
  37.5486259  52.4333496  45.9778976  39.1356277  53.1572380  44.5700607
  40.1216393  53.1189461  44.3546143  38.5169449  54.2106895  43.8310204
  37.4764595  54.1255493  44.1444511  39.0572090  55.6059990  44.2040138
  38.3549919  56.3618927  43.8524284  39.0506859  55.6757584  45.2917595
  40.4419632  55.8910179  43.8314285  41.2489166  55.0847282  43.2587738
  40.8446045  57.0803680  44.0432625  38.4662552  53.9665451  42.2708168
  37.7809792  54.6976738  41.5308495  39.2050514  52.9466934  41.7987175
  39.5855751  52.2751884  42.4501686  38.9814796  52.4153061  40.4302902
  39.0819016  53.2537422  39.7410583  39.9118042  51.2245712  39.9897346
  39.7801132  50.3165779  40.5782089  39.9224930  50.9075317  38.4510651
  40.7182770  50.1936455  38.2384834  39.0529938  50.2841072  38.2427025
  39.8975906  51.7740517  37.7902946  41.3550797  51.6986618  40.3916092
  41.6834412  52.6608467  39.9985733  41.4687042  51.6753197  41.4754181
  41.9935799  50.9942894  39.8584290  37.5040359  51.9046097  40.0975609
  37.2022018  50.8811150  40.7533798  36.8013954  52.5031319  39.1355057
  37.2287445  53.6420021  38.3268852  37.9231606  53.2518539  37.5827942
  37.6141243  54.4336128  38.9694862  35.9856567  53.9967003  37.6189194
  36.1920204  54.3107300  36.5957375  35.4544373  54.7568932  38.1916428
  35.1110458  52.7299957  37.5005188  35.3008575  52.1539879  36.5948296
  34.0360260  52.8716545  37.6117325  35.4601135  51.9726105  38.7965851
  34.7925911  52.2107048  39.6247292  35.3508644  50.5163193  38.4462624
  36.3304214  49.9329071  37.9136620  34.1964226  49.8591003  38.6499939
  33.4515800  50.4102211  39.0519600  34.0624237  48.4266205  38.4925079
  34.7391701  47.9704094  39.2149963  32.6895103  48.0725441  38.9139595
  32.3424835  48.5093117  39.8503914  32.0144005  48.4282036  38.1356049
  32.5233154  46.5048637  39.0683136  32.5779381  46.0454674  38.0813599
  33.1650963  46.0036888  39.7929115  31.1023331  46.3175278  39.5321999
  30.1896248  46.5996246  38.8095055  30.8059559  45.6505508  40.6322021
  31.5388832  45.4202614  41.2878609  29.8206844  45.6984749  40.8491058
  34.3908920  47.9796181  37.0702782  35.1449699  46.9658928  36.9738731
  33.9488792  48.6876831  35.9629745  33.3941917  49.5177460  36.1160011
  34.3450356  48.2600174  34.5638161  34.2397156  47.1798401  34.4626465
  33.3473511  48.8587608  33.6466064  33.4286499  48.4003525  32.6610374
  32.3591080  48.4903984  33.9218941  33.2685966  50.3988609  33.6817474
  33.2241516  50.9650116  34.7903137  33.4837036  50.9686661  32.6029358
  35.7802544  48.6554298  34.1684151  36.1758499  48.4140472  33.0297356
  36.4922256  49.4485512  34.9947891  36.0549011  49.7358055  35.8586922
  37.9214821  49.8539276  34.8135948  38.1374702  49.7586212  33.7494698
  38.0459480  51.3717384  35.1750450  37.9169540  51.4629326  36.2535362
  39.1250191  51.4609261  35.0494766  37.2325172  52.3176155  34.3237534
  36.1648750  52.0979767  34.3247108  37.3454666  53.2626648  34.8549995
  37.7462044  52.7504768  32.9282722  38.9857101  52.7148590  32.7560387
  36.9123497  53.0785904  31.9139366  35.9246712  52.8887901  32.0065193
  37.2501831  53.0783310  30.9621124  38.9498138  48.9913864  35.4714241
  40.1573563  49.2093277  35.2554474  38.5337524  48.0159225  36.3055840
  37.5611305  47.9878769  36.5763588  39.5443382  47.1519585  36.8563576
  40.3085136  47.7528572  37.3493690  38.9545403  46.2682610  37.9710388
  38.2601776  45.5546227  37.5275497  40.0149727  45.3945656  38.5621529
  40.1840210  44.5685310  37.8713646  40.9926491  45.8613205  38.6821098
  39.7012177  45.0185852  39.5359573  38.2981796  47.0461273  39.1667480
  39.1235733  47.3214989  39.8232498  37.8421097  48.0020981  38.9094009
  37.2892723  46.2293739  39.9378357  37.6377258  45.2026062  40.0492630
  36.9742775  46.7691612  40.8308678  36.3673134  46.1158943  39.3675537
  40.2260780  46.2585678  35.8361664  39.6956406  45.5471916  34.9685898
  41.5699692  46.2790604  35.9867210  41.9566803  47.0251808  36.5469513
  42.5723648  45.3972244  35.3306465  42.2446632  45.3310852  34.2931786
  43.9827385  46.0154533  35.3410339  44.2210960  46.2375107  36.3812180
  44.6559906  45.2065620  35.0572586  44.1112900  47.1363029  34.3314400
  43.7800484  46.8332710  33.3381844  43.3859062  47.9017258  34.6072311
  45.4951134  47.8679543  34.2796288  45.5890694  48.3179703  35.2679367
  46.2232437  47.0703316  34.1322136  45.6763687  49.0143661  33.3220177
  44.8060951  49.4627113  33.0735893  46.7109184  49.3503838  32.6235733
  47.7808914  48.6319008  32.6457977  48.5083885  49.0523605  32.0853806
  47.8736763  47.8083191  33.2230339  46.7451401  50.4503403  31.8895626
  45.8486443  50.9069443  31.8006611  47.3381805  50.4754906  31.0723896
  42.7535172  43.9946022  36.0740051  43.5557213  43.8758469  37.0248642
  41.9853210  43.0169220  35.5963516  41.4812241  43.1179047  34.7269897
  42.0289154  41.6204338  36.0878181  42.2167778  41.5496597  37.1591682
  40.6277885  40.9074326  35.8895569  40.4081573  40.8823433  34.8222084
  40.6863441  39.8835678  36.2588463  39.4937325  41.5046349  36.5642357
  39.3451347  41.4969635  37.9389572  38.1653061  42.1125641  38.1363792
  37.9676819  42.4614639  39.1391830  37.6803360  42.5651016  36.9364014
  36.8508224  43.1017647  36.7266426  38.5017052  42.1468468  35.9546471
  38.3406982  42.3433304  34.9049492  43.2248116  40.9667931  35.2605896
  43.4758720  41.4271393  34.1297684  43.8794670  39.9421959  35.6732941
  43.5525284  39.5642662  36.5510063  45.3356552  39.7073174  35.3225632
  45.5465012  40.3751755  34.4873314  46.3215332  40.1069374  36.4174271
  46.0740852  39.4710541  37.2674370  47.7968712  40.0294838  35.8700142
  48.1197205  40.6736526  35.0521431  48.4232788  40.3680840  36.6952782
  47.9444733  38.9844437  35.5976067  46.2259750  41.5916252  36.7908745
  46.0502472  42.3032837  35.9841766  45.3913155  41.7521591  37.4732742
  47.1377716  41.9245033  37.2867851  45.6249733  38.2468109  35.0015335
  45.8572083  37.4475822  35.9049530  45.6928291  37.8449936  33.7412720
  45.5179634  38.5723495  33.0626869  45.7129097  36.5389366  33.1469460
  45.6631699  35.8985329  34.0275726  44.4222794  36.3904991  32.3652420
  44.2773438  37.2816811  31.7545967  44.5234528  35.5401764  31.6908417
  43.2742348  36.0918579  33.3199997  42.8391342  34.8284912  33.5088654
  43.2909546  34.0201263  32.9531631  41.8167114  34.4892464  34.3729019
  41.4836769  33.4648819  34.4515190  41.2448654  35.5080376  35.2474480
  40.3182640  35.3339386  36.1746101  40.1286354  34.4073944  36.3394279
  41.6868553  36.8374557  35.0383339  41.3447380  37.6811295  35.6193504
  42.6937523  37.1393776  34.0882072  42.9211349  38.1881752  33.9668770
  47.0113258  36.3307800  32.3319130  47.2729912  37.2314949  31.5322571
  47.7564125  35.2091751  32.5068893  47.5792351  34.5402794  33.2426109
  49.1018715  35.1630325  31.9803295  49.2604675  35.8383789  31.1395817
  50.1099129  35.3158531  33.1866417  49.9484940  34.4509773  33.8300972
  51.1628151  35.2390900  32.9153252  49.8869858  36.6364899  34.0347137
  48.8499069  36.8248444  34.3123703  50.7502823  36.5572739  35.3053093
  50.5971260  37.4378014  35.9292679  50.3745461  35.7598038  35.9463730
  51.7948914  36.5182495  34.9964867  50.4026527  37.8965378  33.2749062
  51.4901009  37.8357925  33.2316551  50.0271835  37.8530350  32.2525444
  50.1654930  38.7860184  33.8585892  49.2648125  33.7473755  31.3959255
  48.4179230  32.9280014  31.6191673  50.4618301  33.4976158  30.8134995
  51.0930519  34.2803841  30.9079990  50.9272919  32.2383957  30.2740707
  51.8123016  32.4499054  29.6739712  51.3433571  31.3090134  31.4256306
  50.5106163  30.9148655  32.0081139  51.8996735  30.5024452  30.9480705
  52.3476448  31.9873371  32.4688721  51.9333572  32.8998947  32.8974762
  52.6037560  31.3098106  33.2834053  53.7538528  32.3959999  31.9187908
  54.2889557  31.6263390  31.1251507  54.2100372  33.5149765  32.2377701
  49.8958435  31.6161137  29.3898716  49.4187927  32.2897797  28.4301052
  49.3753014  30.4120846  29.6612988  49.8736687  29.8459892  30.3330631
  48.2346268  29.7157822  28.9963684  48.2034683  30.0607319  27.9628563
  48.4816208  28.1658421  28.9213829  48.4664612  27.6914139  29.9026012
  47.6904106  27.6827717  28.3480320  49.7468376  27.7703648  28.2578983
  49.7116928  27.8991127  27.1760998  50.5270767  28.3809700  28.7123127
  50.2191963  26.3428307  28.6014481  50.3813782  26.2729111  29.6770458
  49.4287872  25.6985455  28.2164154  51.5520554  25.9716854  27.8015327
  51.2134819  25.9247036  26.7665138  52.3010674  26.7563171  27.9084644
  52.2513847  24.7755108  28.2944050  53.0534859  24.5476551  27.7244778
  52.6714935  24.9100571  29.2029819  51.6098480  23.9968376  28.2475433
  46.7765732  30.0104084  29.4464741  45.8815765  29.7149029  28.7138405
  46.6150894  30.6360397  30.6157188  47.4537086  31.0109291  31.0355682
  45.3573036  31.1077461  31.3312778  44.7122116  30.2291412  31.3342953
  45.7323608  31.4512405  32.7416954  44.9128342  31.4640217  33.4602509
  46.4710541  30.7593842  33.1463776  46.1231766  32.4662857  32.6706429
  44.7021828  32.2221642  30.5944061  43.5607109  32.5451965  30.9424477
  45.2953339  32.8234901  29.5324936  46.2154655  32.4781113  29.2997494
  44.8295174  34.0942154  28.9622021  44.6981316  34.8218918  29.7630329
  45.8726578  34.6053734  27.9345913  46.0587158  33.8623047  27.1591339
  45.3929329  35.9075089  27.3521976  44.5988693  35.8151779  26.6112194
  45.0553017  36.5495720  28.1657486  46.2761765  36.2370911  26.8050632
  47.2080345  34.8626251  28.6380253  47.9984283  35.3144836  28.0386982
  47.0348282  35.5859795  29.4348049  47.7204399  33.9667931  28.9887886
  43.4816971  33.8797302  28.2705116  42.5138168  34.6644287  28.4134884
  43.3070030  32.7017632  27.6301155  44.1397896  32.1326561  27.5782738
  42.0873604  32.1482849  27.2061653  41.7803154  32.6943283  26.3141689
  42.2793732  30.6549435  26.7269115  43.0673828  30.6912689  25.9747028
  42.7521706  29.6727257  27.8459435  42.0507660  29.4469357  28.6491508
  43.1392403  28.8199158  27.2882767  43.5928841  30.1238327  28.3730240
  41.0681381  30.0648880  26.0258026  41.2362213  29.0449219  25.6800861
  40.1616478  30.0306950  26.6301270  40.7926941  30.6438904  25.1443348
  40.9244614  32.2451515  28.1922836  39.8294830  32.4208603  27.6799164
  41.1920509  32.1951294  29.4793472  42.1614609  32.0908585  29.7429256
  40.1529808  32.3261566  30.4872131  39.2351799  31.7695580  30.2976227
  40.6707573  31.5505371  31.7487144  41.5135689  32.1510773  32.0909424
  39.8474998  31.6733799  32.4524651  41.1689682  30.0323544  31.6224232
  42.0808716  29.9833355  31.0273361  41.5468369  29.3892517  32.9297104
  40.6476288  29.3035259  33.5397758  41.9043846  28.3804283  32.7234726
  42.3766670  29.9468632  33.3639336  40.0764656  29.2164268  31.0405903
  39.9013481  29.3694954  29.9756908  40.3735504  28.1698971  31.1085587
  39.1458015  29.2993469  31.6019115  39.7117996  33.7763329  30.8768787
  38.7167244  33.9147911  31.6054916  40.4023438  34.8295403  30.3830738
  41.1335487  34.6551781  29.7085075  40.2484932  36.2226524  30.9316578
  40.2560692  36.1948891  32.0212784  41.3020744  37.1217880  30.4101696
  41.4945755  37.9934387  31.0356846  42.2017441  36.5065498  30.3964176
  40.8872375  37.5992813  28.9597816  40.5820465  36.7735901  28.3169804
  40.1435814  38.3930206  29.0308590  42.1372261  38.3821945  28.4075546
  42.2183609  39.2082062  29.1141109  42.9911232  37.7152481  28.2886391
  41.7062492  38.9698524  27.0842381  40.7441864  38.7781296  26.8438625
  42.5712090  39.5256042  26.1294861  43.8628197  39.6729012  26.4263210
  44.0212402  39.5642281  27.4178829  44.4911537  40.1248665  25.7774601
  42.0733414  39.8045807  24.9845295  41.0672188  39.8601341  25.0533543
  42.6319084  40.1463280  24.2155628  38.7994194  36.7484589  30.7114029
  38.0732994  36.3380089  29.7999516  38.3819122  37.7643890  31.4663696
  38.9294472  38.1927452  32.7701569  39.8272552  38.7858009  32.5959969
  39.2677803  37.3735924  33.4046860  37.8727913  38.9873619  33.4949837
  38.2288208  39.6522026  34.2819595  37.1769867  38.2470055  33.8897362
  37.1446457  39.7876930  32.3329544  37.8312416  40.5649757  31.9975109
  36.1549416  40.1666756  32.5878105  37.1270523  38.5958176  31.3395004
  36.3455582  37.9256134  31.6975460  36.7610588  39.0339546  29.8989143
  35.7975311  38.5940018  29.3973446  37.7377777  39.6611404  29.1726513
  38.5105171  40.0435600  29.6987038  37.7773933  40.0025673  27.7104664
  38.6475258  40.5985565  27.4352074  38.0057526  38.7226219  26.9275570
  38.7141190  38.0646095  27.4308815  37.0489540  38.2004776  26.9271717
  38.3790283  38.9520226  25.4643078  37.8787613  38.1543312  24.6135750
  39.3670769  39.6791611  25.1796741  36.4680138  40.7494316  27.2693424
  35.7555618  40.3367462  26.3552094  36.0150299  41.7400742  28.0987301
  36.6115303  41.9835510  28.8765526  34.6608925  42.2605896  28.0747147
  33.9047318  41.5199242  27.8144569  34.2956429  42.8357887  29.4741249
  35.0666389  43.5386734  29.7897511  33.3467026  43.3661957  29.3948269
  34.1464844  41.8708000  30.5857544  35.1034584  41.3787842  30.7596092
  33.7141418  42.5791359  31.8583698  33.7485771  41.9048843  32.7141151
  34.4038811  43.3211136  32.2606544  32.7242126  43.0353127  31.8516045
  33.0779953  40.7633667  30.3234882  32.9623489  40.0416031  31.1320534
  33.5063095  40.1843185  29.5053520  32.1364861  41.1965981  29.9858894
  34.4758530  43.3801041  27.0404701  35.3601227  44.1860619  26.8065777
  33.3307838  43.2642097  26.3848000  32.6080589  42.7900887  26.9072762
  32.8831635  44.2013092  25.3554993  33.7518234  44.7975578  25.0761852
  32.2350006  43.4487762  24.2152824  32.9453697  42.6764297  23.9203968
  31.3055477  43.0107079  24.5790424  31.9740467  44.3078346  23.0556736
  31.6855583  43.7552414  22.3255939  31.8571091  45.2010078  25.9605427
  30.9043884  44.8249664  26.6393814  31.9279156  46.5037155  25.6392822
  32.5329285  46.8060226  24.8891697  30.9300213  47.5200005  26.1664219
  30.6678085  47.2500458  27.1893940  31.6580849  48.8872871  26.1732903
  32.5783043  48.8260498  26.7542782  31.8361092  49.1000023  25.1191750
  30.8122330  50.0950584  26.7980595  29.8281498  50.2278976  26.3485756
  30.6600056  50.0767517  28.2352333  31.5974998  49.9642181  28.7797928
  30.0868034  49.1847687  28.4880276  30.1510868  51.0073318  28.4864750
  31.6260452  51.4002647  26.6177940  31.1179962  52.2988586  26.9678211
  32.6313705  51.3202324  27.0313396  31.7990379  51.4894218  25.5453091
  29.6138096  47.5711594  25.4045582  28.5570240  47.6404877  25.9885044
  29.7480793  47.4300117  24.1157265  30.6753864  47.4714966  23.7176304
  28.5244656  47.3394241  23.2193470  27.9274368  48.2363892  23.3840103
  28.8554401  47.3783455  21.6627789  27.9146690  47.3054657  21.1171112
  29.6840458  48.5782433  21.2659016  30.4909897  48.6124992  21.9978619
  30.0486717  48.5966110  20.2388668  29.0627575  49.4662895  21.3820400
  29.6691761  46.3065414  21.3218651  29.6240883  46.0503616  20.3977757
  27.6538982  46.0816269  23.4666805  26.5978756  45.9839287  22.8963242
  28.1189556  45.1600494  24.2850800  29.0584393  45.2841949  24.6344547
  27.3408966  44.0118599  24.7680035  26.9491577  43.4028740  23.9532776
  28.2284260  42.9857941  25.5777225  28.9879761  42.5635757  24.9197598
  28.7629356  43.5205154  26.3628788  27.5593128  41.7954712  26.2564602
  28.3225403  41.0745697  26.5495205  26.8013401  42.1069832  26.9751663
  26.8167362  40.9405594  25.1691170  25.8521194  41.3576393  24.8798790
  27.4908543  40.9287567  24.3126545  26.4911652  39.4464226  25.5794754
  25.9799957  38.9460106  24.7570400  27.3713818  38.8241425  25.7409897
  25.6469612  39.4940948  26.7920589  25.2543240  38.5686417  26.8894138
  26.1849957  39.5530777  27.6447849  24.8578911  40.1245461  26.7901802
  26.2410545  44.5269737  25.7001286  25.1476173  43.9570198  25.6747971
  26.4547005  45.6005249  26.4662018  27.2867088  46.1677856  26.3882446
  25.4324722  45.9176865  27.3995171  25.0781269  44.9614067  27.7843132
  26.0005989  46.7384148  28.5197124  26.2094021  47.7490425  28.1688194
  25.1909485  46.8089066  29.2460709  27.2545509  46.1526375  29.2065048
  27.2180233  45.2523994  30.0731430  28.4252987  46.6748238  28.8126240
  28.4761944  47.4000473  28.1115093  29.3228397  46.4938316  29.2389584
  24.2559395  46.5837173  26.6854305  24.4007988  47.4414444  25.8204708
  23.0755901  46.1199455  27.0565948  23.1790485  45.2852898  27.6158314
  21.8089199  46.7138901  26.7401638  21.8323803  47.0845909  25.7154064
  20.6988354  45.6056709  26.8409481  19.6959324  46.0318642  26.8663197
  20.8271332  44.5790672  25.7173500  21.6574478  43.8974838  25.9020729
  19.9676399  43.9088326  25.7047195  20.9505062  45.1184196  24.7782135
  20.9189472  44.7944679  27.9764767  20.7470875  45.3191223  28.7618446
  21.5124531  47.9642105  27.5666752  20.7144508  48.7449379  27.1450424
  22.1915379  48.0615158  28.7453861  22.9890060  47.4785271  28.9557858
  21.9350281  49.1224976  29.7917633  21.4816341  49.9440536  29.2371635
  21.1101131  48.7085037  31.0057030  21.5858154  47.9050980  31.5681496
  21.1089973  49.5382118  31.7125893  19.6553402  48.3465691  30.6814861
  19.0004997  48.4960251  31.5399418  19.3331013  49.0527725  29.9162769
  19.5410061  46.9362297  30.1220932  18.4893246  46.6291504  29.5401478
  20.5067558  46.1001549  30.2433548  23.3240471  49.6726685  30.2564011
  24.1797523  48.9049835  30.7574558  23.5143738  50.9679489  30.2180557
  22.7215195  51.5196037  29.9228325  24.6533527  51.7190933  30.7075863
  25.4230042  51.0810738  31.1419582  25.4207458  52.5211372  29.6216621
  24.8892517  53.3407974  29.1381607  26.3634167  52.8515053  30.0579300
  25.8686905  51.7384567  28.4130878  24.9924622  51.2596855  27.9759350
  26.5748672  52.6257782  27.3438129  25.9107609  53.3717880  26.9073029
  27.4439182  53.1410522  27.7528877  26.9337025  52.0658989  26.4801750
  26.6667671  50.5190620  28.7862797  25.9749107  49.8225555  29.2598953
  27.0316010  50.0382233  27.8786507  27.5046520  50.8292122  29.4106674
  24.2010880  52.6343880  31.7646275  25.0497398  52.6590157  32.6940384
  23.1303558  53.3349037  31.7949028  33.7334557  52.9081955  58.3047981
  33.6739120  53.6778259  58.9561272  34.1919174  53.1510201  57.4382248
  32.7978668  52.6686935  58.0091400  34.5419846  51.8281593  58.9594955
  35.4953003  52.2631989  59.2595444  33.7893524  51.3729401  60.1986351
  33.4920845  52.2749481  60.7335320  32.8504295  50.8620186  59.9853745
  34.7788315  50.5177727  61.1156769  35.1522026  49.6612511  60.5543747
  35.5739288  51.1215706  61.5531082  33.8568954  49.8414154  62.4298096
  33.1534271  51.1979828  63.2406693  32.5619011  51.7781677  62.5324478
  32.6125679  50.8227692  64.1094513  33.9916039  51.8243790  63.5459442
  34.7690468  50.6761475  57.9676743  33.8522148  50.0803413  57.4706650
  36.0605583  50.4448357  57.6516266  36.7302551  51.1067352  58.0170059
  36.5741348  49.2592506  56.8913536  36.1514053  49.3225174  55.8886604
  38.0644531  49.4576416  56.7474136  38.2437210  50.4389191  56.3080254
  38.5036469  49.4437675  57.7449188  38.8687401  48.3707085  56.0583878
  39.9245377  48.5987473  56.2046318  38.8405914  47.4146690  56.5811691
  38.4772301  48.1558762  54.2860031  39.8732910  47.0474205  54.0105019
  39.8530884  46.5874290  53.0225258  40.7799072  47.5963936  54.2650108
  39.7750740  46.2566910  54.7542839  36.1588364  47.8992310  57.4528732
  36.1001358  47.7626991  58.6578674  35.9052353  46.9464760  56.5096741
  36.1800423  47.1199417  55.5533829  35.6084328  45.5291214  56.8428879
  35.1239662  45.4026794  57.8110886  34.4561348  45.0762825  55.9134293
  34.3770790  44.0175629  56.1603470  33.1108055  45.7836571  56.3542747
  32.9908066  46.8613853  56.2438278  32.2695312  45.2192383  55.9520416
  33.0523720  45.7399979  57.4418297  34.5287857  45.2281265  54.3376007
  34.0077858  46.1565208  54.1036224  35.5751228  45.4539948  54.1320381
  33.8777466  44.2355728  53.3925552  33.9626160  44.5165291  52.3428116
  34.1940308  43.2192268  53.6272774  32.8321915  44.2728462  53.6983757
  36.8369560  44.6845551  56.7107162  37.5156975  44.6829605  55.6233253
  37.2345619  43.9199219  57.7219810  36.6804848  43.9515572  58.5658417
  38.4110374  43.0955887  57.7741547  38.8862190  43.0682869  56.7935677
  39.4311829  43.7837753  58.7007790  39.1480370  43.7537003  59.7529297
  40.2859993  43.1075401  58.6906853  39.9316063  45.1476517  58.3538628
  40.0638351  45.2429695  57.2761192  39.0952110  45.8139725  58.5649567
  41.1428337  45.5849037  59.1129303  40.8346405  45.6843796  60.1537094
  41.9100304  44.8200150  58.9927063  41.5820656  46.8848190  58.6026955
  41.1076317  47.6971550  58.9702911  42.3451653  47.1449966  57.5712738
  42.8921356  46.3034096  56.7571449  42.6466827  45.3277893  56.8467369
  43.5236511  46.5211716  55.9996071  42.6519775  48.3808136  57.2482605
  43.2621613  48.5447693  56.4602890  42.6271935  49.1542473  57.8973274
  38.1242294  41.6013565  58.0219650  37.2073288  41.3586235  58.8037682
  38.8601341  40.6845245  57.3983955  39.5579338  40.9841614  56.7325211
  38.7299805  39.2849464  57.5966148  37.7310562  38.9301605  57.8503456
  39.0839577  38.7745934  56.7008820  39.5844040  38.7563133  58.7394981
  40.7442284  39.2498703  58.9692307  39.1010094  37.8105927  59.5106354
  38.0964394  37.7354202  59.4379425  39.7150497  37.1014061  60.5667458
  40.7638664  37.3433685  60.7386131  39.0400009  37.2884369  61.9694786
  38.1263618  36.6976089  62.0349579  39.9491653  36.7414246  63.0423470
  39.4364052  36.8257484  64.0005112  40.2359314  35.7157211  62.8104019
  40.8510818  37.3512650  63.0947151  38.6384583  38.7720451  62.3489342
  39.5718384  39.1350517  62.7792015  38.4712219  39.2529030  61.3851357
  37.4651375  39.0207138  63.3343010  36.5177307  38.8562775  62.8209953
  37.4992104  38.4045143  64.2327652  37.6174240  40.0775681  63.5533333
  39.7635841  35.6223602  60.0923233  38.7358589  35.1030693  59.5971451
  40.8861809  34.9166718  60.2550850  41.7141762  35.2891426  60.6975670
  41.1145401  33.5313721  59.8285446  40.2802200  33.0869865  59.2858315
  42.4565086  33.5456161  59.0051918  42.9855194  34.4347801  59.3481750
  43.0495071  32.6514816  59.1974869  42.2185860  33.6663589  57.4888382
  41.8903236  34.6551094  57.1683540  43.1552429  33.4573364  56.9720345
  41.2522926  32.6327820  56.9221230  40.2363319  32.9640236  57.1370811
  41.3803024  32.6728706  55.8404083  41.3026886  31.2925053  57.5919380
  40.4212456  30.9018517  57.8928604  42.3928833  30.4716511  57.7344627
  43.5397301  30.7000122  57.1849442  44.2768288  30.0114288  57.2363052
  43.7457657  31.4877110  56.5872993  42.2298775  29.3514309  58.3000107
  42.9697990  28.7214870  58.0247078  41.4407730  29.2384205  58.9202042
  41.3309593  32.6783791  61.0960579  41.6296806  33.1751671  62.1650925
  41.1529655  31.3913422  60.9375305  40.7456551  31.0012245  60.0996742
  41.4421883  30.4193764  62.0055733  42.5144920  30.4526424  62.1983376
  40.8906784  30.7690163  62.8783188  41.0790749  28.9894409  61.6173172
  40.5744858  28.8366528  60.5177498  41.4665718  27.9284630  62.3676720
  41.8210526  28.0507984  63.3054771  41.3105621  26.5171471  61.9491386
  40.3515549  26.4851933  61.4320488  42.4335442  26.0443230  61.0208321
  42.5625763  26.7108841  60.1681099  43.3451653  26.1608639  61.6068916
  42.2841988  25.0323830  60.6443062  41.3728867  25.5555077  63.1198235
  42.0698090  25.8226795  64.1264038  40.8752060  24.2992802  62.8889122
  40.3412170  24.0854092  62.0587234  40.8109055  23.3107204  63.9349442
  41.7206879  23.4192848  64.5253754  39.6438675  23.5453987  64.9181061
  39.7760162  24.5934010  65.1870499  38.2251740  23.4082184  64.3680267
  37.8741531  22.3763008  64.3628159  37.4803505  23.9476395  64.9531479
  38.1816139  23.6946106  63.3172226  39.8029861  22.8307495  66.0995789
  39.3149185  23.2740841  66.7973251  40.8314819  21.9539051  63.3142853
  40.5012894  21.8109531  62.1802063  41.1949539  20.9264069  64.0632706
  41.5076523  21.1479492  64.9977493  41.1839714  19.4914341  63.6628532
  40.8114777  19.5632401  62.6409988  42.6226158  18.9817600  63.6021194
  42.5025177  17.9206905  63.3834496  43.4685745  19.5895500  62.5310020
  43.4483223  20.6747189  62.6314926  44.4776726  19.1778183  62.5136909
  42.9723358  19.3899250  61.5812645  43.2597275  19.0781593  64.8450241
  42.6846581  18.5257263  65.3795471  40.2873116  18.5820408  64.4910889
  39.9167175  18.8525028  65.6382599  40.0095940  17.3866253  63.9490700
  40.3476410  17.2380562  63.0089912  39.1878204  16.3010674  64.5773697
  39.2178879  16.5466213  65.6389236  37.7044601  16.2955971  64.1093216
  37.1717072  15.4845152  64.6057358  37.0058670  17.5229378  64.5521317
  36.0452652  17.6137066  64.0450821  36.7805710  17.4921112  65.6181488
  37.4785728  18.4073677  64.1250076  37.5575333  16.1499405  62.5620346
  38.0673180  16.9785004  62.0703888  37.9227066  15.1773376  62.2321968
  36.5172501  16.1268196  62.2374153  39.8238640  14.9257193  64.3531876
  40.2514076  14.5517359  63.2060852  39.8365974  14.0769205  65.4237366
  39.5704460  14.3116064  66.3693466  40.3255348  12.6932402  65.2303391
  41.2149963  12.6830301  64.6003723  40.8137703  12.1523123  66.6381378
  40.0000801  12.1019678  67.3616562  41.1606483  11.1204910  66.5822830
  41.8908424  13.0567093  67.2489853  41.4134598  13.9720898  67.5986710
  42.2912598  12.5404043  68.1214523  42.9933701  13.3208799  66.2293854
  43.4513855  14.4632835  66.1387329  43.3580971  12.3490839  65.5189285
  39.1955795  11.7859755  64.7521439  39.4422798  10.6344175  64.4578629
  37.9682541  12.3617630  64.5191956  37.7905006  13.2794981  64.9016418
  36.7959976  11.6645517  63.9811058  37.1648445  10.7378244  63.5415268
  35.8672829  11.2073078  65.1814728  35.4186592  12.0298214  65.7385254
  35.0104675  10.6318388  64.8310394  36.3944778  10.2591352  66.2503052
  36.7881050   9.3428755  65.8102722  37.2837067  10.7138510  66.6868896
  35.3794899   9.7706985  67.2722778  34.5521812   9.4815598  66.6241608
  35.7680664   8.9240236  67.8381882  34.9564285  10.8055525  68.2422714
  35.3816986  11.7098789  68.0958405  34.0123863  10.7497892  69.1636124
  33.3366699   9.6408796  69.4172211  33.6225891   8.8546515  68.8513565
  32.4808083   9.6607809  69.9531403  33.8129005  11.9048758  69.7604294
  34.3657455  12.7224884  69.5460205  33.1173744  11.8422747  70.4901047
  36.0141792  12.5398397  63.0312653  35.6747894  13.6344728  63.4541473
  35.5699844  11.9356756  61.9866753  35.9804802  11.0264406  61.8289261
  34.4498863  12.3507261  61.1005135  34.6170387  13.3984985  60.8508492
  34.6167717  11.4958220  59.7734489  35.6375084  11.5768347  59.3997726
  34.4444389  10.4441614  60.0023956  33.6115036  11.8781481  58.6160088
  33.0891495  13.0053368  58.6540756  33.4594116  11.1215992  57.6193657
  33.0773087  12.1401577  61.7693481  32.3134995  11.2764606  61.3672867
  32.7198982  12.9168186  62.7821388  33.4352798  13.5494280  63.1109734
  31.3666973  12.9789782  63.3354836  30.6343060  12.9133205  62.5308762
  31.1868496  11.6651278  64.2986069  31.2141094  10.7568769  63.6965790
  32.0446548  11.5235453  65.5408936  32.3588753  12.5323906  65.8084641
  31.6033764  10.9130783  66.3287430  32.9036865  10.9587774  65.1786804
  29.8591690  11.5904036  64.8283997  29.3335152  11.6837931  64.0305481
  30.9831886  14.2667074  64.0374374  31.8826637  15.0457344  64.3486328
  29.7027245  14.5092239  64.2960739  29.0907383  13.8422909  63.8479958
  29.0321217  15.6220617  64.9680939  29.2894154  16.4951515  64.3684158
  27.4959526  15.5543900  64.8531113  27.2378674  14.7836199  65.5793381
  27.0533638  16.5288048  65.0598221  26.9294205  15.2023239  63.4894867
  25.8968697  15.5477123  63.5409355  27.4333820  15.6758585  62.6469421
  27.0131550  13.6510639  63.2923126  27.7159557  13.1645689  62.3523064
  26.7272377  12.9083738  64.2015762  29.3941612  15.8520679  66.3818130
  29.3371964  16.9992542  66.8300400  29.7947063  14.8399887  67.1320877
  29.7639580  13.9318724  66.6910934  30.3200722  14.8278770  68.4759827
  29.5994530  15.3047371  69.1403732  30.4088154  13.3300123  68.9953384
  31.1796436  12.8797216  68.3699112  30.7691135  13.3989000  70.0217667
  29.1349144  12.5260382  68.9407730  28.9527550  12.1232023  67.9444580
  29.4190960  11.6379766  69.5052948  27.8340511  13.1164389  69.3643417
  27.7489986  13.8688583  70.3738327  26.7910671  12.8101835  68.7093964
  31.6825275  15.4579048  68.5741806  32.2685661  15.4279280  69.6501617
  32.2759819  15.7889948  67.4922714  31.6916065  15.6265450  66.6846771
  33.6759987  16.2184563  67.3587265  33.9485321  16.5827656  68.3492355
  34.5342293  15.0442114  66.9726639  34.1580963  14.0836611  67.3247528
  34.4869766  14.9136629  65.8915329  35.9745216  15.1704397  67.3824081
  36.6226768  14.5610609  66.7526093  36.1978912  16.2354183  67.3189621
  36.0042381  14.6404705  68.8135910  36.1333237  15.3931026  69.7725067
  36.0197067  13.4263878  68.9438553  33.8600922  17.4174690  66.3548660
  34.2344666  18.4901352  66.7987595  33.4318428  17.2541447  65.0843811
  33.1821175  16.3402500  64.7343369  33.2654800  18.3949509  64.1352463
  34.2482452  18.8250198  63.9420891  32.7076950  17.9290295  62.7257500
  31.7743111  17.4216461  62.9695854  32.4296074  19.1719494  61.8814240
  31.9627571  18.8717022  60.9433365  31.6393299  19.7682667  62.3374634
  33.3870659  19.6689777  61.7254257  33.6042786  16.9136200  62.0255623
  34.5336952  17.3942432  61.7201347  33.9499931  16.1395855  62.7107353
  32.9090118  16.3355389  60.8630104  33.0460548  15.2541924  60.8597221
  31.8349648  16.4948463  60.9586563  33.2422752  16.7848606  59.9275131
  32.5202560  19.5906620  64.6601562  33.0878067  20.6726875  64.6065979
  31.3067570  19.3886147  65.1550064  31.0406742  18.4456673  65.4002533
  30.5072155  20.5143127  65.5885773  30.5165596  21.2678719  64.8010788
  29.0508041  20.1749363  65.6413193  28.9105358  19.5785370  66.5428391
  28.4435749  21.0718994  65.7631302  28.5063725  19.6541195  64.2900925
  29.1356392  18.7836761  64.1044769  27.0428905  19.1966667  64.3655853
  26.3264084  20.0108509  64.2566910  26.9859409  18.3626251  63.6661377
  26.9062805  18.7371616  65.3445129  28.6079082  20.6087074  63.1503983
  28.0321293  20.2852859  62.2832298  28.1883373  21.5723724  63.4392090
  29.6734200  20.6835938  62.9331932  30.9771614  21.1133041  66.9202805
  30.9604073  22.2978725  66.9350662  31.4069023  20.3345432  67.9090347
  31.3000202  19.3773575  67.6049347  32.1102486  20.8224068  69.0931320
  31.4977303  21.4724331  69.7179489  32.5552826  19.5865574  69.8511353
  33.1929932  18.9813862  69.2067795  33.1763802  19.8548260  70.7057495
  31.3567448  18.8166962  70.3927917  30.8732452  18.4982986  69.4692383
  31.7315693  17.8546848  70.7422867  30.3198776  19.4083710  71.3499451
  30.5040112  20.3612366  72.0114136  29.0884762  18.9474545  71.3149872
  28.7852459  18.0896950  70.8763580  28.5220165  19.5597019  71.8845291
  33.3650322  21.6566696  68.7364349  33.3308563  22.8917847  69.0637589
  34.4072151  21.0579948  68.1517258  34.3731003  20.0691071  67.9491577
  35.6527939  21.7534847  67.8997269  36.0381775  22.1461296  68.8406906
  36.7135048  20.8349915  67.2734222  36.3546677  20.0719986  66.5826416
  37.4054604  21.4228230  66.6703110  37.6792336  20.2408104  68.3596039
  38.3692398  19.5863323  67.8270111  38.2195091  21.0496807  68.8514709
  36.9911690  19.2923965  69.3320694  36.5056801  19.8796673  70.1114960
  36.2974358  18.6235065  68.8227310  38.0493698  18.4312820  70.0301666
  38.5762978  17.8724804  69.2567368  38.6890373  19.0805645  70.6279526
  37.4805450  17.4503803  70.9896011  36.9719772  16.7462215  70.4742050
  38.2281303  16.8926296  71.3770676  36.9573746  17.8311539  71.7650986
  35.3995590  23.0399685  66.9287033  36.0727921  24.0682297  67.0579147
  34.3776093  22.9488411  65.9996796  34.1145630  22.0145416  65.7204132
  34.0373917  24.1328487  65.1546249  34.9785995  24.5273743  64.7717743
  33.1911926  23.7774887  63.9711113  32.1943207  23.4591579  64.2760849
  33.0218430  24.9182415  63.0050583  32.4062195  25.7333927  63.3853569
  34.0091553  25.1782112  62.6233101  32.4368362  24.6030827  62.1410294
  33.6352119  22.7181740  63.1147003  33.6067848  21.9186974  63.6453857
  33.4561501  25.2365398  66.0616302  33.8029747  26.4083958  65.9592896
  32.5356369  24.8814259  66.9633942  32.2478409  23.9258518  67.1187973
  31.8796196  25.8629665  67.9113312  31.3948193  26.6362038  67.3153610
  30.8735523  25.0516872  68.7628555  30.2681007  24.4635696  68.0731812
  31.4712944  24.4575615  69.4540939  29.8999786  25.9606857  69.5950165
  30.5258465  26.2799625  70.4283524  29.6408291  26.8828850  69.0749283
  28.7093086  25.1143589  70.1175690  28.1041908  24.7115002  69.3053818
  29.1934967  24.3496799  70.7249603  27.7609444  25.9453659  71.0003815
  27.4563065  26.8704052  70.5108871  26.8807697  25.3207970  71.1530609
  28.3614635  26.2184677  72.3028336  27.6477776  26.6695213  72.8571777
  28.6485157  25.3241444  72.6741638  29.1370182  26.8654251  72.2949677
  32.9291420  26.5100555  68.8416977  33.0053215  27.7528000  68.8991623
  33.8404808  25.6885509  69.3432617  33.6203384  24.7093239  69.2303238
  34.9738045  26.0913773  70.1718140  34.5537338  26.7080898  70.9663620
  35.5847931  24.8824863  70.7219391  36.0657387  24.4610348  69.8392334
  36.3949738  25.1791172  71.3880615  34.6746254  23.9819393  71.6198196
  34.6649399  24.4447460  72.6066437  33.6425705  23.9256802  71.2737045
  35.2629509  22.5948544  71.9025192  36.4527435  22.2974873  71.5143433
  34.4710236  21.6938267  72.5211945  34.8669586  20.7648849  72.5009918
  33.6442642  21.9687481  73.0320663  35.9807587  27.0180340  69.4189682
  36.4852562  27.9647007  70.0486374  36.2478638  26.7768040  68.1182022
  35.7996750  26.0116882  67.6346512  36.9054604  27.7867985  67.2383270
  37.7931366  27.9946461  67.8357620  37.1968918  27.0469818  65.9015961
  37.9285011  26.2729092  66.1332397  36.3035126  26.5694923  65.4991302
  37.7460480  27.9532356  64.7800369  37.2061844  28.8874474  64.6254501
  39.1306114  28.4989185  65.1400299  39.0481339  29.0556870  66.0734711
  39.8194618  27.6664066  65.2832489  39.4691124  29.1067314  64.3009338
  37.9218788  27.1854248  63.5202560  38.3591957  26.2346725  63.8250771
  36.9660416  26.9930382  63.0329552  38.5573883  27.6773472  62.7838821
  36.0817070  29.1121445  67.0373611  36.6689606  30.1559181  67.0547104
  34.7861061  28.9952106  66.7971039  34.3716164  28.0746536  66.7674484
  33.9129295  30.1497288  66.5402679  34.3886719  30.7884159  65.7960587
  32.4812546  29.8162613  66.1366119  31.9351921  29.1284466  66.7822342
  31.8822784  30.7269325  66.1389847  32.4459076  29.1468258  64.6937561
  33.1299553  28.3120804  64.5408554  31.1236916  28.4700527  64.4596786
  31.0785770  27.9905357  63.4818649  30.8921700  27.7074203  65.2032471
  30.3606911  29.2479286  64.4886093  32.7749939  30.3173923  63.7330437
  32.6371155  29.9861450  62.7037849  32.2203903  31.2272606  63.9625092
  33.8154373  30.6407890  63.7015381  33.9606857  31.0236835  67.8400879
  34.3011017  32.1917038  67.8056564  33.6154366  30.4320431  69.0107117
  33.5779953  29.4289474  68.8989258  33.4527130  31.0852852  70.3616943
  32.6226425  31.7829723  70.2506561  32.9418564  29.9969292  71.3748703
  33.6225586  29.1693802  71.1750946  33.1538849  30.3124294  72.3964386
  31.4920769  29.6027222  71.2125320  30.8173294  30.4585800  71.1945724
  31.2631359  29.1140957  70.2654724  31.0823727  28.6244545  72.3469620
  31.7843094  27.7185707  72.8496704  29.8525982  28.5183411  72.5456543
  34.7495079  31.7734375  70.8715973  34.7268829  32.7755165  71.5553741
  35.8953209  31.2892094  70.4380493  35.7346306  30.4150429  69.9583588
  37.2282715  31.9344406  70.6183624  37.1461716  32.4139328  71.5937805
  38.3376846  30.8825054  70.7068329  38.0412445  30.0462151  71.3399582
  38.4724884  30.4227982  69.7277527  39.6789131  31.3563786  71.3096161
  40.3314476  30.4833374  71.2998505  40.1430931  32.0532608  70.6117630
  39.7954788  31.9069118  72.7340698  39.3296776  32.8880119  72.6414413
  39.1020432  31.3723259  73.3832703  41.2052460  32.0768776  73.2848587
  41.6260147  31.0725956  73.3345947  41.7562675  32.6070442  72.5080795
  41.2835846  32.6968613  74.6343079  42.1997719  32.4950523  75.0084381
  41.1151733  33.6908875  74.5738831  40.6619606  32.3143272  75.3324127
  37.5218964  32.9736710  69.5214615  37.8477287  34.0958786  69.8930283
  37.4813576  32.7263260  68.2334900  37.1931114  31.8106594  67.9195328
  37.6602058  33.7902069  67.2110291  38.6622620  34.1588287  67.4303513
  37.6898804  33.2664986  65.7858429  38.1933250  32.2997932  65.7742767
  36.2961884  32.8883591  65.2419662  35.8321800  32.2591209  66.0014801
  35.8205719  33.8677864  65.1908951  36.2904472  32.4254189  64.2551727
  38.2952957  34.1783791  64.6937027  37.6488609  35.0388794  64.5211868
  39.2576027  34.5355530  65.0604401  38.5556145  33.3990440  63.3816757
  38.9361649  34.0583916  62.6015854  39.3955994  32.7050018  63.4105797
  37.6246262  33.0150528  62.9646416  36.6962891  35.0219421  67.4104843
  37.1451073  36.1860466  67.3884735  35.4039955  34.7846565  67.7541580
  35.1845741  33.8020248  67.8341141  34.4783401  35.7472725  68.3180161
  34.3777351  36.5263176  67.5623245  33.0940666  35.1143303  68.4570847
  33.2554131  34.1928329  69.0164795  32.1488800  35.9349480  69.3329773
  32.6003151  36.2571869  70.2713089  31.7649670  36.7775307  68.7578583
  31.2791309  35.3024597  69.5107269  32.4304314  34.7445641  67.1443634
  32.0506630  35.7464638  66.9441757  33.1913223  34.4137192  66.4374771
  31.2428093  33.8199577  67.2156143  31.4757824  32.8407669  67.6339569
  30.4922581  34.4204903  67.7295532  30.9136791  33.4617767  66.2401733
  34.9350090  36.4813156  69.5862045  34.7218246  37.6972733  69.6410522
  35.5072899  35.8843040  70.5793839  35.6130524  34.8891068  70.4433823
  35.9303513  36.5817757  71.8729248  35.2103996  37.3864326  72.0222473
  35.8828583  35.5652466  72.9846649  34.8641357  35.2390060  73.1941223
  36.4681892  34.7013054  72.6698685  36.4160194  36.0840607  74.3635559
  36.1311951  35.3237686  75.0908356  37.5058937  36.0790901  74.3479691
  36.0016022  37.5051041  74.7707825  34.9210320  38.0867233  74.4088974
  36.9152031  38.0566483  75.4051056  37.2782097  37.3529816  71.6869202
  37.3732872  38.5336647  72.0567322  38.2518349  36.7591782  70.9995728
  38.0387383  35.8256493  70.6782913  39.4667816  37.4092255  70.7283859
  39.8368416  37.7365799  71.6999741  40.4879341  36.3416328  70.1550064
  40.1308632  35.7565308  69.3075104  41.4353371  36.7356987  69.7872620
  40.8458824  35.2658844  71.1584549  39.9897575  34.5938797  71.2181244
  41.5984230  34.5976944  70.7397537  41.1494713  35.7345123  72.6091461
  40.5019035  35.3678131  73.6054535  42.1695900  36.4989967  72.7574463
  39.4614029  38.5845222  69.7985535  40.2811356  39.4579926  69.8405075
  38.4269485  38.8268204  69.0328751  37.8272324  38.0188332  68.9456863
  38.0906982  39.9817162  68.1619110  38.9044724  40.6877937  68.3272247
  38.1542931  39.4060822  66.7125473  37.3214912  38.7028923  66.7202988
  38.0155029  40.1974831  65.9759827  39.4628143  38.7500343  66.3818741
  40.5739594  39.3276520  66.4037399  39.4825134  37.4719009  66.2467422
  40.4104729  37.0753059  66.2054825  38.7215614  36.8456154  66.4676971
  36.8431892  40.6862297  68.5734558  36.4093018  41.5405083  67.8424072
  36.3397789  40.3461571  69.7432175  36.8440514  39.6090050  70.2148285
  35.1524963  41.0242653  70.4433517  34.8249855  40.3893700  71.2666016
  35.7557144  42.3326721  71.0370560  35.6093216  43.1250954  70.3030777
  35.1606560  42.5470009  71.9247894  37.2308083  42.3446541  71.3269958
  37.9593620  41.4373360  72.2006378  37.7026329  40.5913925  72.6890793
  39.1452522  41.8770485  72.3085403  39.9782104  41.4774971  72.8679428
  39.2376556  43.0155449  71.6011276  40.0831413  43.5668907  71.6368637
  38.0732613  43.3670006  71.0019531  37.8832970  44.3069229  70.5050964
  33.9361610  41.1845474  69.4936447  33.4672775  42.3083076  69.2767868
  33.5499191  40.1148872  68.8390427  34.0394135  39.2353554  68.9222336
  32.6083946  40.2261124  67.6651993  32.8945160  41.2024803  67.2741089
  33.0281334  39.1050911  66.6482697  33.0278435  38.1489868  67.1716919
  32.1682854  39.1717453  65.3640976  32.5497894  38.4292946  64.6631546
  31.1435890  38.8542366  65.5571747  32.3490486  40.1438103  64.9052811
  34.3774834  39.2450981  66.1242676  34.5023308  40.1756401  65.9240036
  31.1174850  39.9905930  68.1504593  30.8819618  39.2572289  69.1259613
  30.2031078  40.6134796  67.3958282  30.6206646  41.1773529  66.6693344
  28.7650013  40.5494881  67.5759735  28.5508347  39.5923767  68.0515442
  28.3399391  41.6659431  68.6078262  27.3815823  41.3907509  69.0481949
  29.0617619  41.6944275  69.4240723  28.3686218  43.1267471  67.9905701
  29.3766975  43.4055595  67.6837387  27.7268372  43.1862869  67.1115494
  27.7726669  44.0991592  69.0576172  26.6954727  43.9331741  69.0435104
  28.1962891  43.8486977  70.0301971  28.1957455  45.5715904  68.8802795
  27.7001762  46.1957130  69.6239014  29.2729855  45.7272148  68.9388733
  27.6796112  46.1753349  67.6146088  28.0924091  45.7659454  66.7887192
  26.6708870  46.1918030  67.5665741  27.9583473  47.1448746  67.6636124
  27.9730453  40.6347275  66.3085632  28.3487682  41.3937035  65.3922424
  26.8906593  39.8368111  66.0833969  26.2394829  39.0543976  67.1004791
  26.0470600  39.5925293  68.0286407  26.8267479  38.1649017  67.3285446
  24.8849297  38.5364189  66.5011902  24.1162052  39.2365379  66.8283157
  24.6409512  37.5273857  66.8335037  25.1797905  38.5363808  64.9760895
  24.3520546  38.9761696  64.4197235  25.2762661  37.5121689  64.6158371
  26.4167747  39.4662552  64.7001953  27.2200241  38.8483353  64.2988663
  26.0957108  40.6462250  63.7377014  26.4133091  40.5675659  62.5482140
  25.5606842  41.7148819  64.2398758  25.2778893  41.7074356  65.2094498
  25.0676250  42.7732925  63.3965416  24.3988132  42.3655319  62.6385689
  24.2067089  43.6320572  64.3061829  23.6420574  44.3197899  63.6766663
  23.4904346  43.1121140  64.9423523  25.0564957  44.5048676  65.1576767
  25.9146042  43.9164886  65.4825821  25.4684792  45.2512207  64.4784622
  24.3940220  45.0507545  66.4615097  23.3039494  44.6076660  66.8500061
  24.8960857  46.0919533  67.0050659  26.1516514  43.5708008  62.6892586
  25.8762245  44.2256508  61.6330948  27.4010029  43.3763084  63.0547867
  27.7024021  42.7205124  63.7613220  28.5547848  44.0551262  62.4721794
  28.2818546  45.0506668  62.1221581  29.5238152  44.1085091  63.6793327
  29.5170212  43.2339821  64.3299103  30.5444412  44.0755844  63.2980919
  29.3698692  45.3395805  64.6099472  28.8006630  46.3704720  64.1833649
  29.8793430  45.2754021  65.7285995  29.1605930  43.1478577  61.3221321
  29.9907932  43.6283264  60.5387039  28.9218845  41.8159218  61.4223938
  28.1188431  41.5322037  61.9652863  29.6097469  40.7959557  60.6876221
  30.6508617  41.1152954  60.6407127  29.6009216  39.4700699  61.3913498
  28.5663891  39.2226448  61.6293030  30.2993164  38.3307114  60.6862869
  29.8599510  38.1770515  59.7006645  31.3713608  38.4845543  60.5631866
  30.1666718  37.4497604  61.3143234  30.3819351  39.5526352  62.7152023
  30.1849995  38.6961365  63.3599739  31.4332981  39.7794914  62.5383682
  30.0070953  40.3892174  63.3048859  28.9845695  40.7810669  59.3017349
  27.7160187  40.6385918  59.1645775  29.7098160  41.1201744  58.2795258
  30.6741505  41.3310471  58.4932823  29.2154160  41.1625023  56.9208069
  28.3354015  41.8052483  56.8972359  30.3220520  41.7030754  55.9696083
  31.1102486  40.9559669  56.0627518  29.8899860  41.7835732  54.4425354
  29.3898411  40.8536797  54.1718636  29.1577301  42.5768623  54.2922287
  30.8035202  42.0267105  53.8999138  30.9632053  43.0501823  56.2211189
  31.6634045  43.2992783  55.4237671  30.1611786  43.7663879  56.3997383
  31.6585102  42.9775505  57.0574036  28.7969608  39.7597961  56.4627113
  27.7547455  39.4759369  56.0035477  29.7320786  38.7945824  56.6070404
  30.6086502  39.0273438  57.0515022  29.4848900  37.3739281  56.3515587
  28.5162277  37.1447334  56.7957115  29.3639755  37.1276817  54.8508720
  29.0211716  36.1053772  54.6912422  28.5846195  37.7331963  54.3882141
  30.5720901  37.2977905  53.9136810  31.3251705  37.9803772  54.3074341
  31.1223316  36.3569031  53.9049492  30.3339119  37.5502968  52.4514389
  29.2096863  37.4561195  51.9699554  31.3793564  37.8024559  51.7195358
  32.3496284  37.9079170  51.9794388  31.2481270  38.0012169  50.7380180
  30.6013908  36.5166512  56.9174843  31.4480381  36.9769020  57.6208649
  30.5114899  35.2155380  56.5593719  29.6485615  34.9374962  56.1142349
  31.4745827  34.1982155  56.9274712  32.4601212  34.6429367  56.7894516
  31.1819859  33.7993088  58.4065628  31.1690807  34.7509613  58.9378700
  30.1702003  33.4133492  58.5307732  32.2679558  32.7595367  58.9813957
  32.1312828  31.7693710  58.5466576  33.2693977  33.1254425  58.7548409
  32.1495781  32.5183487  60.7938042  30.3515587  32.3372650  60.9075089
  30.0800858  31.7872257  60.0064735  29.9896431  31.7509232  61.7520981
  29.8868523  33.3222656  60.9514122  31.4312878  33.0353241  55.9728889
  30.3800335  32.4394646  55.6685867  32.6241570  32.7461052  55.4815140
  33.3748474  33.2819672  55.8931160  32.9375114  31.4965649  54.8224182
  32.0414619  31.1790504  54.2891464  34.0377045  31.8327541  53.7142181
  33.5033455  32.5537872  53.0956078  34.9000168  32.2821960  54.2066803
  34.6455994  30.7344589  52.8453407  35.2225418  30.0833778  53.5021019
  33.5770912  30.0048809  51.9607773  33.3038750  30.5497093  51.0571098
  34.0409317  29.0633602  51.6666832  32.6226311  29.8324127  52.4581337
  35.5974655  31.4002228  51.7996979  34.9849091  31.8358479  51.0103302
  36.2713661  32.1569977  52.2012634  36.1897125  30.6542377  51.2697411
  33.5563316  30.4906826  55.8159599  34.3556557  30.8283691  56.6393700
  33.3274536  29.2134361  55.6167679  32.4951286  28.9787445  55.0949936
  34.0928917  28.1055660  56.1937256  34.8657608  28.4829502  56.8633194
  33.1800880  27.2527256  57.0612755  32.2220612  27.1889839  56.5453110
  33.5768547  26.2521667  57.2332039  32.8997955  27.8675938  58.4211197
  33.8129845  28.4092312  58.6677208  31.7236671  28.8264503  58.4215584
  30.8190632  28.2264404  58.3226776  31.6315727  29.3320026  59.3828278
  31.8378601  29.5803566  57.6426582  32.6764107  26.8397160  59.5868454
  32.6337090  25.8626213  59.1056328  33.4271355  26.8734245  60.3763847
  31.7150097  26.9089870  60.0957870  34.7345695  27.2266254  55.1135750
  34.3748589  27.3463764  53.9359360  35.6163902  26.3387508  55.4691200
  35.6851463  26.1415405  56.4572906  36.2438736  25.4650249  54.5143661
  35.4795570  25.1208630  53.8176079  37.3142815  26.2075043  53.6952171
  36.7790833  27.0683765  53.2945213  38.1084137  26.4789562  54.3907585
  37.8309517  25.3014488  52.8147087  38.7001648  25.6490860  52.6020584
  36.7309151  24.2079926  55.1686668  37.3491859  24.3014507  56.2223053
  36.3618240  23.0518208  54.6138992  35.6371689  23.0508804  53.9103584
  36.8580360  21.7558231  55.2806587  37.3979874  21.9881916  56.1985741
  35.5762672  21.0345078  55.7256813  34.8924904  21.6823654  56.2741623
  34.9920540  20.7769089  54.8422585  35.7778206  20.0464535  56.1394653
  37.6705475  20.8425980  54.3739700  37.5586510  20.8742962  53.1352081
  38.4180450  20.0169964  54.9945526  38.4967003  20.0457897  56.0010757
  39.2323799  19.0161743  54.2452545  39.6261063  19.5893288  53.4058609
  40.4009933  18.6108532  55.0805054  40.8694153  17.8104267  54.5077858
  41.5067711  19.5700283  55.2657585  41.2537498  20.2584457  56.0720863
  42.4107361  19.0692616  55.6124306  41.7767181  20.0862923  54.3445091
  40.0140495  18.2938805  56.3795433  39.5751038  17.4419556  56.3233986
  38.4041977  17.8669605  53.6041336  37.4088898  17.5252571  54.2843399
  38.7926292  17.3508492  52.4083710  39.9668427  17.7710915  51.7552376
  40.8865013  17.8885784  52.3284111  39.7377815  18.6803837  51.1995201
  40.0790100  16.7215977  50.6301727  40.5672455  15.8417177  51.0491447
  40.7049332  16.9916134  49.7796364  38.6801529  16.3055573  50.2442856
  38.5964241  15.3304272  49.7644730  38.1032257  16.9833374  49.6151047
  38.0099144  16.3529987  51.6156693  37.0111084  16.7893600  51.6066475
  37.8070602  14.9273262  52.2386856  37.4089165  13.9785118  51.4980698
  38.3293228  14.7435436  53.3830566  38.7088051  15.5867567  53.7893639
  38.3953743  13.5292826  54.1740646  38.1844597  12.6561737  53.5565681
  39.8205757  13.3612108  54.7767830  39.8328972  12.5450048  55.4991112
  40.4813271  13.0875921  53.9542046  40.3850784  14.6530809  55.4132462
  41.5796890  14.6529512  55.6962013  39.6129646  15.6153641  55.6255150
  37.3668213  13.4979315  55.2977600  37.0508537  12.4409914  55.8148956
  36.7019005  14.6283054  55.5857811  37.0641937  15.5186291  55.2756729
  35.5446205  14.7369070  56.4797592  35.6158218  13.9308205  57.2100029
  35.5676956  16.0566654  57.2159958  35.5083275  16.8982086  56.5257912
  34.7054787  16.1452560  57.8769341  36.8002968  16.2743301  58.1459122
  37.7344360  16.2034302  57.5887184  36.6275787  17.6664028  58.7238045
  37.4791031  17.8045044  59.3900948  36.7612991  18.3816624  57.9122467
  35.7614594  17.8381252  59.3629036  36.7399445  15.3892212  59.3602028
  36.9309006  14.3627481  59.0471649  37.6016312  15.6463404  59.9762230
  35.8180199  15.4606876  59.9373055  34.3135567  14.6829205  55.6001892
  34.2983475  15.3018122  54.5430374  33.1756897  14.0313864  55.9352188
  33.2670250  13.5923586  56.8402100  31.9007416  13.7460289  55.2237511
  31.7251377  14.4974489  54.4539261  32.1128883  12.3853464  54.6117897
  32.1039810  11.5758476  55.3416710  31.2930317  12.1926880  53.9198189
  33.3080559  12.3180170  53.6133614  33.4519310  13.1987848  52.5954018
  32.9148483  14.0065947  52.3141785  34.6402931  12.8727665  51.9560432
  34.9661446  13.2541332  50.9995995  35.1234093  11.7888622  52.5230446
  35.9397964  11.2488317  52.2740822  34.3306694  11.4453678  53.5786667
  34.5015488  10.7392426  54.3777847  30.6685600  13.8239288  56.1568375
  29.5571861  14.0149031  55.6081734  30.7104931  13.7039347  57.4807281
  31.5897560  13.4389257  57.9011650  29.4815369  13.3762436  58.2401428
  28.9401608  12.5723953  57.7413025  29.8854275  12.7619371  59.5760345
  30.7266159  12.0953484  59.3858643  30.4023170  13.5066051  60.1813431
  29.0272560  12.3231640  60.0850754  28.4793510  14.5234594  58.3860664
  27.2486706  14.3241129  58.4860306  28.9712391  15.7957201  58.4266396
  29.9672661  15.8405552  58.2653351  28.1144676  17.0096493  58.6376610
  27.2114697  16.8221893  58.0566597  27.7009735  17.2001572  60.1051826
  27.2593136  16.2816944  60.4918022  28.9414501  17.5884895  60.9264984
  28.8081169  17.6050777  62.0081863  29.7673054  16.9332390  60.6495285
  29.2763596  18.5857697  60.6412468  26.6628971  18.3166046  60.3992462
  25.7342148  18.1604900  59.8503571  26.5061970  18.2767735  61.4771881
  26.9755859  19.3152409  60.0941925  28.8106403  18.3220749  58.1311913
  29.9781227  18.4169064  58.3739395  28.0472603  19.2669392  57.5803566
  27.0411148  19.1787739  57.5803223  28.5563869  20.6175861  57.3423233
  29.4104786  20.4770851  56.6798363  27.5076542  21.5631790  56.6437836
  26.6893024  21.6816978  57.3539619  27.9571190  22.5524502  56.5576134
  27.0366611  21.1372070  55.2729225  25.8284359  20.4679661  55.1320190
  25.1761856  20.3000603  55.9762802  25.4352913  20.0949020  53.8050842
  24.4651737  19.6543598  53.6284752  26.2902069  20.3360920  52.6864929
  26.1093750  19.9519405  51.6934509  27.4827404  21.0912056  52.8824997
  28.1899910  21.2118149  52.0752487  27.8262043  21.5015678  54.1810341
  28.7555847  22.0365410  54.3092995  29.0507603  21.2061253  58.6311264
  28.1437511  21.4356499  59.4609375  30.3139725  21.6085033  58.7783508
  31.5089169  21.3008766  57.9153442  31.2785339  21.7815914  56.9645920
  31.6676369  20.2253819  57.8364792  32.7283211  21.8730736  58.5946846
  33.2560158  22.5832005  57.9580078  33.3882332  21.0307274  58.8022385
  32.3034859  22.4417877  59.9764023  32.5947990  23.4825840  60.1177521
  32.7336121  21.8262138  60.7664452  30.7774334  22.2810688  59.9992828
  30.4453125  21.6146889  60.7953568  30.0616779  23.6616611  60.3315468
  29.8925953  23.9756374  61.4882278  29.7021103  24.3793392  59.2515297
  29.9594631  23.9796505  58.3603935  28.9124546  25.6287098  59.3157234
  29.4814682  26.3825111  59.8598900  28.6161556  26.1711617  57.8638535
  28.1158295  25.4012146  57.2765236  27.9676380  27.0470181  57.8838768
  29.5974960  26.4701290  57.4954834  27.4961414  25.4789810  60.0405083
  27.0117893  26.4839382  60.4590759  26.9639034  24.2560997  60.2800179
  27.5783882  23.5098991  59.9872818  25.8522758  23.9791126  61.1916275
  25.0620480  24.6472149  60.8491592  25.5143738  22.4553490  61.1247482
  25.6243343  22.1460266  60.0853577  26.2339001  21.9257298  61.7491531
  24.0459309  22.2175083  61.7060661  24.0534592  22.6821995  62.6920204
  23.2997742  22.6573372  61.0443153  23.7053928  20.7217140  61.7954521
  23.8661861  20.1710529  60.8686180  24.4008408  20.3298721  62.5376930
  22.2941647  20.2917366  62.2067299  22.2309780  20.3321247  63.2941475
  21.6883774  21.1293335  61.8609657  21.8449230  19.0175724  61.5869637
  22.4306679  18.2824001  61.9564552  20.8566360  18.9091949  61.7648697
  21.9829254  18.9726353  60.5874443  26.1884518  24.4038830  62.6187706
  25.2770653  24.7867737  63.3683739  27.4542828  24.3329105  63.0375748
  28.1836262  24.1066933  62.3765297  27.8348885  24.7661457  64.3944321
  27.2126427  24.1852016  65.0751801  29.2828026  24.4972782  64.6657562
  29.4171619  24.7796307  65.7099457  29.3742809  23.4155560  64.5677338
  30.0286694  25.0069332  64.0558014  27.4659710  26.2182407  64.6842499
  27.2128277  26.5727711  65.8376999  27.3815975  27.0438862  63.6314621
  27.6372375  26.8194714  62.6804695  26.9504089  28.4551048  63.8496971
  27.6023293  28.8842697  64.6105652  27.1316357  29.2333050  62.5900612
  26.3850212  28.8647251  61.8866272  26.8168087  30.7051258  62.8754387
  25.7489586  30.8415890  63.0462418  27.3447514  31.0895901  63.7481155
  27.1825676  31.2618885  62.0126915  28.5447483  29.1038094  61.9298553
  28.8942661  28.0838585  61.7697563  28.4816532  29.5878544  60.9552689
  29.2737446  29.5747566  62.5893059  25.5570507  28.5450554  64.3759537
  25.2159023  29.5489235  65.0057602  24.7113705  27.5491924  64.1928940
  25.0066357  26.7115173  63.7120438  23.3078365  27.4920330  64.7362061
  22.8034019  28.4019775  64.4111786  22.5933609  26.2200928  64.1136703
  23.1326771  25.3677979  64.5269928  21.6088104  26.0919685  64.5634995
  22.5109901  26.3735580  62.5343475  22.3291302  27.4284878  62.3290405
  23.4921322  26.0192947  62.2181854  21.3734245  25.4638481  62.1371498
  21.5675354  24.5015392  62.6108475  20.4576416  25.9389114  62.4889412
  21.2949619  25.2322330  60.6236916  21.8426208  25.8625908  60.0555191
  20.6035728  24.2997551  59.9514503  20.0063362  23.2996674  60.5043640
  19.8978481  23.2449512  61.5070305  19.4513073  22.6836205  59.9277115
  20.6529408  24.3033504  58.6544838  20.0293312  23.7573948  58.0772972
  21.2326260  24.9595776  58.1510620  23.3017139  27.5657215  66.2854309
  22.3449821  28.0574532  66.9003830  24.4208965  27.3205299  66.9453659
  25.1594276  26.8998852  66.3997116  24.4606457  27.2406635  68.3870850
  23.4315929  27.0615788  68.6986618  25.4128208  26.0871792  68.7699432
  26.4589787  26.3183022  68.5693512  25.3440895  25.9161682  69.8442535
  25.1495743  24.7401047  68.1334457  25.0266914  24.8900623  67.0608292
  25.9843197  24.0936642  68.4043961  23.8103275  24.1909504  68.6746445
  23.7573071  23.4425812  69.6964340  22.7256927  24.5339279  68.0777969
  24.9089108  28.5623741  69.1023331  25.0047474  28.6168251  70.3605042
  25.2064152  29.5515633  68.2846375  25.0622044  29.4485188  67.2903137
  25.5845890  30.8933678  68.7127533  26.0240650  30.7487240  69.6996918
  26.6330662  31.4393139  67.7888641  26.1955376  31.5149059  66.7933960
  26.9591637  32.4372520  68.0819244  27.8942242  30.5190830  67.7183914
  27.5580845  29.5088482  67.4848633  28.7428322  30.9191360  66.5310516
  28.6823807  30.1832390  65.7292404  28.3599091  31.8990917  66.2461777
  29.7944546  31.0150986  66.8012085  28.7420444  30.4329872  68.9639587
  28.1178551  30.2046432  69.8278656  29.5482788  29.7021255  68.9012680
  29.1627998  31.3907566  69.2701340  24.3625317  31.8567944  68.8923950
  23.6723747  32.1961975  67.9505844  24.1611004  32.3763237  70.0733719
  24.7944698  32.2078514  70.8418503  23.0021820  33.1420326  70.4362183
  22.1139183  32.5414200  70.2403870  23.1609001  33.3624153  71.9162064
  23.3131332  32.4117432  72.4272308  24.0288639  33.9858131  72.1309433
  22.0538406  34.0420723  72.3833084  21.4072800  33.3341522  72.4323730
  22.8408184  34.5162163  69.6843643  23.6821823  35.4474335  69.7376785
  21.8014221  34.6314507  68.9190216  21.1645699  33.8530769  69.0120316
  21.4041519  35.7257576  68.0233688  20.3323116  35.6394043  67.8450623
  21.7192955  36.6250114  68.5526428  22.0497990  35.8288574  66.6422882
  21.7821102  36.7630463  65.8759689  22.9722157  34.8911438  66.2709808
  23.1767120  34.1927757  66.9713821  23.7873726  34.7028160  64.9814529
  24.0843716  35.6520233  64.5354767  25.0758610  33.9265213  65.2635422
  24.9493771  33.0062485  65.8338013  25.5508213  33.5580597  64.3542786
  26.1347942  34.6556587  66.0562515  26.0067978  35.0470657  67.3254013
  25.1739559  34.8492508  67.9839249  27.1821938  35.7098427  67.7239227
  27.2505951  36.1885109  68.6106567  28.0799713  35.7392693  66.6736526
  29.2521858  36.5169258  66.4212723  29.7249737  37.1019211  67.1962967
  29.8635273  36.4414864  65.1602173  30.8074665  36.9336662  64.9781799
  29.2436848  35.7547798  64.1149063  29.8348637  35.6486053  63.2173309
  28.0053139  35.1475601  64.3059235  27.5711060  34.5950508  63.4858055
  27.3497791  35.1665154  65.5667267  22.9162846  34.0918388  63.8413582
  23.4289703  33.9326439  62.7247658  21.6107655  33.7438850  64.1035614
  21.1943932  33.9434662  65.0018387  20.7065887  33.1454124  63.1284065
  21.2451839  32.2428703  62.8395538  19.2837753  32.9421997  63.7743225
  18.6318474  32.4955978  63.0235672  19.3257008  32.2636642  64.6263428
  18.5838985  34.1924133  64.2229538  18.9974651  35.0710258  63.7278786
  17.5186539  34.1424675  63.9974442  18.6661358  34.5038109  65.6947784
  19.5905170  34.1096535  66.3356934  17.7143726  35.2028694  66.3263931
  16.8732662  35.4911423  65.8472900  17.9161682  35.2253075  67.3157730
  20.5705147  33.9646034  61.8046837  20.0922909  33.3552399  60.8482132
  21.0190411  35.2233009  61.7669487  21.3655548  35.6589165  62.6097221
  20.9042892  36.0348816  60.5410690  20.3401127  35.5017204  59.7758598
  20.2381554  37.4216423  60.8500633  20.8893204  38.0915604  61.4115715
  19.9993382  37.9257545  59.9136162  18.9564114  37.3803406  61.5279503
  17.7752132  37.0838547  60.7759666  17.8655529  36.7689400  59.7468567
  16.5288658  37.1976166  61.4102516  15.5983133  36.9074135  60.9452095
  16.4564877  37.4967613  62.7281990  15.2956324  37.6173019  63.3959427
  14.5767078  37.5659370  62.7618217  17.5989170  37.7111092  63.5158920
  17.4820023  37.8380051  64.5820236  18.8671627  37.8288727  62.8717651
  19.7006340  38.2222252  63.4347878  22.2306461  36.2224503  59.8339233
  22.2010670  36.6666908  58.6757202  23.4067822  35.8247108  60.3576851
  23.4107666  35.3493805  61.2488365  24.6981335  35.9368172  59.6705780
  24.7520466  36.9257889  59.2154617  25.8331223  35.7747459  60.7716370
  25.6928749  34.9365540  61.4541855  27.2351055  35.5568504  60.1011200
  27.3245716  36.2743454  59.2854538  27.9546566  35.7809372  60.8886070
  27.3988457  34.5565262  59.7003250  25.8605938  37.0244789  61.6518059
  26.6753330  36.8491058  62.3543320  26.1974220  37.8757057  61.0601425
  24.8981190  37.2777176  62.0963402  24.7547684  34.8972816  58.5172577
  24.6833687  33.6786690  58.7751236  24.9977169  35.2589111  57.2622490
  25.3416138  36.6127090  56.7931709  26.2223053  36.9513741  57.3388710
  24.5690460  37.3285637  57.0738678  25.6556911  36.5346642  55.2715874
  26.7250938  36.4336090  55.0864792  25.2293777  37.4069595  54.7761497
  25.0622482  35.2474022  54.8087234  25.4318542  34.9415550  53.8299751
  24.0333805  35.5389595  54.5977135  25.0252094  34.3731041  56.0753326
  24.1533775  33.7197647  56.0412369  26.2607994  33.4050102  56.1175117
  27.4057865  33.8603401  56.3007317  26.1188641  32.0556679  56.0339470
  25.2054863  31.7660179  55.7146645  27.1949024  31.0905323  56.2819099
  28.1749477  31.4868546  56.0163155  27.3292809  30.5650196  57.7923203
  28.1757050  29.8803730  57.8463745  27.5898037  31.7841492  58.5645943
  26.6737022  32.3377914  58.7703514  28.0343380  31.5760002  59.5378189
  28.2578259  32.4512634  58.0197983  26.0527248  29.8184433  58.3035660
  26.0363464  29.7450142  59.3909645  25.1278210  30.2904148  57.9720650
  26.0453434  28.7881298  57.9478989  27.0377445  29.8771038  55.3457222
  25.9569263  29.3684597  55.2037010  28.1228733  29.3135948  54.7816353
  28.9786739  29.6602707  55.1909294  28.2277813  28.2171249  53.9489174
  27.4973640  27.4932575  54.3103104  27.8662148  28.4877834  52.5104904
  26.8246250  28.8069820  52.5465813  28.6080666  29.6131706  51.7869720
  29.6403408  29.2822018  51.6731071  28.1759777  29.8612442  50.8175087
  28.6335373  30.4334469  52.5043297  27.8967476  27.3710880  51.8177338
  27.0432949  26.9665413  51.9896736  29.6077442  27.6369400  54.0808449
  30.4952641  28.4576759  54.4087448  29.8754749  26.4086285  53.6517868
  29.0847397  25.8285980  53.4101257  31.2284336  25.8876343  53.7289772
  31.9266510  26.6799755  53.9987717  31.1854286  24.8296242  54.8780594
  30.6938095  25.2897930  55.7351799  30.5420189  24.0065746  54.5670624
  32.7968369  24.2615356  55.2270813  32.9375610  23.5702667  54.0925140
  31.7534313  25.2329254  52.4376373  31.2343006  24.2426910  51.9972763
  32.8103180  25.8191013  51.9074135  33.1023445  26.7084770  52.2866631
  33.5807571  25.2249756  50.7994576  32.8536072  24.7495956  50.1411514
  34.3297272  26.2834587  50.0149345  34.5490723  25.8408566  49.0432892
  33.6773911  27.1551609  49.9630699  35.6352158  26.6831284  50.6613159
  35.4345131  27.4530277  51.4063454  36.2053185  25.8098106  50.9781837
  36.6915588  27.5952473  49.5896721  38.2841721  27.8462143  50.4263649
  38.8957710  28.5217972  49.8283424  38.1705742  28.2023869  51.4502487
  38.7590065  26.8664417  50.4782181  34.3601799  23.9978199  51.1960602
  34.3031387  23.6557140  52.3926697  35.1598511  23.5056992  50.2305031
  34.9033012  23.8517761  49.3169861  36.2877731  22.4782677  50.3722534
  36.1783104  22.1392422  51.4023895  36.0883369  21.3893738  49.3875999
  35.0036659  21.2825184  49.4007607  36.2210388  21.7942448  48.3843193
  36.6161423  20.0033169  49.4681015  36.7115402  19.6745644  48.4332466
  37.6556511  19.9180546  49.7847328  35.7108994  19.1731071  50.2680969
  34.8069687  18.4995937  49.7052574  35.8736191  19.1228943  51.5684967
  36.7033043  19.6419430  51.8181267  35.2765732  18.5135536  52.1091843
  37.6644859  23.1092472  50.2175560  37.8379707  23.8994923  49.2484970
  38.6382484  22.8292580  51.0678558  38.4182663  22.1815586  51.8109589
  40.0365028  23.3208847  50.8500595  39.8587608  24.3187580  50.4491158
  40.8378334  23.4354401  52.1495934  40.2292595  23.5271721  53.0492172
  41.2124023  22.4283791  52.3329735  42.0215721  24.4443836  52.0626984
  42.8585968  24.0575542  52.6439514  42.3905754  24.6170597  51.0517006
  41.5928764  25.7855129  52.5947647  42.5737076  26.5820770  52.6910782
  40.3979759  26.0257454  52.8840332  40.8238754  22.4658566  49.7761421
  40.4522095  21.3288898  49.5269585  41.8189240  23.0472336  49.1471748
  42.0917206  24.0089245  49.2915077  42.5641174  22.3300953  48.0870667
  41.9397316  21.9850483  47.2629318  43.4610367  23.3610764  47.4803963
  42.8685951  24.1586533  47.0320816  44.0153046  23.7942257  48.3130264
  44.3805618  22.8824902  46.3797455  45.1141701  22.1848412  46.7837334
  43.9521561  22.3685474  45.5192642  45.3164368  24.2041779  45.6668587
  46.9733963  23.4896660  45.4393997  47.0267944  22.7992897  44.5975990
  47.7616730  24.2240334  45.2737923  47.3116188  23.0162659  46.3611374
  43.4406624  21.1721592  48.5938530  44.2065544  21.3253956  49.5301018
  43.2960472  19.9874840  48.0331421  42.5505562  19.8316860  47.3697662
  43.9873886  18.7983723  48.4831505  43.9102478  18.6670589  49.5624619
  43.2311897  17.5995464  47.8165703  42.1617699  17.5601387  48.0236740
  43.3381996  17.6221752  46.7320709  43.8369026  16.2505302  48.2383232
  43.4242363  15.2254381  47.6219254  44.6246109  16.1724358  49.2271576
  45.4699707  18.8637562  48.0986176  45.8606071  19.0888367  46.9511642
  46.3045311  18.7623920  49.2094803  45.9011765  18.7101707  50.1339684
  47.7042656  19.2522354  49.1797981  47.8864632  19.2228985  48.1055298
  48.0821991  20.6408367  49.7946892  47.5363312  20.8241405  50.7201805
  49.5908012  20.9175396  50.0502853  50.1710968  20.5218239  49.2167587
  49.7326698  21.9554806  50.3513718  49.9268074  20.3411865  50.9122658
  47.6777840  21.6445007  48.7462196  46.7537041  21.3289490  48.2618637
  47.4479637  22.6600132  49.0687370  48.4342804  21.7449913  47.9679413
  48.5421181  18.1457767  49.6877022  48.3715591  17.6392651  50.7975578
  49.5762024  17.7658463  48.9216614  49.7135277  18.1869049  48.0139427
  50.5002174  16.7059879  49.2667923  49.8537865  15.8329182  49.3561134
  51.4754562  16.5537376  48.0795403  51.7615433  17.5564880  47.7621346
  52.8113174  15.8474617  48.1372871  52.7084770  14.8390532  48.5380898
  53.2950706  15.7712145  47.1634979  53.5419426  16.3639278  48.7598228
  50.7775612  15.9040699  47.0289803  51.1989326  16.1681957  46.2078323
  51.2131233  16.9664955  50.6230087  51.9009094  17.9633789  50.7201805
  50.9778671  16.1690483  51.6849976  50.4345474  15.3396730  51.4925346
  51.2856445  16.3670654  53.0825539  50.9240608  15.5369253  53.6893692
  52.3530617  16.5436363  53.2150116  50.6859474  17.6004753  53.6603012
  51.3372345  18.2212906  54.4891510  49.4633217  17.9428253  53.2821655
  48.9878883  17.3452854  52.6210976  48.6900902  18.9644508  53.9167404
  49.2980080  19.7454224  54.3734856  47.9956474  19.3881321  53.1912422
  47.8555298  18.3160477  55.0280800  47.4199142  17.1511593  55.0073013
  47.5829430  19.1108627  56.0558548  47.9602928  20.0476570  56.0447083
  46.8763008  18.6954975  57.2146263  47.4179840  17.9181004  57.7534523
  46.8027878  19.9844475  58.0742340  47.7800331  20.4505367  58.2001266
  46.1352654  20.7046051  57.6010628  46.1839676  19.8951817  59.4655075
  45.1394157  19.5838280  59.4740486  47.0024948  18.9117222  60.3390656
  48.0105247  19.1529102  60.0017166  46.8597374  19.1127052  61.4008255
  46.8242607  17.8576698  60.1262131  46.2143517  21.1988716  60.1513786
  45.7566109  21.1020393  61.1358566  47.2200432  21.6019878  60.2704620
  45.7198982  21.9366283  59.5194626  45.4707375  18.1537666  56.9672470
  44.6603737  18.9251175  56.5056419  45.3432846  16.8554592  57.1577187
  46.1486320  16.3723793  57.5294075  44.0768089  16.0981216  57.0675850
  43.5436363  16.2087555  56.1233482  44.4843140  14.6882477  57.3715591
  44.8760681  14.5950365  58.3844452  43.5599136  14.1130104  57.4233360
  45.4897804  14.0429802  56.3743896  44.9110527  13.7851391  55.4874306
  46.2843094  14.7211266  56.0630341  46.1497879  12.7879753  56.9645576
  46.4459038  12.9539909  58.0003433  45.5437126  11.8821840  56.9468269
  47.3033295  12.3730803  56.1249084  47.0665665  12.2607069  55.0668869
  48.0291519  13.1812983  56.2147179  48.0063782  11.1197701  56.6709290
  48.8767014  10.9427128  56.1900024  48.2061043  11.1795845  57.6591797
  47.3578110  10.3474751  56.6159859  43.1232948  16.5639210  58.2362480
  43.5192680  17.1885395  59.2537956  41.8363953  16.1967125  58.1586685
  41.5745087  15.6782818  57.3323860  40.7468414  16.4243259  59.1135864
  39.8273697  16.5324898  58.5382805  40.5803146  15.2125759  60.0463257
  41.4840622  15.1651011  60.6538467  39.7304420  15.4015999  60.7021408
  40.2736588  13.9463024  59.2375069  39.5731392  14.1759624  58.4346199
  41.1642761  13.6723490  58.6719513  39.7533684  12.6980677  60.0400467
  38.9084816  13.0134306  60.6522636  39.3388405  11.9583616  59.3551369
  40.8133888  12.0424652  60.8897057  41.6008186  11.8214521  60.1691437
  41.2402725  12.7287121  61.6210976  40.3900719  10.6664009  61.5733147
  41.2159195  10.2323294  61.9601746  39.8764648  10.7724791  62.4364777
  39.9994774  10.0179033  60.9047394  40.6993828  17.7655544  59.8677979
  40.7620392  17.7427044  61.0297737  40.8140297  18.7932663  59.0757637
  40.8258438  18.5870953  58.0871010  40.8196564  20.1934128  59.5990829
  40.8684387  20.2021980  60.6879578  42.0823364  20.8827782  59.0438042
  42.8305283  20.3023872  59.5836716  42.0129013  20.8347416  57.9570770
  42.2027321  22.6417656  59.5620232  42.2268639  22.3582401  60.8673706
  39.5708580  20.9207211  59.0369568  39.1872292  20.7875195  57.8687553
  38.9424019  21.6892662  59.8916283  39.2786217  21.7310581  60.8431053
  38.0059013  22.7819004  59.5671463  37.5971375  22.6132050  58.5708771
  36.8173637  22.8094635  60.5673599  37.1637344  23.0973339  61.5599632
  35.7726974  23.8352432  60.1534195  35.5188179  23.7257919  59.0990677
  34.8613510  23.7339211  60.7427292  36.0330887  24.8843307  60.2938347
  36.1794128  21.3722248  60.7692947  35.1008720  21.5189133  60.8270683
  36.3577728  20.7403431  59.8992271  36.5712509  20.5860424  62.0869408
  36.5450249  21.2277088  62.9676704  35.8637962  19.7904434  62.3206749
  37.5957069  20.2155151  62.0508842  38.6652832  24.1750393  59.5619583
  39.3295631  24.5193787  60.5373535  38.4857750  24.8600769  58.4706383
  37.9695473  24.3547401  57.7647781  38.8022652  26.2497444  58.3911514
  39.3905373  26.4231930  59.2922401  39.7103539  26.5179462  57.1196976
  39.1416626  26.1580620  56.2622757  39.8158455  27.5988407  57.0267525
  41.0573463  25.8304920  57.3547134  41.5130005  26.3812599  58.1775932
  41.0310555  24.7922077  57.6854324  41.9176483  25.9639702  56.0543137
  41.4586372  25.3423252  55.2855682  41.9292946  26.9911175  55.6897125
  43.3227806  25.6106815  56.2242928  43.8597336  26.3705330  56.6172447
  43.8691521  24.4013538  55.9252243  43.1574593  23.3483658  55.7640800
  42.1554451  23.3961067  55.8815117  43.6921997  22.4971924  55.6658020
  45.1309929  24.1885204  55.9259644  45.9060822  24.7624722  56.2258186
  45.3397217  23.2631721  55.5791740  37.5983200  27.2062817  58.3742943
  36.4368019  26.8514519  58.0977478  37.8475189  28.5033493  58.7291451
  38.7571259  28.7637024  59.0826111  36.8652802  29.5600853  58.8657608
  36.0549469  29.3980503  58.1549835  36.1944122  29.5994015  60.3454819
  35.7688370  28.6230774  60.5773849  37.3733978  29.9278965  61.3237457
  36.8777885  29.8361645  62.2902145  38.1526833  29.1713409  61.2318611
  37.7034416  30.9640522  61.2491684  35.0123291  30.7144527  60.4861755
  34.5592270  30.5388699  61.4618645  35.4220963  31.7205944  60.3974686
  34.2579193  30.6567097  59.7015457  37.4439316  30.9215279  58.4961548
  38.6352577  31.2545681  58.6629333  36.5921974  31.7687531  57.8385162
  35.6488228  31.4303265  57.7135620  36.9563026  33.2022285  57.5049171
  37.7288589  33.4920807  58.2171249  37.7346115  33.3010216  56.0799370
  38.5151138  32.5815468  55.8324013  36.9535866  33.1542168  55.3339119
  38.2965088  34.7198906  55.7538834  37.5295143  35.4531174  56.0032845
  39.2279930  34.9365311  56.2768631  38.5447769  34.8518639  53.9550476
  40.3665161  34.4333687  53.8940468  40.4327278  33.3592567  54.0672569
  40.6964302  34.6914062  52.8877296  40.9550858  34.9438400  54.6563492
  35.7669868  34.1252098  57.6772461  34.8736610  34.2377396  56.8272438
  35.7629089  34.8689384  58.7948952  36.6049728  34.8403358  59.3518639
  34.7172546  35.8348999  59.2980804  33.7259178  35.6711998  58.8755302
  34.6447067  35.4856644  60.7699547  34.2578812  34.4686775  60.8348198
  35.6285324  35.5777168  61.2300720  33.5983582  36.4761353  61.3057137
  33.9750252  37.4797173  61.1081009  32.7343330  36.3452950  60.6542168
  33.1610794  36.0524712  63.0335655  34.6573334  36.6324158  63.9244576
  34.4609718  36.3233299  64.9511108  35.5276566  36.0529785  63.6164207
  34.8937874  37.6701546  63.6893120  35.1443634  37.2743111  58.9506226
  36.2150269  37.7315674  59.2970848  34.2576790  37.8945084  58.1820259
  33.4133034  37.3508148  58.0746727  34.4306526  39.3012009  57.7989235
  35.4651947  39.6201744  57.9257469  34.0861397  39.4391899  56.2721596
  33.0379486  39.3383446  55.9906960  34.4336472  40.7953796  55.6183777
  34.0424461  41.6081123  56.2303734  35.4888496  41.0119858  55.7849007
  34.1877861  40.9956017  54.5755157  34.6556435  38.4798775  55.4480171
  34.7547379  37.6663971  55.9480438  33.5509644  40.3111076  58.5302238
  32.3117752  40.3236275  58.3964996  34.1148720  41.1477890  59.4061584
  35.0889511  41.1033897  59.6693916  33.4884758  42.1505280  60.2654457
  32.4015465  42.1261749  60.1873779  33.7479858  41.7195511  61.7131462
  33.6537094  40.6337776  61.7306938  35.1904030  41.9645195  62.1880493
  35.5065460  43.0052223  62.2593880  35.4146996  41.5061913  63.1512337
  35.9135437  41.6001015  61.4584084  32.7304001  42.2618217  62.6728668
  32.9197121  41.9359512  63.6956406  32.9179993  43.3355370  62.6795921
  31.6844769  42.1334305  62.3941879  33.8324738  43.6036224  60.0092697
  34.9767036  43.8857269  59.7083664  32.9992027  44.6164665  60.2536659
  32.0844765  44.2317429  60.4417114  33.2749138  46.0179939  60.2813873
  33.9743729  46.2104721  59.4678688  32.0733566  46.9127502  60.1630058
  32.5739632  47.8618507  59.9714317  31.5172882  46.5869293  59.2839508
  31.0541592  46.9813194  61.3627777  30.5968990  46.0099373  61.5510254
  31.5597820  47.3217468  62.2664146  29.8843708  48.0052567  61.1832619
  29.8942356  48.9352226  60.3764000  28.7892323  47.8474617  61.8585052
  28.8189526  47.2064629  62.6384659  28.0422382  48.5053215  61.6872711
  34.0938606  46.3149567  61.5543709  33.6757736  45.8534203  62.6189423
  35.2224159  46.9745979  61.4106865  35.5132217  47.1935997  60.4685745
  36.2023544  47.1960869  62.5577393  35.5751228  47.5377960  63.3810997
  36.9131050  45.8629723  62.9961090  36.2088509  45.0577049  63.2050858
  37.8675728  45.3134232  61.9727898  38.8447304  45.7866859  62.0691528
  37.8628349  44.2357521  62.1362114  37.4547462  45.4719696  60.9765244
  37.6963501  46.1621323  64.1813736  37.2243385  46.4676476  64.9594955
  37.2257538  48.3291626  62.3196297  37.6061287  48.6784935  61.2072678
  37.5969696  49.0782814  63.3604050  37.0735626  48.8702621  64.1987839
  38.5525398  50.1929588  63.3596802  38.4598312  50.5420723  62.3312721
  38.0085411  51.2356987  64.3121490  36.9198151  51.2559700  64.2634964
  38.2712440  50.8848038  65.3101273  38.3200607  52.6476479  63.9136925
  38.7240334  52.9026794  62.7802353  38.0860596  53.5139771  64.8021698
  39.9998894  49.7706299  63.6397972  40.9585915  50.5431709  63.4320679
  40.2038803  48.5591240  64.0560913  39.3985634  47.9499893  64.0789337
  41.5135345  47.9641380  64.4726105  41.9001541  48.5629539  65.2972565
  41.0648956  46.5156364  64.9549637  40.5613136  46.0739441  64.0950699
  42.2577591  45.7097778  65.4666824  42.9056358  45.4618111  64.6259232
  42.8451271  46.2453194  66.2125320  41.8870354  44.8082047  65.9543610
  39.9426155  46.5651970  66.0426254  40.3740120  46.7949791  67.0168991
  39.0805054  47.1865082  65.8000641  39.6886978  45.5202141  66.2205200
  42.5528488  47.9477386  63.2723846  42.1113396  47.5865669  62.1929970
  43.8786659  48.3110390  63.3348122  44.4495735  48.7685776  64.5813065
  44.2491531  48.1951599  65.4863663  44.2470093  49.8276863  64.7405548
  45.9640503  48.6938133  64.2414932  46.3086815  47.6791153  64.4407806
  46.6161804  49.3561211  64.8108521  45.9479866  48.9490585  62.7581596
  46.8724785  48.6172447  62.2856064  45.8925133  50.0041237  62.4900970
  44.7954636  48.1364555  62.2775345  44.4406204  48.6255074  61.3703308
  45.1291122  46.6850891  62.0011787  45.0781898  45.8234940  62.8837852
  45.4674530  46.3344193  60.7543335  45.6119766  47.0856133  60.0948486
  45.5374107  44.9435272  60.1897202  44.5593224  44.5216713  60.4209938
  45.8862038  44.9454346  58.6652336  45.2793732  45.6017113  58.0414047
  46.9170837  45.2832680  58.5591621  45.9976692  43.6252060  57.9343452
  46.7551651  42.9787674  58.3775330  44.9903374  43.2232285  58.0429955
  46.4260597  43.7776413  56.5319443  47.5599518  44.2005196  56.2721062
  45.5795364  43.5246277  55.5165367  44.6150894  43.2484322  55.6334076
  45.9412689  43.8733025  54.6403656  46.4632683  43.9567566  60.9191399
  46.1121597  42.8069992  61.1036453  47.6610260  44.3370132  61.3317108
  47.9485283  45.2589264  61.0358734  48.6088715  43.4211311  62.0475349
  48.9117203  42.5469818  61.4711189  49.9303627  44.0596581  62.3327904
  50.6771812  43.3120232  62.6000023  50.1476860  44.3848457  61.3153763
  50.0772934  45.3407249  63.2028427  49.1477585  46.1759338  63.1683731
  51.0739059  45.5656242  63.9010048  47.9866943  42.9666443  63.3977890
  48.1987038  41.7946854  63.8508110  47.2826347  43.8943176  64.0624390
  47.2430573  44.8338661  63.6939507  46.7855606  43.7866020  65.4506607
  47.4921761  43.2646179  66.0958939  46.5449944  45.1957474  66.0098343
  45.8908005  45.7705116  65.3542633  45.9642181  44.9867325  66.9082336
  47.7652245  45.9461441  66.2480240  48.4707832  45.1977768  66.6089020
  48.1978531  46.4155350  65.3645020  47.7530289  46.9110603  67.4389496
  46.6922073  47.3307800  67.9400558  48.9143753  47.3562889  67.8263092
  49.8045006  47.0892296  67.4307632  48.9213295  48.0934448  68.5167160
  45.5770531  42.8330803  65.6833725  45.0609550  42.6549187  66.8082123
  45.0116425  42.2918091  64.5902405  45.3969345  42.3589249  63.6590347
  43.8838425  41.2914734  64.6810608  43.2248116  41.7328682  65.4286957
  43.1388817  41.3655014  63.3399239  43.8438377  41.3586845  62.5086021
  42.0990295  40.2094841  63.1845970  42.6638641  39.2903328  63.3402328
  41.2300415  40.2906151  63.8375740  41.7130394  40.0397530  62.1794586
  42.3246651  42.7047920  63.2866516  41.4710770  42.6263123  63.9599457
  42.9574013  43.5151062  63.6487770  41.7529106  43.0957069  61.9128113
  42.5579185  42.8185158  61.2322083  40.8354301  42.5885887  61.6142082
  41.7267838  44.1817017  61.8231316  44.2669868  39.8277550  65.2088623
  45.3193779  39.3701897  64.6631927  43.4622574  39.1878853  66.1105042
  42.5221901  39.5393219  66.2239304  43.8315811  37.8936119  66.6631241
  44.9122505  37.7573013  66.6221313  43.3450356  37.7638741  68.1643448
  42.2766533  37.9796181  68.1534119  43.6132927  36.7802658  68.5498962
  43.9943123  38.7322311  69.1302185  45.0655479  38.7890778  68.9370346
  43.4911385  39.6857338  68.9697571  43.8939018  38.3556099  70.6467743
  42.9039345  38.5858612  71.0405350  43.9627419  37.2824440  70.8247757
  44.8712616  39.0335350  71.4726639  45.4193535  39.7766609  71.0634384
  45.0272560  38.9141045  72.7426910  44.1901855  38.2170181  73.4785995
  44.2887955  38.1652756  74.4824448  43.3966331  37.8080521  73.0062408
  46.0424194  39.5428581  73.3127441  46.2183647  39.5020752  74.3064651
  46.8116188  39.9626579  72.8105469  43.1542740  36.6896477  65.7791824
  42.0314484  36.2581367  66.0304337  44.0005608  36.1031189  64.9718475
  44.9712143  36.3721542  65.0463486  43.6749496  34.8613129  64.2373123
  42.6142693  34.9236488  63.9940529  44.5310135  34.7680893  62.8952026
  45.5689049  34.5796547  63.1697502  44.1097832  33.8892288  62.4070778
  44.4242821  35.9967461  62.0844002  43.3247795  36.4206924  61.3540993
  43.6068764  37.6798630  60.9696426  42.9050560  38.3431816  60.4860573
  44.8212547  38.0449600  61.4383240  45.1285477  39.0031586  61.3515472
  45.3586884  37.0135384  62.1517639  46.2795372  36.9772453  62.7148972
  43.8166809  33.6862831  65.2159271  44.7354240  33.6602631  66.0392914
  42.9527321  32.6955605  65.0532303  42.3016815  32.8227310  64.2916107
  42.8135262  31.6563740  66.1158295  43.4855232  31.7812519  66.9649048
  41.4213219  31.8218594  66.7860641  40.6973763  31.7855282  65.9720078
  41.0499954  30.6020966  67.6895294  40.8986816  29.6614380  67.1600418
  41.7263069  30.6027851  68.5443420  40.0660477  30.7901707  68.1191483
  41.3178482  33.1356430  67.5984344  41.4283981  33.9811211  66.9194260
  40.3449631  33.2366180  68.0794830  42.0652390  33.1034126  68.3911972
  42.9675522  30.2475147  65.5611801  42.3026085  29.8333435  64.5909653
  43.8554955  29.4391575  66.1441193  44.4142418  29.8072510  66.9006958
  44.1791039  28.0489178  65.8437500  43.3232689  27.5768757  65.3612289
  45.5104980  27.9684772  65.0425186  46.2917557  28.3798103  65.6816940
  45.7619858  26.9266415  64.8439331  45.4299202  28.7941208  63.7253227
  45.7057419  30.1715908  63.7595291  45.9975929  30.6679688  64.6732178
  45.6914253  30.8525047  62.5191803  45.9846344  31.8919086  62.5273514
  45.5374184  30.2288342  61.2801170  45.8386765  30.8656330  60.1175804
  45.7554550  30.3225060  59.3303757  45.1979942  28.8631992  61.2641411
  44.8841476  28.3454475  60.3698082  45.1155472  28.1718388  62.4744682
  44.8509712  27.1247501  62.4721832  44.2191162  27.4259090  67.2296371
  44.7234917  27.9574337  68.2144699  43.8250999  26.1468410  67.1957474
  43.6491318  25.7781410  66.2720566  43.5212097  25.2291431  68.2882004
  44.1684914  25.5333424  69.1107559  41.9926987  25.3839169  68.6484299
  41.3898468  25.2862167  67.7455902  41.5926056  24.5288620  69.1933212
  41.6850891  26.7367096  69.2352371  42.0371552  27.5855732  68.6490860
  40.2240944  27.1813583  69.3100510  39.7612000  27.2687740  68.3271027
  39.7403603  26.4006100  69.8970261  40.2236366  28.1834240  69.7389603
  42.1943016  26.9425144  70.7131119  43.2422523  27.2323589  70.6364059
  41.7088356  27.8201523  71.1399384  42.1426125  25.9843597  71.2301941
  43.7307320  23.7482166  67.8061142  43.8698158  23.5001450  66.5985184
  43.7750740  22.7710400  68.7752838  43.4139977  23.0379219  69.6799927
  43.9896240  21.3169308  68.4506607  44.1567879  20.7967396  69.3938217
  42.8297539  20.6378155  67.8149338  42.8785172  20.9789486  66.7808380
  42.8326607  19.5540638  67.9314499  41.4404869  21.0081806  68.2889252
  41.2617264  22.0789623  68.3867569  40.9028587  20.5504951  67.4585114
  41.2020874  20.4413776  69.7004089  41.0533867  19.2105751  69.7836761
  41.1293602  21.2136707  70.6483383  45.3257790  21.1021729  67.6559906
  46.2273674  21.8335743  68.0217590  45.5459671  20.1503773  66.7711792
  44.7873039  19.5714130  66.4405136  46.7678375  20.0730953  65.9654312
  47.6000519  20.1036072  66.6687012  46.7516479  18.7046642  65.2499619
  46.3444443  17.9034500  65.8666763  46.1138802  18.7123699  64.3660507
  48.2077408  18.3458099  64.8679733  48.7255592  19.0846481  64.2563477
  48.8362656  18.5204411  65.7412262  48.2696457  16.8786392  64.4323196
  47.6564980  16.1944008  65.0188141  47.9603958  16.7027721  63.4020119
  49.7537956  16.4696407  64.5820236  50.4129066  17.2120953  64.1320877
  49.8631554  16.4401550  65.6661224  49.8620987  15.1000290  63.9787102
  49.1452827  14.4998074  64.3608246  49.7931862  15.1407337  62.9718857
  50.7404709  14.6682463  64.2279510  46.9918861  21.2273598  65.0309219
  48.0643539  21.4694462  64.5817871  45.9165268  21.8961544  64.6195755
  45.0394020  21.6414452  65.0507126  46.0147552  22.9218884  63.5727997
  46.4700966  22.5488338  62.6554184  44.5854836  23.4192505  63.3288727
  44.3260498  24.0728931  64.1616669  44.6175461  24.1101208  62.4863930
  43.8956757  22.5912724  63.1654243  46.8705215  24.1011429  64.0159378
  47.0960808  24.9755211  63.2482986  47.3141785  24.1993160  65.3180542
  47.0594749  23.4311447  65.9223251  48.3909569  25.1836758  65.7112503
  48.0242500  26.1958313  65.5404663  48.8666916  25.0465240  67.1754074
  49.5829659  25.8435631  67.3748627  47.7750435  25.2001152  68.1567612
  47.0898209  24.3652763  68.0097427  48.1748695  25.0889053  69.1646729
  47.3507309  26.2037907  68.1831360  49.4619408  23.6675262  67.4587402
  49.4960709  23.3910942  68.5125504  48.9117470  22.9487095  66.8515396
  50.5065575  23.7356300  67.1550369  49.6872597  25.1640663  64.7487946
  50.3384972  26.1822872  64.5389023  50.0100288  24.1017380  63.9788704
  49.5400009  23.2094536  64.0336990  51.0833168  23.9913216  62.9871597
  51.9794388  24.3446751  63.4972649  51.2121353  22.4829102  62.7225494
  51.2140160  21.9990883  63.6992874  50.1677551  21.7890873  61.8400993
  49.2060547  22.1927395  62.1568108  50.3708382  21.7382679  60.7703896
  50.1306038  20.7354546  62.1168213  52.5793724  22.0895920  62.0407410
  52.4329643  21.0542278  61.7330322  52.7165833  22.6532021  61.1179047
  53.3717690  22.0087700  62.7848358  50.8571701  24.7389736  61.7119637
  51.8363686  25.0774231  61.0193024  49.6826591  25.3052273  61.4981537
  49.0074120  25.2360306  62.2460556  49.4394455  26.2893333  60.4692459
  49.9771423  26.0770969  59.5451546  47.9102440  26.3022919  60.1716156
  47.4614906  26.6651497  61.0963058  47.7107315  27.1983662  59.5839500
  47.1410255  25.0213795  59.6968079  47.0584717  24.2378254  60.4500198
  45.8164597  25.4787521  59.1345901  45.3140984  24.5126686  59.0855446
  45.2002144  25.9661045  59.8901253  45.9386177  25.9975414  58.1837845
  47.8484268  24.3367538  58.4988861  47.2721901  23.6042194  57.9336853
  48.1393127  25.1235485  57.8028679  48.6675491  23.7620544  58.9311523
  49.8567123  27.6827049  60.9530106  50.0861740  28.5010681  60.0457573
  50.0183640  28.0411663  62.2375870  49.8957710  27.2697678  62.8779106
  50.5694733  29.3180332  62.7688103  51.3545532  29.7151299  62.1253319
  49.3639832  30.2966919  62.8690491  48.4394836  29.8218632  63.1975861
  49.4060173  31.1185532  63.5838051  49.0000496  31.0073566  61.5773621
  48.5931969  30.3386192  60.8188362  48.2948570  31.7919102  61.8517418
  50.2188530  31.7290783  60.9300766  50.9145622  30.9550228  60.6061440
  49.8319664  32.2257347  60.0402718  50.9394989  32.6682968  61.8362236
  51.4892921  32.2767372  62.5875626  50.8350143  33.9802551  61.9791298
  50.0339127  34.7512398  61.2948952  50.1468010  35.7547150  61.3146400
  49.4373589  34.4124985  60.5536194  51.7050934  34.5631638  62.6997910
  51.7782974  35.5622902  62.8282356  52.4947166  34.0183868  63.0157242
  51.2855492  29.1453571  64.1461639  50.7931137  29.6204739  65.1765976
  52.3344040  28.3208447  64.2071381  53.1274986  27.8853931  63.0551949
  53.3251839  28.7362976  62.4032898  52.7514648  26.9957256  62.5500298
  54.4921341  27.5014496  63.6845741  55.1748199  28.3318882  63.8646126
  54.9789162  26.6734753  63.1692009  54.0981255  26.8913021  65.0129395
  54.9342499  26.8678513  65.7118301  53.6315079  25.9240665  64.8263321
  53.0091629  27.8556595  65.4703979  52.2489967  27.3822041  66.0917664
  53.4811440  28.9819317  66.2886581  53.7596359  28.8718033  67.4934769
  53.7820740  30.1025600  65.5750580  53.4182053  30.1946640  64.6373978
  54.3076401  31.3545971  66.2013016  55.0788956  31.0465584  66.9072723
  54.8833504  32.2256241  65.0997467  55.1310463  33.1534348  65.6154022
  55.7876511  31.8151569  64.6504517  53.9536324  32.7635880  64.0690689
  53.1150627  31.9809532  63.5103073  54.1324654  33.9109612  63.5499344
  53.2473755  32.0356483  67.0170288  53.5485306  32.7795448  67.9284897
  51.9966125  31.9375343  66.7890015  51.7453918  31.3757725  65.9881134
  50.9476051  32.4603767  67.7314835  51.3497353  33.3818207  68.1526031
  49.6383781  32.7384415  66.9797668  49.1114159  31.8306389  66.6859894
  49.0356216  33.3190193  67.6781311  49.7135506  33.7245102  65.7734146
  50.4618988  33.2445755  65.1427536  48.3802109  33.8346863  65.0587311
  47.9620438  32.9127045  64.6547699  47.6153221  34.2043343  65.7416763
  48.5835228  34.5540276  64.2654419  50.3866081  35.0073318  66.1023026
  51.3686790  34.7447281  66.4955750  50.3673477  35.6394386  65.2145157
  49.8113403  35.5681877  66.8389282  50.5294609  31.5505657  68.9309921
  50.1226387  32.0490303  69.9598236  50.6620255  30.2544727  68.8042908
  50.9706841  29.8849735  67.9164276  50.5009003  29.2590218  69.8358383
  49.5346413  29.3658066  70.3288345  50.4198036  27.8767090  69.2390747
  49.7891808  27.7527103  68.3587112  51.4240570  27.6430969  68.8855209
  50.1002312  26.8058567  70.1411209  50.7121544  26.0707455  70.0588760
  51.6619453  29.2728157  70.8692627  52.8214188  29.5839119  70.5383682
  51.3446960  29.1075401  72.1651001  50.3702888  29.2787628  72.3683548
  52.2959747  29.0497551  73.2475357  51.7113228  29.0745125  74.1671371
  53.1787720  27.7639923  73.1702499  54.0085831  27.9133282  72.4794464
  53.6952095  27.6277847  74.1204300  52.4718552  26.3773537  72.8754730
  52.1554794  26.3653183  71.8324585  53.4327393  25.2324085  72.9993973
  53.6719437  25.2302608  74.0628281  52.9308739  24.3111172  72.7036667
  54.3684006  25.3687897  72.4571457  51.2887993  26.1953049  73.8105164
  50.7526474  25.2556477  73.6775589  51.6581841  26.2250843  74.8355865
  50.5267906  26.9624004  73.6726379  53.2404442  30.2399483  73.3215408
  54.4155006  30.1313705  73.6474152  52.7264328  31.5045547  73.0621262
  51.7303009  31.6181221  72.9399643  53.5103378  32.6753540  72.9967957
  54.5700302  32.4462662  73.1093521  53.3058167  33.4098244  71.6374359
  53.2997322  32.5938110  70.9148102  51.9473534  34.1825447  71.5760574
  51.1924667  33.4088440  71.7162170  51.8797455  34.9012947  72.3927155
  51.7443619  34.7588234  70.6733932  54.2940903  34.3890305  71.2046204
  54.8703880  34.0096092  70.5371399  53.4054222  33.6445961  74.1861954
  52.3737221  33.7672157  74.8270950  54.4191132  34.5288620  74.3064957
  55.2145233  34.3812637  73.7018127  54.4876556  35.7249870  75.1658783
  53.4822121  35.8898849  75.5531693  55.3613586  35.5607681  76.4427185
  56.3875923  35.4190102  76.1038208  55.4023170  36.4137993  77.1200333
  54.9696236  34.3505440  77.2161713  53.9329453  34.5387383  77.4954300
  55.0718651  33.4375725  76.6295471  55.9309196  34.1838341  78.4421387
  56.9764824  33.9485245  78.2433090  55.8740501  35.1146011  79.0065308
  55.3162880  32.9796715  79.2730789  54.3249512  32.7199898  78.9017181
  55.9006729  32.0979004  79.0102539  55.4675255  33.0946045  80.7906418
  54.9402237  33.8292465  81.2404785  55.1595688  32.2488785  81.2489090
  56.3828392  33.3558617  81.1283569  54.7857819  37.0571823  74.4119110
  55.0601120  38.0392876  75.0887833  54.5646133  37.1509666  73.0771103
  54.1928368  36.3306198  72.6200256  54.6860771  38.3295517  72.2068481
  55.7092400  38.7003326  72.1455536  54.1395721  37.9663811  70.8466721
  54.6305962  37.0442276  70.5358124  53.1037254  37.6679192  71.0080795
  54.0484352  39.0954514  69.7075119  54.3052254  40.2646255  69.9063950
  53.4118309  38.8195724  68.5787201  53.0487366  37.8870544  68.4420471
  53.3193855  39.4665375  67.8086624  53.8050003  39.5311852  72.7197113
  52.6516190  39.4329300  72.9638214  54.4534683  40.7040024  72.8506927
  55.4411583  40.7508736  72.6448593  53.8268547  41.8990822  73.4872818
  53.3191681  41.5612984  74.3907547  54.9532013  42.8524055  73.9459152
  54.4796257  43.7813416  74.2635727  55.7285233  42.2901192  75.1148376
  56.4133682  43.0437698  75.5035477  55.0024986  41.9249191  75.8412094
  56.3090096  41.4015083  74.8668518  55.8111801  43.1673889  72.9279556
  55.5022583  43.9454002  72.4579926  52.7990875  42.5878983  72.6794128
  51.9462242  43.2821503  73.1765823  52.9399223  42.6196785  71.3332596
  53.7654076  42.1444511  70.9973450  51.8441811  43.1062775  70.3822937
  51.2685280  43.8832321  70.8853531  52.4113960  43.7341919  69.1060867
  53.0546379  42.9446030  68.7176361  51.5151634  44.0145531  68.5526657
  53.3127213  44.9432869  69.4078369  53.4597931  45.4465103  68.4522018
  52.6762238  45.6160660  69.9825821  54.6320229  44.7009697  70.1506271
  54.8246460  45.2457504  71.2528534  55.4941368  44.0797615  69.5485001
  50.7560806  42.0382233  70.0486908  49.9382362  42.4030380  69.1489639
  50.7453003  40.8384476  70.6217728  51.4517784  40.5318565  71.2752304
  49.5417938  40.0122719  70.4870224  49.2566147  40.0018272  69.4350433
  49.9630318  38.5790863  71.0582047  50.7785187  38.1621933  70.4672089
  50.3603058  38.6482353  72.0708771  48.7539139  37.6295166  71.0369110
  47.8547440  38.0216560  71.5121155  48.3506966  37.2649574  69.6131134
  48.2244759  38.1284714  68.9600296  49.1236725  36.6522141  69.1492615
  47.3863068  36.7725639  69.7380142  49.0925789  36.2698288  71.6411209
  50.0358009  35.8680115  71.2710266  49.2068176  36.4946823  72.7015457
  48.2960205  35.5316505  71.5478821  48.2275352  40.6199036  71.1525345
  48.3217049  40.7881355  72.4062271  47.2240334  40.8750916  70.4627304
  23.9033680  53.1428986  55.4391365  24.3644791  54.0360527  55.5379448
  22.9511929  53.3076706  55.1453476  23.7084026  52.5739937  56.2505798
  24.5394688  52.3126221  54.4249191  23.7879124  51.5752640  54.1428299
  25.0223980  53.0738716  53.2041702  24.2837353  53.7400856  52.7584763
  25.8851280  53.6456680  53.5459938  25.2945614  52.0899582  52.0619164
  26.1471004  52.4661255  51.4964333  25.8392544  51.2399445  52.4728737
  23.8915329  51.4866295  50.9240837  23.1077747  52.9424553  50.1721153
  22.6349258  52.7249718  49.2143974  22.3835468  53.3826523  50.8575478
  23.8800430  53.6517525  49.8744621  25.6707382  51.4878731  55.0891800
  26.5361423  52.0180359  55.7493095  25.6553936  50.1661034  54.8029785
  24.9199810  49.8277359  54.1990128  26.7635994  49.3196640  55.1048431
  27.6950874  49.8856659  55.0965118  26.5245762  48.7657852  56.5439568
  26.8020115  49.5417862  57.2573662  25.4854851  48.4946785  56.7307434
  27.4579659  47.5774765  56.9192429  27.1731911  46.6571236  56.4093819
  28.4624233  47.8981400  56.6429482  27.2513981  47.0516777  58.6540451
  28.1406689  45.4891319  58.6052628  29.2048740  45.6014824  58.3980255
  27.9885750  45.0123100  59.5735626  27.7399483  44.7963181  57.8652992
  26.8630981  48.2278900  54.0501060  25.8668880  47.7936401  53.4335022
  28.0563889  47.7252197  53.8075104  28.8824673  48.0699425  54.2753372
  28.2791367  46.3939514  53.1737480  27.5949802  46.3934326  52.3252029
  29.6746731  46.2369308  52.6577301  30.3109150  46.3864098  53.5300598
  29.8755054  44.8390808  52.0520744  30.8434620  44.7974892  51.5526390
  29.8564262  44.0333595  52.7859344  29.0923901  44.5537491  51.3496399
  30.0955582  47.4135818  51.7003479  29.8516350  47.0379066  50.7066345
  29.5943050  48.3178596  52.0454865  31.5715790  47.6561661  51.8584900
  31.7226048  48.0915756  52.8462715  32.1453590  46.7441940  51.6936035
  31.9092407  48.3883820  51.1250458  27.7964821  45.1417923  54.0639839
  28.2929802  45.1302605  55.1793556  27.0124397  44.2400360  53.4464951
  26.7295513  44.6402397  52.5633698  26.5080853  42.9997597  54.0469780
  27.1550159  42.6375351  54.8459663  25.0943146  43.1930313  54.6850510
  24.4839211  43.4811325  53.8291817  24.6060848  42.2976418  55.0697708
  25.1513386  44.2673073  55.7478447  25.8977661  43.9931755  56.4933624
  25.4236317  45.2553864  55.3768120  23.7269077  44.4314842  56.2955132
  22.9640656  44.6385384  55.5449791  23.3569889  43.5520248  56.8225937
  23.6377716  45.5381203  57.2654648  23.0604172  46.3317299  57.0268402
  24.0858498  45.4712524  58.5351257  24.6934071  44.4078751  58.9876404
  24.9460793  44.4864616  59.9623642  24.7498169  43.5447273  58.4662056
  23.8516064  46.4484863  59.3355331  23.4403763  47.3001099  58.9809456
  24.1624241  46.4447441  60.2965126  26.4477425  41.8337479  52.9891014
  26.5354576  42.1439056  51.7788658  26.4150810  40.5797157  53.4508476
  26.5187435  40.4570427  54.4479980  26.2215137  39.3973885  52.6323013
  26.8772659  39.4802170  51.7655640  26.6138592  38.6014557  53.2652779
  24.7312756  39.2139931  52.1511726  23.8486996  39.6615791  52.8451920
  24.6181087  38.3872566  51.1047401  25.4441967  37.9822159  50.6880608
  23.3113937  37.7961388  50.6374550  22.6758938  37.7978439  51.5230255
  22.6092587  38.6428375  49.5164948  23.1181831  38.4550819  48.5710602
  21.2260742  38.1557961  49.3521690  20.6667862  38.1785393  50.2874641
  20.6947269  38.8963242  48.7543488  21.1881790  37.2120132  48.8081703
  22.6670837  40.1565666  49.8777351  22.3746243  40.2333527  50.9249535
  23.7361698  40.3436127  49.7768936  21.9092293  41.1944199  49.0078926
  22.1084995  42.1979752  49.3837509  22.3692589  41.2199440  48.0200577
  20.8203297  41.1528473  48.9820099  23.5486240  36.4160500  50.0874748
  24.7263412  36.0414200  49.8431435  22.4920216  35.5964088  49.9621620
  21.5704556  35.9904671  50.0867882  22.6332474  34.1826630  49.5644226
  23.6481323  34.1534233  49.1678619  22.7136688  33.2094269  50.7809029
  21.8453751  33.3154259  51.4312363  22.5809727  32.2005615  50.3901520
  23.9877739  33.4420090  51.6329651  24.8978500  33.6799316  51.0822792
  23.8750000  34.2852058  52.3144341  24.4402199  32.3218727  52.6000443
  25.2758026  32.7315559  53.1675491  23.6322289  32.1298218  53.3059998
  24.7506638  31.1520634  51.8008499  25.1919518  31.2887421  50.9026947
  24.2208939  29.9211216  51.9850845  23.7205029  29.5781498  53.0816078
  23.8900871  30.0992813  53.9300003  23.2254257  28.6986351  53.0434875
  24.2799263  28.9683666  51.0823250  24.8437080  29.1989803  50.2766762
  23.9826908  28.0434246  51.3584251  21.6421814  33.7460785  48.4299355
  20.6204872  34.4809875  48.1724319  21.9643192  32.5897064  47.9287186
  22.9189129  32.2666168  47.9955521  20.8732395  31.6897087  47.5386581
  20.2504730  31.3269424  48.3563766  20.2431850  32.1886482  46.8023262
  21.2733192  30.3688698  46.8731804  22.4550819  30.1560688  46.6900444
  20.3673840  29.4599953  46.6798592  19.4063053  29.7420425  46.8097649
  20.6488438  28.0674477  46.2382545  21.6362762  28.0675964  45.7766533
  20.8089523  27.1168938  47.3842354  19.8632660  26.8831959  47.8732719
  21.3366947  26.2394886  47.0104065  21.4753876  27.4840431  48.1647263
  19.6029549  27.5533409  45.2475319  18.3827267  27.7866230  45.4117584
  20.0494747  26.8327389  44.2629967  21.0335541  26.6262150  44.1679268
  19.2758999  26.1325264  43.2447510  18.3224392  25.8302422  43.6779251
  18.8537922  27.0951767  42.0548477  18.7258606  28.0664444  42.5327339
  19.8521481  27.2018166  40.8400803  19.9172745  26.1922321  40.4343681
  19.4749165  27.9697475  40.1647453  20.7969246  27.5602226  41.2487907
  17.6428356  26.5247192  41.5085602  17.2098885  27.1624851  40.9363632
  19.8943348  24.8074265  42.7343712  21.0374107  24.5335293  43.0229836
  19.1727543  23.9510498  41.9583511  18.2450485  24.2375259  41.6801529
  19.5171528  22.5301514  41.6960983  20.5595722  22.3229713  41.9380417
  18.6541061  21.5664711  42.5012016  18.9980373  20.6015491  42.1287270
  18.9999027  21.8363953  43.9511375  18.6328545  21.1372795  44.7025414
  20.0849190  21.8171463  44.0534630  18.5721073  22.7715855  44.3123970
  17.2402496  21.6294594  42.4044571  17.0901489  21.1719341  41.5739479
  19.2317257  22.1704693  40.2403221  18.1345730  22.3031120  39.7480659
  20.2246170  21.5388012  39.6435471  21.1490822  21.5208511  40.0499229
  20.1555080  20.8387604  38.3331070  19.3097057  21.3010139  37.8241463
  21.3873997  21.1098595  37.5322952  21.2800369  20.7574348  36.5064468
  21.6779327  22.6044865  37.3949203  21.8762646  23.0382328  38.3750343
  22.5169239  22.8830318  36.7572594  20.7561092  23.0416031  37.0111580
  22.6696033  20.5308895  38.0908508  22.6934700  19.4413700  38.0689316
  23.4800644  20.6969261  37.3811455  22.9823341  20.8862305  39.0727043
  19.7394695  19.3304901  38.4402924  19.9955158  18.7080517  39.4608269
  19.2018547  18.8072243  37.3301125  19.0669498  19.3625813  36.4973602
  18.6752625  17.3867569  37.3004608  18.7151566  17.0147896  38.3242531
  17.2857304  17.2749596  36.7838440  17.2673206  17.9210396  35.9061546
  17.0881710  16.2361679  36.5192871  16.1772480  17.6811161  37.7304344
  16.5159740  18.6126842  38.1838150  15.2709846  17.8319416  37.1438866
  15.8932419  16.8276482  38.8714981  16.7724247  16.8317089  39.8106079
  14.8977079  16.0935459  38.9408569  19.6573658  16.5466843  36.5439720
  19.9848099  15.4663782  37.0229492  20.2850685  17.0737934  35.4545937
  20.0438347  18.0410023  35.2920685  21.5129299  16.6822853  34.7055702
  21.7852383  15.7184706  35.1356964  21.2417412  16.6313019  33.1697502
  20.6226578  17.5030651  32.9579124  22.1859512  16.6265812  32.6251907
  20.6098766  15.3274078  32.6728172  20.4527969  15.4254694  31.5986614
  21.2433052  14.5256004  33.0522652  19.2224636  14.9838638  33.2561455
  18.8774223  14.0106897  32.9068909  19.3974991  14.8296671  34.3208961
  18.2529202  16.0449448  32.9860382  18.5556583  17.0043507  32.8966560
  16.9494534  16.0699043  33.0665436  16.1626549  15.0486269  33.3474159
  16.5855522  14.1594658  33.5724754  15.1654911  15.1838799  33.4338455
  16.3856678  17.2322655  32.9341812  16.9382992  18.0727005  32.8426895
  15.4054213  17.3490124  33.1476936  22.6923904  17.7024899  34.9267426
  22.4587383  18.9112072  35.0586586  23.9032269  17.1847496  34.9295959
  23.9494114  16.2090912  34.6725769  25.1909695  17.9199162  34.9724846
  25.1376839  18.7279606  35.7020912  26.3154774  17.0019684  35.3303757
  26.2490520  16.8394814  36.4061508  26.1620064  16.0342274  34.8528557
  27.7399254  17.6018982  35.2426071  27.8978081  18.8347092  35.2921906
  28.7263565  16.8390598  35.1903191  25.4202709  18.3704548  33.4523392
  25.9778481  17.6453648  32.6548119  24.8858833  19.5306816  33.1622963
  24.4030342  20.0271797  33.8974495  24.9667034  20.1113777  31.8572178
  25.9826508  19.9540443  31.4950008  23.9019718  19.3254967  31.0007420
  23.9316883  18.2491226  31.1699734  22.4598827  19.8041935  31.2984180
  22.1681995  19.8423443  32.3479729  22.3245697  20.8399677  30.9870262
  21.7235126  19.1649418  30.8113689  24.1593056  19.4463501  29.6350613
  25.0219803  19.0594540  29.4686165  24.8278542  21.6110134  31.7477493
  24.2196522  22.2536964  32.5929985  25.3972263  22.2200546  30.7123642
  25.9527912  21.6680832  30.0745754  25.3702126  23.6756516  30.3819141
  25.8993359  24.2175217  31.1658249  26.0087242  23.9258709  29.0562973
  25.4414005  23.5934830  28.1869526  26.0960941  25.0103569  28.9902534
  27.4074345  23.3654404  29.0155563  28.0073757  24.0814381  28.4538479
  27.9120789  23.3600025  29.9816856  27.5461998  21.8857021  28.4897251
  28.6650352  21.5432510  28.1084728  26.6093483  21.0842590  28.4531364
  23.9323730  24.2747650  30.3197784  23.6447849  25.2273693  31.0033436
  23.0288277  23.6645088  29.6050987  23.2567501  22.8256359  29.0908604
  21.6088181  24.0863857  29.5796890  21.5672855  25.1750259  29.5445347
  20.9576340  23.7508945  28.3474770  21.1368427  22.6841469  28.2131824
  19.8843880  23.9397678  28.3236561  21.6052151  24.4235439  27.1373348
  22.6549549  24.1302929  27.1248341  21.1609650  24.0072289  26.2332211
  21.5061340  25.8903694  27.1266060  20.3991604  26.4002094  27.4547596
  22.3947468  26.6446114  26.6380329  20.7096424  23.7636356  30.8122997
  19.5082989  24.0316181  30.7676735  21.2685757  23.3530712  31.9207077
  22.2364120  23.0823860  31.8200836  20.6518841  23.4103775  33.2226830
  19.7161980  23.9694538  33.2275963  20.3147049  21.9786205  33.7095451
  21.2431927  21.4118519  33.7787170  19.9105778  22.1840401  34.7008018
  19.3106689  21.2105579  32.8361168  18.3721962  21.7638226  32.8717117
  19.5258541  21.2224236  31.7676296  18.9601688  19.7742939  33.3017616
  19.1183929  19.4512024  34.4960136  18.6052094  18.9622345  32.4490700
  21.4521446  24.3094463  34.1578140  20.8517017  25.2153225  34.7091599
  22.7867718  24.1155643  34.2284966  23.3013172  23.3999557  33.7352982
  23.6052685  24.8666801  35.1797333  23.3027744  24.7140007  36.2157288
  25.0416126  24.3617992  35.0666580  25.3917255  24.3178501  34.0353508
  25.9448471  25.2596130  35.9483604  25.5500546  25.2325020  36.9639931
  26.9732971  24.8989162  35.9314117  26.1225891  26.2360668  35.4977493
  25.1471329  22.9012318  35.6709023  24.8577881  22.8343182  36.7196655
  24.3597546  22.3648014  35.1413956  26.5492268  22.2341537  35.5231895
  26.8409405  22.4403400  34.4933853  27.3228455  22.6947727  36.1375542
  26.5437145  21.1476250  35.6099167  23.5471287  26.3558521  34.8525810
  23.2003975  27.1463966  35.7140846  23.8882961  26.7398300  33.6093140
  24.0269299  26.0318794  32.9024277  24.0107174  28.1699390  33.2735596
  24.6407146  28.6617279  34.0147362  24.6666088  28.2695179  31.8136234
  24.0958843  27.7257900  31.0608063  24.8347931  29.3092766  31.5330429
  26.0777092  27.6287804  31.7932911  25.9852009  26.5804234  32.0770149
  26.6793766  27.7020054  30.4298401  26.2244625  26.9397125  29.7973423
  26.4372711  28.6887341  30.0350571  27.7520008  27.5085335  30.4423828
  27.0980549  28.3008842  32.7639313  26.8644161  28.1682434  33.8203011
  28.0675411  27.8079491  32.6917496  27.2290688  29.3615551  32.5496483
  22.6686096  28.9196777  33.3253136  22.5321083  29.9973392  33.8199081
  21.6478138  28.1741581  32.8732681  21.8021851  27.2559605  32.4818802
  20.2693577  28.6326561  32.9254341  20.2350159  29.6265411  32.4792099
  19.3808098  27.7033749  32.1260147  19.2928123  26.7091999  32.5641632
  18.3913555  28.1453381  32.0087242  19.8464966  27.6385689  30.6261063
  20.8199024  27.1488056  30.5995464  19.2977715  26.8691368  30.0829906
  19.7203922  28.9979839  29.8692074  19.1166420  29.9509811  30.2922192
  20.2935848  29.1073418  28.6750336  20.6386528  28.3101254  28.1597919
  20.1591644  29.9482327  28.1319561  19.7585640  28.9523830  34.3913383
  19.4323196  30.1116657  34.6265373  19.7129917  27.8956184  35.2445526
  20.3110447  27.1081867  35.0386772  19.1795387  28.0517635  36.5961952
  18.1947689  28.5182457  36.6230621  19.0316200  26.6215668  37.3195076
  20.0399761  26.2078838  37.3331795  18.5964260  26.9154129  38.2746849
  17.9974117  25.7496452  36.4869041  17.1347466  26.3902721  36.3038635
  18.4297199  25.5399323  35.5085258  17.6398754  24.5062428  37.3103485
  18.5634060  23.9921169  37.5765572  17.2750263  24.8174381  38.2891960
  16.6861172  23.6456070  36.5577736  15.8441553  24.2884102  36.3008575
  17.1290855  23.2098179  35.6622467  16.3313637  22.4950256  37.4177704
  16.6525307  21.6960888  36.8898964  16.9104118  22.4574699  38.2444496
  15.3600044  22.6107025  37.6691284  20.0466785  29.0844727  37.3805542
  19.5155563  29.7863464  38.2830391  21.3214817  29.2554760  37.0330467
  21.8077393  28.5347900  36.5189781  22.2334404  30.3241234  37.6011696
  22.0547676  30.0861645  38.6497650  23.7062950  30.1600971  37.2496605
  23.9880466  30.2640228  36.2018433  24.5736485  31.1068840  38.0794373
  24.4591923  32.0702744  37.5825653  24.3182011  31.0264206  39.1360207
  25.6218376  30.8194942  37.9969902  23.9382114  28.8719215  37.6851654
  23.6320267  28.2502842  37.0207710  21.6312218  31.7548580  37.3969994
  21.4666595  32.4675713  38.3677177  21.3554211  32.2566490  36.1616745
  21.4259663  31.6445408  35.3613968  20.8342571  33.6093826  35.8601418
  21.3316460  34.4621277  36.3222351  20.7958355  33.7771912  34.3201256
  20.1092396  33.0833893  33.8350258  20.3970757  34.7624626  34.0785866
  22.2149982  33.4708099  33.6617622  22.7675037  34.2898293  34.1222458
  22.5373745  32.4596291  33.9101295  22.0710239  33.6428070  32.1526489
  21.5273457  34.5819283  32.0498772  23.0487022  33.7775459  31.6899471
  21.3176479  32.3743248  31.6672821  21.7757454  31.5452633  32.2066383
  20.2651997  32.3921165  31.9503803  21.3624363  32.2261810  30.2203827
  20.8876228  33.0314598  29.8380508  22.2846565  32.1185913  29.8228474
  20.8567104  31.4315357  29.8558502  19.4317036  33.7655106  36.3853340
  19.0613728  34.8296738  36.7584190  18.5893364  32.6690025  36.4552498
  18.9705410  31.8024616  36.1032677  17.1666698  32.6621666  36.9345627
  16.5136604  33.3667793  36.4195862  16.5470295  31.2775631  36.7083473
  17.2209702  30.4696331  36.9932289  15.6944027  31.2958527  37.3871651
  16.0362701  30.9468021  35.2834625  15.3292551  31.6719646  34.8805122
  16.9228325  31.0524406  34.6581955  15.4947443  29.5285511  35.0994301
  14.4116278  29.1676521  35.5443268  16.1182079  28.7203102  34.2503357
  16.9151611  29.0423336  33.7199821  15.7991810  27.7677078  34.1460686
  17.2648392  32.8695717  38.4573174  16.7032337  33.8753433  38.8878708
  18.0142403  32.0511665  39.1980247  18.4814720  31.3001194  38.7104568
  18.3212070  32.2874146  40.6210098  17.3634663  32.1412506  41.1204796
  19.3839912  31.3500538  41.1046867  18.9838829  30.3409538  41.0060425
  20.2634125  31.4961319  40.4774895  19.7408733  31.6163673  42.5276718
  20.1654072  32.6091003  42.6771851  18.5959835  31.3502064  43.5356407
  17.8604622  32.1157990  43.2886848  18.1299801  30.3925056  43.3037987
  18.9790821  31.4495068  44.5512581  20.8482857  30.6257992  42.8910484
  21.1828823  30.6714516  43.9274178  20.4188271  29.6317215  42.7666626
  21.6892815  30.6419849  42.1978226  18.7958584  33.7328529  40.8318825
  18.3492527  34.3724213  41.7512016  19.6774979  34.2816429  40.0124588
  20.0710468  33.6043396  39.3749008  20.3029232  35.5984001  40.1661072
  20.5109558  35.7430077  41.2262535  21.6133442  35.6361008  39.3948059
  21.5253220  34.9801407  38.5287399  21.8785534  36.6591835  39.1282234
  22.8470650  35.1265450  40.1092758  22.6936646  34.0652275  40.3046761
  24.0244198  35.0191193  39.1905746  24.7892094  34.5565758  39.8144684
  23.7457733  34.3870125  38.3474274  24.2719688  35.9859695  38.7523689
  23.2357159  35.8279648  41.4187126  23.6528740  36.8007965  41.1585693
  22.3651905  35.7748871  42.0725212  23.9856205  35.1916771  41.8886948
  19.4049454  36.7977257  39.8863564  19.3564701  37.7490921  40.6812820
  18.5087643  36.7221794  38.8885307  18.5029755  35.8896790  38.3166809
  17.4553108  37.6863632  38.5984421  17.8691998  38.6935310  38.6475449
  16.8758793  37.5202141  37.1570587  16.2223454  38.3838425  37.0340271
  17.6786518  37.5946846  36.4234924  16.1275082  36.2444000  36.8822975
  16.8864975  35.5038795  36.6299667  15.3622503  35.9231758  37.5889091
  15.5025406  36.4124641  35.5289574  16.1594086  36.8582687  34.5214691
  14.4425545  35.7985535  35.3349075  16.2563972  37.7353706  39.4974289
  15.6661329  38.8089180  39.7337532  16.0225582  36.6163979  40.2086411
  16.3199348  35.7034760  39.8952065  15.1974888  36.6172295  41.4062233
  14.3368435  37.2759972  41.2903786  14.6223078  35.2030373  41.6591492
  14.1532078  34.8374214  40.7457123  15.4893713  34.5547943  41.7859840
  13.6555271  35.2165337  42.7923737  13.3435946  34.1983376  43.0249100
  14.0058613  35.7022285  43.7031250  12.2623911  35.9411888  42.4495506
  12.4464378  36.9669762  42.1301918  11.6837215  35.2847557  41.7996788
  11.4015112  36.0359230  43.6501999  11.9626350  36.6357651  44.3667412
  10.5803041  36.6860161  43.3483810  10.9232121  34.7075500  44.1721802
  10.5743990  34.2066231  43.3675003  11.7138319  34.1561050  44.4737167
  10.1899500  34.7892799  44.8619232  15.9414778  37.2542152  42.6580200
  15.2707195  37.9551392  43.4283028  17.2003403  36.9209938  42.9770241
  17.6361809  36.2131729  42.4033203  17.9856358  37.5407219  44.1004868
  17.4300060  37.4127617  45.0294647  19.5078049  37.0030518  44.2952271
  20.0351830  37.0655899  43.3433533  20.3657780  37.9392433  45.1051865
  20.0144062  37.9035492  46.1363869  21.3770752  37.5367661  45.1634636
  20.4014893  38.9383316  44.6708603  19.3549938  35.5465469  44.8413773
  18.9228287  35.6578789  45.8358307  18.5714436  35.0691376  44.2529640
  20.6378250  34.7551575  44.8532104  21.1890812  35.1931572  45.6853027
  20.3796883  33.7035980  44.9784470  21.1307602  34.9137726  43.8940659
  17.9383717  39.0350876  43.8976631  17.5937443  39.7639885  44.8127098
  18.2356415  39.5687485  42.6980743  18.7033176  39.0035477  42.0038643
  18.1198387  41.0294914  42.4425163  18.6845608  41.5173492  43.2369881
  18.6775436  41.3535385  41.0058594  18.1630020  40.7983398  40.2215729
  18.4926262  42.8643990  40.8262634  19.1271000  43.1830940  39.9992332
  17.4414272  43.0754433  40.6299438  18.9209423  43.4071465  41.6689186
  20.1115074  41.0124474  40.7621040  20.7886162  41.8043442  41.0822983
  20.4067745  40.1385117  41.3427620  20.3202190  40.7008553  39.2955437
  20.1466389  41.5404015  38.6223946  21.3437614  40.3263054  39.3087044
  19.6222420  39.9279175  38.9738388  16.6488934  41.5432014  42.7504425
  16.5125599  42.6863060  43.1322098  15.6136713  40.8083534  42.4361572
  15.8094940  39.9236336  41.9900360  14.1980600  41.3516769  42.5457840
  14.1245041  42.2943077  42.0034370  13.1883755  40.2905693  41.8714867
  13.4165668  40.1415215  40.8161125  13.3592806  39.3865242  42.4559441
  11.7246265  40.6410866  42.1254387  11.0579195  39.8516808  41.7784004
  11.5399895  40.5477104  43.1956215  11.3117285  41.9930687  41.5954895
  11.8868933  42.4313812  40.6183205  10.4346619  42.6422119  42.1613464
  13.8790665  41.5316582  44.0251770  13.4322462  42.5674706  44.5396843
  14.1311865  40.4730721  44.8576050  14.4446344  39.5924644  44.4750137
  13.8725348  40.5218506  46.3208275  12.8673773  40.8685684  46.5607262
  14.1236467  39.1272812  46.8114815  15.0975761  38.8081055  46.4404221
  14.2217884  39.0476685  47.8941307  12.9906044  38.2097664  46.4315987
  13.1431322  37.9358139  45.3876724  13.0251713  37.2729912  46.9877968
  11.5679226  38.6708260  46.6252556  10.6646509  38.0812607  46.0040359
  11.2413645  39.4500389  47.5988464  14.8082886  41.5110512  47.1173668
  14.5609255  41.8083305  48.2823143  15.7627268  42.0364571  46.4397316
  15.9086475  41.7165718  45.4929047  16.8277149  42.9800568  47.0379372
  16.5442715  43.1885033  48.0695915  18.1642437  42.2150040  47.1844940
  18.4388256  41.6975708  46.2652740  18.9098759  42.9405289  47.5096893
  18.0620213  41.0919762  48.1787300  18.1269131  41.2316589  49.3786964
  17.8322105  39.8805237  47.7603035  17.7165527  39.1388092  48.4360085
  17.8938732  39.7546692  46.7600746  16.9257164  44.2921791  46.2322845
  17.6393795  45.1417770  46.7153053  16.1656971  44.5413475  45.1366692
  15.5236845  43.7916451  44.9225121  16.2206802  45.6485939  44.1410599
  15.8480291  45.3125229  43.1734390  15.3379288  46.8122253  44.4655418
  15.6002426  47.2670097  45.4207687  15.4175053  47.5758476  43.6918182
  13.9675674  46.3594627  44.6133308  13.2074223  45.6344604  43.6766243
  13.5731716  45.4471664  42.7539902  12.0777569  45.2576332  44.2203217
  11.4346209  44.5021439  43.7936897  11.9749174  45.8690262  45.4260025
  11.1936054  45.7700081  46.0583382  13.1783724  46.4558334  45.7228432
  13.5054998  46.9342766  46.6341476  17.6375141  46.0473442  43.7599564
  17.8279209  47.2537880  43.5616798  18.6041794  45.1354980  43.7154503
  18.2235641  44.2282143  43.9436455  20.0098763  45.4481392  43.5677414
  20.2858105  46.1648827  44.3412018  20.8915157  44.2191620  43.7614632
  20.9069519  43.6756401  42.8167648  22.3372192  44.4816628  44.0917740
  22.7326508  43.5435524  44.4812393  22.8746109  44.7984772  43.1979408
  22.3207703  45.2309113  44.8832703  20.3600426  43.3558617  44.7405090
  20.3659210  43.9106102  45.5239754  20.2828045  46.0720978  42.1466942
  19.5241394  46.0604515  41.1574669  21.5541630  46.4580231  42.0009155
  22.0420456  46.6799507  42.8569641  22.3115292  46.8611565  40.7633629
  21.9855938  46.2648773  39.9111214  22.0322952  48.3681450  40.4524879
  22.5981426  48.7391357  39.5979233  20.9612522  48.5699730  40.4373016
  22.6597118  49.3573456  41.5370903  22.3030815  49.1193466  42.5392265
  23.7463799  49.4295769  41.4920006  22.2110310  50.8223076  41.2566757
  22.4328365  50.9877510  40.2023849  21.1398926  50.9104195  41.4383278
  23.0334911  51.6828461  42.1861496  22.8946438  51.3813972  43.2243919
  24.0828056  51.4063759  42.0831871  22.6767521  53.1202393  41.9731522
  22.7473145  53.3007011  40.9819107  21.7596321  53.2733307  42.3675499
  23.2720051  53.7146873  42.5320816  23.8277416  46.4652405  40.9223175
  24.3966312  46.3474159  42.0115623  24.5576782  46.3069153  39.8084335
  24.0261078  46.2969551  38.4332809  23.4536037  47.2098503  38.2690849
  23.4255943  45.3917999  38.3428268  25.1620731  46.2135735  37.5434494
  25.6000137  47.2092400  37.4730110  24.8521786  45.7710457  36.5967522
  26.1619720  45.3312111  38.3900871  27.1935329  45.5303307  38.0996857
  25.9055328  44.2873230  38.2094231  25.8676052  45.6660919  39.8317184
  25.7893810  44.8075333  40.4986916  26.9211941  46.6357880  40.5156326
  27.7796383  46.1373215  41.2530174  26.8011417  47.9432487  40.2596512
  26.1376457  48.1389160  39.5237274  27.6724033  49.0239601  40.8573570
  28.6483536  49.0320282  40.3720169  27.0488319  50.3368263  40.5727386
  26.0884762  50.3318672  41.0882912  27.6555977  51.0628471  41.1138802
  26.9112148  50.8636589  39.1415367  26.7060776  51.9340897  39.1273994
  27.8871403  50.6350021  38.7133026  25.8187485  50.1576004  38.2857056
  24.8213120  49.5916138  38.8191719  26.0650024  49.9616928  37.0686607
  27.8439808  49.0190277  42.4081078  28.9445286  49.3340569  42.8823509
  26.8697433  48.5667343  43.1608887  26.1729031  48.0529060  42.6407967
  26.8891754  48.4617310  44.5976410  27.4808083  49.3083458  44.9459457
  25.3849068  48.4464912  45.0400314  24.8052044  47.8165703  44.3653145
  25.3042202  48.0372543  46.0470657  24.8013363  49.8290901  45.0574570
  25.5670528  50.8348274  44.9462318  23.5261078  49.8892174  45.1895561
  27.4647770  47.1173859  45.1215515  27.6012783  46.9535599  46.3899345
  27.7127857  46.0954285  44.2515907  27.5312634  46.2496300  43.2700768
  28.1748447  44.7526627  44.4787140  27.8557606  44.3264542  45.4298363
  27.5390110  43.7556076  43.5092049  27.6919289  44.0612259  42.4741631
  28.1285496  42.3334846  43.6356697  29.2100487  42.3268318  43.4999580
  27.9531536  42.0633545  44.6770020  27.5322514  41.7594414  42.9264450
  26.0168972  43.6887169  43.7912636  25.5304680  44.6601372  43.8797302
  25.5127907  43.1689987  42.9764824  25.8537331  43.0565414  44.6640968
  29.7102966  44.7908325  44.5711021  30.4438152  45.2967033  43.6737442
  30.2222290  44.2684898  45.7012634  29.5665607  43.8239822  46.3278503
  31.6428661  44.1487198  45.9289856  32.0983849  45.0651703  45.5538483
  31.9211998  44.0005379  47.4235458  31.4835835  43.0970993  47.8482742
  33.4469681  43.8941841  47.5987625  34.0863380  44.6164627  47.0912018
  33.6503181  43.9814682  48.6660652  33.8516655  42.8862762  47.5069160
  31.4522076  45.2754478  48.2051430  30.3849430  45.1811180  48.4055176
  31.9597549  45.3292656  49.1682663  31.4941921  46.2249680  47.6715202
  32.2059250  42.9489365  45.2079735  33.2245255  43.0642509  44.5869102
  31.6297646  41.7487564  45.3726158  30.7450867  41.6916885  45.8565445
  32.1284599  40.4845009  44.9183159  32.4488297  40.5924492  43.8820686
  33.2570534  40.0937042  45.8601723  33.7039146  39.2730446  45.2989845
  33.9644623  40.9158669  45.9684410  32.7910576  39.6895180  47.2361870
  32.1459846  40.4522057  47.6724129  32.2984886  38.7262344  47.1036606
  33.9212570  39.5198898  48.2296104  35.0919533  39.2059097  47.8672447
  33.6807671  39.5032845  49.5149078  34.4403229  39.2082939  50.1116982
  32.7564468  39.6218414  49.9043617  30.9626045  39.4684258  44.9527130
  29.8403034  39.7514305  45.3619308  31.2295380  38.2197304  44.5077286
  32.1597404  37.9687538  44.2046890  30.3201370  37.0874825  44.6133232
  29.7670670  37.1922913  45.5467186  29.3308773  37.2097130  43.4536057
  29.0938797  38.2472229  43.2180061  29.8601036  36.7545128  42.6164589
  28.0034218  36.4316597  43.6750107  28.2838039  35.5234222  44.2084808
  27.4062996  36.9270439  44.4406052  27.0462952  35.9728165  42.2505760
  27.0929089  37.5208397  41.3228607  26.3111858  37.5417252  40.5635376
  27.0117474  38.3184128  42.0613670  28.0487251  37.5692635  40.8011589
  31.0914345  35.7181091  44.5806351  31.8991032  35.4893875  43.7026749
  30.9244270  35.0080910  45.7174301  30.0975533  35.2247810  46.2554092
  31.5597973  33.7564926  45.9541893  32.4156685  33.5805435  45.3025589
  31.9403229  33.5452614  47.3621101  31.0915470  33.9658623  47.9013481
  31.8043289  32.4849854  47.5752296  33.3092041  33.9748421  47.8878822
  34.0801353  33.6102829  47.2090073  33.3321114  35.4657669  47.8693237
  32.4257736  35.7290115  48.4146271  34.2189293  35.8581390  48.3670273
  33.2480431  35.8044930  46.8367081  33.6860428  33.4112854  49.2469521
  33.1103477  33.9854813  49.9728851  33.4183388  32.3565140  49.3093300
  34.7455292  33.6158791  49.4009781  30.4953403  32.6729851  45.5604210
  29.6167221  32.3292122  46.3433571  30.6069260  32.1420174  44.3539772
  31.4804401  32.2934761  43.8701019  29.7621689  31.0341816  43.7930756
  28.7552242  31.1701889  44.1876183  29.7026176  31.1136284  42.2124405
  30.3246250  31.8867683  41.7613716  30.1000824  30.1900349  41.7916031
  28.3055115  31.2585964  41.5699158  27.5850410  31.9574471  41.9949226
  28.4135246  31.7095394  40.1248093  27.4101181  31.6950493  39.6992950
  28.8417358  32.7105446  40.0726204  29.1685600  31.0860653  39.6459618
  27.4981689  29.9741936  41.5528412  26.5406361  30.0505238  41.0376663
  28.0510559  29.1652584  41.0753059  27.3132744  29.6982574  42.5909996
  30.3240948  29.6790428  44.2754974  31.4586449  29.4719944  44.6268005
  29.4171906  28.6800747  44.1932449  28.4482441  28.7987728  43.9341049
  29.8267803  27.3177586  44.5466156  30.8534985  27.1594143  44.2166405
  29.9191494  27.3064747  46.1306229  30.6915321  27.9794235  46.5029984
  28.9735622  27.4820766  46.6435814  30.3096180  25.9977322  46.5163422
  31.2388744  25.8433628  46.3312607  28.8674374  26.3504467  43.9095764
  27.6997929  26.6645432  43.4806404  29.3460197  25.1070995  43.6702805
  30.2534256  24.8452072  44.0282326  28.6337662  23.9324722  43.1135025
  27.5803909  24.1406479  42.9259834  29.1174145  23.7399349  41.6776733
  30.1626396  23.4356709  41.6226578  28.5535183  22.9167252  41.2389870
  28.8519230  24.5667381  41.0188828  28.9766598  22.6118584  43.8594933
  30.0932503  22.4485874  44.4380875  28.1237469  21.5730915  43.8728561
  27.3081245  21.6498184  43.2821159  28.3969193  20.2669029  44.3984795
  28.7764988  20.4687176  45.4001236  27.1733494  19.3792744  44.4583740
  27.5794964  18.3684750  44.4961891  26.3767071  19.9314384  45.6398315
  26.0423470  20.9497986  45.4417305  25.4443207  19.4113045  45.8594055
  26.9768105  19.8599873  46.5469513  26.4296684  19.5241680  43.3200531
  26.7243042  18.7415752  42.8485222  29.5516415  19.5563831  43.7428093
  29.8201199  19.7858429  42.5822639  30.2032547  18.6380501  44.5237846
  29.9542618  18.2615547  45.9691887  29.0982761  17.5870113  45.9496422
  29.7729073  19.1322212  46.5993843  31.1856499  17.4697132  46.3898506
  30.7500935  16.7695999  47.1027565  32.0138855  18.0485287  46.7986259
  31.5017204  16.7850780  45.0976143  30.9057178  15.8725195  45.0868378
  32.5385780  16.4491444  45.1109848  31.3131542  17.7774010  44.0058708
  32.1656952  18.4436588  43.8740501  30.9105091  16.8988361  42.7647438
  31.8047161  16.3703671  42.1038971  29.5968227  16.6913624  42.4624939
  28.8443947  17.1687374  42.9379539  29.1444740  15.8027210  41.3179054
  29.7837868  14.9417582  41.1226578  27.7371845  15.2250633  41.7065201
  27.3112125  14.8399153  40.7800713  27.8533401  14.4749699  42.4888077
  26.6983891  16.1413631  42.3576927  26.9911423  17.3328800  42.2612610
  25.7175159  15.6291389  42.9763565  28.9795570  16.6429138  39.9652786
  28.8268909  15.9576702  38.9448242  29.0299549  17.9624271  39.9067345
  29.3097820  18.5076027  40.7095909  28.7981319  18.7133503  38.6975517
  28.1289425  18.1992168  38.0076561  27.9738121  20.0187550  39.0458069
  28.6006126  20.5293407  39.7769203  27.8587017  20.5784607  38.1175957
  26.6797066  19.7443867  39.7409477  26.8283291  19.3163376  40.7323036
  26.1265583  21.1889477  39.9999924  26.7987995  21.7887554  40.6135216
  25.9703197  21.8311329  39.1332245  25.1895943  21.0843792  40.5470390
  25.7152863  18.9377365  38.9207649  24.8142872  18.9272995  39.5341034
  25.5658779  19.3295345  37.9146461  26.2040138  17.9640617  38.8860626
  30.1512527  19.0126476  37.9826088  31.1616364  19.4617043  38.5620270
  30.3063335  18.7416420  36.7166061  29.5525322  18.3340435  36.1820526
  31.5348892  18.7110882  35.8697929  32.3289795  19.3187218  36.3037338
  32.0438766  17.2440548  35.7857094  31.2196693  16.7039127  35.3198471
  32.9656906  17.1872082  35.2068100  32.2151756  16.6008701  37.1688156
  33.0685844  16.9466801  38.2311821  33.9061203  17.4953194  38.0984116
  32.9234161  16.0400143  39.2216492  33.6276703  15.9125662  40.0304680
  32.0601997  15.0862808  38.7758751  31.9998741  14.2028704  39.2617188
  31.5596676  15.4257383  37.5767174  30.7850971  14.9735708  36.9750671
  31.3813782  19.3352242  34.4742393  32.3639107  19.3949680  33.7063599
  30.1748047  19.7266064  33.9903412  29.3105564  19.6002121  34.4974861
  30.0765724  20.3399105  32.6558800  30.5208817  19.6989155  31.8944263
  28.5222015  20.5540257  32.3505402  28.4383888  20.5795841  31.2640667
  27.8518944  19.7864418  32.7373238  28.1185608  21.4858570  32.7466011
  30.8254719  21.6761894  32.5406227  31.5592518  21.8849373  31.5901413
  30.6080360  22.6944447  33.4531288  29.9669418  22.5135193  34.2123184
  30.9887486  24.1519852  33.1880226  31.9784966  24.1759777  32.7320328
  29.9867706  24.7535114  32.1968956  30.0113697  24.1145248  31.3141766
  28.4602547  24.7626228  32.6931458  28.1787071  23.8669872  33.2469177
  28.4064121  25.5707226  33.4226494  27.8996639  24.8890972  31.7669487
  30.3203945  26.1706505  31.7025394  29.6736336  26.5332432  30.9035912
  30.3872452  26.9412823  32.4704933  31.2758789  26.1308250  31.1795044
  30.9523315  25.0425262  34.4835167  30.0673923  24.8821430  35.3443756
  31.8901844  26.0197163  34.6263580  32.6414795  26.1574211  33.9655304
  31.9222908  26.8863449  35.8422585  31.9155693  26.2677517  36.7397003
  33.3097610  27.6521282  35.8973694  33.3236008  28.0996647  34.9035797
  33.3061790  28.5422306  36.5264969  34.5082474  26.8030758  36.0611191
  34.7941971  26.4530926  37.3946152  34.0958481  26.7383194  38.1675034
  35.9616013  25.7519493  37.7007637  36.0961151  25.4856510  38.7387390
  36.8481941  25.3229370  36.6540985  37.6937675  24.6871452  36.8713150
  36.5884438  25.7339172  35.2769737  37.2399712  25.4320889  34.4702454
  35.4193306  26.5374832  35.0098343  35.1783943  26.8204136  33.9957848
  30.6977901  27.8980350  35.8431435  30.6471519  28.7945862  35.0364151
  29.8206291  27.8113728  36.8384132  29.7770729  26.7172832  37.8195572
  30.4798031  26.9642029  38.6153564  29.8030910  25.6816959  37.4804688
  28.3283234  26.7385769  38.3497887  28.2836952  26.5024300  39.4129639
  27.8341446  25.9531498  37.7779541  27.7674332  28.1452084  38.0297203
  28.1151772  28.7992611  38.8293381  26.7007809  28.3265915  37.8976135
  28.5447464  28.5128212  36.7909584  27.9440861  28.2102337  35.9331932
  28.6774426  30.0114498  36.6446190  27.8070259  30.5621014  36.0266647
  29.8069210  30.6420364  37.1791954  30.4510708  30.1063137  37.7432632
  30.0363998  32.1241074  36.9881058  29.2887001  32.6819572  37.5518875
  31.2065945  32.3588791  37.8308487  31.9391479  31.6792545  37.3954391
  31.5870476  33.3603668  37.6298943  31.1063881  32.1201591  38.8896561
  30.1015224  32.5796738  35.5614357  29.8938198  33.7934074  35.2520332
  30.4191666  31.6987953  34.6481934  30.5469475  30.7330952  34.9150162
  30.1747971  31.9083328  33.1923447  30.8838310  32.7137833  33.0009689
  30.5022507  30.6766033  32.3806572  31.4599895  30.2280846  32.6446075
  29.7559910  29.8909416  32.4986954  30.6227722  30.9817467  30.8734226
  29.7028847  31.3469620  30.4167767  31.4462643  31.6577377  30.6432114
  30.8845425  29.6142178  30.1374607  31.6311378  29.0303135  30.6757469
  29.9265442  29.0980186  30.1997509  31.3483810  29.7706280  28.7066250
  31.5711956  28.8050327  28.2526665  30.6285992  30.2281723  28.0279007
  32.6154671  30.4833241  28.5602589  32.3967056  31.4537029  28.7352104
  33.2675896  30.2190914  29.2848396  32.9880867  30.2977180  27.6400375
  28.8200378  32.4814377  32.8377533  28.7720432  33.3464355  31.9829254
  27.7502899  31.9128017  33.4246025  27.8796921  31.2390594  34.1658363
  26.3495922  32.4635391  33.3331261  26.0477104  32.2503700  32.3076859
  25.5085621  31.6520882  34.3742714  24.4533272  31.8269005  34.1644592
  25.6981506  30.5855255  34.2534447  25.7851372  31.9885273  35.3734818
  26.3700085  34.0613785  33.4974289  25.5651455  34.8203545  32.9377785
  27.2339249  34.5587997  34.3758926  27.9097710  33.9151611  34.7619743
  27.2018280  35.9175415  34.8588066  26.1791229  36.2913055  34.8090591
  27.5252571  35.8809547  36.3965797  28.6016273  36.0369530  36.4686546
  26.9824696  37.2441978  36.9632950  27.1375103  38.1133232  36.3240089
  25.9023113  37.1455002  37.0710869  27.3974667  37.3655319  37.9638672
  27.0238457  34.6873169  37.2748528  27.5512600  33.7746506  36.9974213
  27.1985378  34.8756409  38.3341560  25.9399624  34.5980225  37.2018318
  27.9909172  36.9559059  33.9603424  27.4938068  38.0790443  33.7813454
  29.0444584  36.4983978  33.3126144  29.1815662  35.5057220  33.4387016
  29.8004341  37.2287064  32.2146149  30.2057400  38.1341896  32.6662025
  30.9335938  36.3405800  31.7209187  31.2782993  35.7923279  32.5976753
  30.5689106  35.6963768  30.9208508  32.0941200  37.1999397  31.1732483
  31.6502342  37.7080421  30.3171539  32.5199890  37.9031105  31.8889904
  33.1834755  36.2382164  30.5892582  32.7043304  35.3593903  30.1577721
  33.8053360  36.5966339  29.7689323  34.1426773  35.8697090  31.5575066
  34.1336632  36.2349777  32.4990997  35.1371460  34.9745331  31.2586880
  35.2791824  34.4648285  30.0646362  34.8206100  34.8766403  29.2644958
  36.0456581  33.8215256  29.9276237  36.1016960  34.8093414  32.0478554
  36.8482971  34.2133408  31.7200298  36.2172585  35.4567184  32.8144379
  28.9191246  37.5910072  31.0509815  29.2098141  38.4823799  30.3063965
  27.7502117  36.9023590  30.9316750  27.6084595  36.1845131  31.6278820
  26.7894020  36.9316788  29.8789349  27.2589588  37.2478294  28.9474506
  26.2416267  35.4781380  29.5791283  27.1060200  34.9028931  29.2474384
  25.9710846  35.1158524  30.5709229  25.0957127  35.2779503  28.6062164
  25.0464687  34.1961098  28.4825230  24.1647263  35.6104050  29.0653973
  25.3061714  35.9986572  27.2608624  26.3685589  36.6301384  26.9602966
  24.5525532  35.8930168  26.3583622  25.7219524  38.0260124  30.1087551
  24.9882374  38.3742142  29.1759300  25.5613461  38.5900803  31.2907734
  26.2174816  38.2107887  31.9584007  24.5316410  39.5426140  31.6757259
  23.6452370  39.2549744  31.1103497  24.2036400  39.3663063  33.1588516
  25.2054272  39.4723053  33.5751343  23.5054436  40.1372871  33.4847527
  23.6231995  37.9941940  33.6093407  24.1444511  37.1555557  33.1477356
  23.6057720  37.9362335  35.1818199  23.2615261  36.9594917  35.5217552
  24.5749779  38.0656319  35.6634827  22.9258461  38.7263260  35.5004997
  22.1876507  37.7660446  33.0969734  21.9922562  36.7268257  33.3614464
  21.5204201  38.4437599  33.6295204  22.0586586  37.9632530  32.0327492
  24.9831409  40.9579163  31.4022522  26.1850891  41.2474022  31.4256744
  24.0123768  41.8172379  31.2038651  23.0532169  41.5033875  31.2439899
  24.2331467  43.2600288  30.9362602  25.1014977  43.2489624  30.2775154
  23.0217533  43.9226570  30.1516171  23.0264473  43.6180649  29.1050510
  22.0839863  43.4834213  30.4918575  23.0252132  45.3140488  30.1950016
  22.1338749  45.5262337  30.4815235  24.5481625  44.0001793  32.3248405
  23.7344093  43.8080330  33.2190208  25.6111698  44.7173157  32.4953690
  26.1775246  45.0095329  31.7118206  26.1569729  45.2853928  33.7402496
  26.9241943  46.0341949  33.5433807  25.3746014  45.7227631  34.3604965
  26.8108730  44.2912979  34.6954765  27.8463135  44.5795326  35.2173271
  26.1858406  43.1499901  34.8925133  25.2836533  43.0290031  34.4548836
  26.7612801  42.1328125  35.8133621  27.0928764  42.7087517  36.6773262
  25.6415482  41.2022667  36.3429070  25.2129345  40.8783607  35.3945007
  26.0657272  40.2668037  36.7077026  24.5923309  41.8146858  37.1906128
  23.6005230  42.6130257  36.6791229  23.4591064  42.8684616  35.6393394
  22.7966404  43.0240974  37.6595001  21.9704819  43.5942688  37.5478287
  23.3427124  42.7537918  38.8954735  22.9144058  42.9758987  40.2289848
  22.0328026  43.5876694  40.3511009  23.5520077  42.3066521  41.2547874
  23.2402477  42.4476013  42.2791634  24.6893692  41.4394112  40.9879799
  25.1060219  40.8534508  41.7938690  25.1040783  41.2394180  39.7163658
  25.9444542  40.5615082  39.6917305  24.4272404  41.8825302  38.6350746
  27.9732304  41.3352661  35.2250557  28.6550655  40.5244217  35.8657036
  28.2642555  41.5801239  33.9992676  27.6771736  42.2447891  33.5158844
  29.5473709  41.0601730  33.3770638  29.3526821  39.9900131  33.4474869
  29.5576935  41.3976326  31.8660526  30.3772278  40.8032608  31.4620857
  28.6524067  40.9297600  31.4791927  29.6617146  42.8356056  31.3379707
  28.7460098  43.3683205  31.5944881  30.4257545  43.3775787  31.8952942
  29.8137951  43.0228310  29.7948017  29.6661797  42.0467186  29.0193882
  30.1523800  44.1566696  29.2512455  30.1131268  44.9321899  29.8971043
  30.2361927  44.1566200  28.2447281  30.8932648  41.5583763  34.0725784
  31.8237686  40.7620506  34.3524475  30.8743324  42.8169708  34.4382744
  30.1254368  43.4382095  34.1674957  31.9042053  43.3436317  35.2810974
  32.8570137  42.9943314  34.8833008  31.7946453  44.8957863  35.1936646
  30.8012199  45.0345497  35.6202240  32.6096153  45.3716698  35.7390594
  31.7909393  45.4798012  33.8099136  32.9139290  45.5363274  33.0042267
  33.8869133  45.2117119  33.3423538  32.7446938  46.0427361  31.6934299
  33.6963577  46.2356339  31.2206440  31.4913769  46.5502396  31.2116013
  31.4791451  46.9520988  29.8555088  32.3503990  46.8687286  29.4610844
  30.3952885  46.5714455  32.0777359  29.4550743  46.9077873  31.6663094
  30.5474625  46.0150681  33.3884315  29.6937218  45.8972359  34.0393066
  31.8806782  43.0218964  36.7898483  32.7789497  43.4922981  37.5434952
  30.8652878  42.3173409  37.3177948  30.0828056  41.9604530  36.7882156
  30.9522038  41.8853493  38.6733704  31.2682819  42.7636490  39.2362137
  29.5804749  41.4616547  39.3494835  29.2079144  40.6016197  38.7930260
  29.7392330  40.9436111  40.6993408  28.8103313  40.4134331  40.9094467
  30.5772629  40.2566109  40.8169594  29.8772564  41.7118950  41.4601250
  28.5264950  42.5716057  39.2315102  28.4592800  42.8481560  38.1793213
  27.5267582  42.3257446  39.5895386  28.8122425  43.4816399  39.7590370
  32.0836754  40.8161201  38.7903862  32.1486931  39.9224777  37.9243507
  32.9698067  40.9885063  39.7680397  33.1478539  42.1171150  40.6544380
  32.2861519  42.2179985  41.3142853  33.1857605  43.0055237  40.0240479
  34.4875603  41.8569374  41.3919754  34.4516525  41.6554909  42.4625969
  35.0503197  42.7866936  41.3085289  35.1658859  40.7403069  40.5555725
  35.6602364  39.9984856  41.1828041  35.9180107  41.1050568  39.8560219
  34.0331688  39.9925194  39.9323425  34.3280411  39.7110710  38.9214325
  33.5526009  38.8648720  40.7492256  32.9736938  39.0282402  41.8398209
  33.6939392  37.6440239  40.2614288  34.1587830  37.4806366  39.3797684
  33.2372360  36.3802910  40.7660904  32.8479500  36.6061859  41.7588272
  32.0515671  35.7343102  39.9674530  32.5042419  35.4342613  39.0223770
  31.3030453  34.5057564  40.6125336  32.0033913  33.6762161  40.7099113
  30.9723701  34.5972900  41.6471252  30.4720860  34.1009407  40.0348396
  30.9859791  36.7706871  39.7136993  30.9741325  37.4231262  40.5867882
  31.2596531  37.3891373  38.8588753  30.0384903  36.2821465  39.4863281
  34.3992004  35.3900871  40.9880562  35.4519653  35.5100174  40.3692703
  34.2592773  34.3779411  41.8306084  33.5150337  34.3501816  42.5128365
  35.0612793  33.0934792  41.7548141  35.4592743  32.8824844  40.7622490
  36.2751198  33.0718765  42.7353477  36.9856529  33.8745422  42.5379372
  35.7911835  33.2070503  44.1935577  35.1919441  34.0995674  44.3736153
  35.1350288  32.4402199  44.6053009  36.6033821  33.2700920  44.9177551
  37.0340843  31.8425102  42.8063850  37.2353897  31.7480469  43.7402763
  34.0814972  31.9517021  42.2157135  33.1970787  32.3415298  43.0244942
  34.2825012  30.7460651  41.5953522  34.9065361  30.7188587  40.8016624
  33.8255196  29.4464588  42.0982590  32.9663734  29.5900555  42.7535057
  33.4069290  28.6350307  40.8001747  34.2851791  28.5197201  40.1649742
  33.2011833  27.6280537  41.1631737  32.0781364  29.4876423  39.8440666
  32.9064217  30.4939365  39.5504417  34.8422012  28.6519585  42.9882126
  36.0542412  28.6647205  42.7955246  34.2999115  27.9004364  43.9365158
  33.2904930  27.8676472  43.9264374  34.8405533  27.0274487  44.9491501
  35.7966080  26.6780205  44.5593300  35.0370064  27.7180958  46.3569717
  35.6487160  27.0748749  46.9895744  35.6718979  28.5977116  46.2507248
  33.7142296  28.0272636  47.1157188  33.1030655  28.3803215  46.2850952
  33.2982101  27.1306782  47.5752487  33.8837624  29.4090080  48.2391853
  32.0566139  29.7279510  48.3981400  31.9334526  30.6569633  48.9548035
  31.6255779  29.8360195  47.4028320  31.5836220  28.8775387  48.8892365
  33.9098091  25.8154984  45.1703262  32.7023239  25.9954834  45.3273506
  34.4253731  24.5823803  45.1234665  35.4181023  24.5092888  44.9524612
  33.7029495  23.3365650  45.2817993  32.8858681  23.3213406  44.5605164
  34.6738701  22.1888371  45.1593437  35.4061470  22.3552723  44.3693008
  35.2398262  22.0790691  46.0844116  33.8038368  20.8639965  44.8159714
  32.7975273  20.9405918  45.2277603  33.7520294  20.7381744  43.7344933
  34.4616280  19.6569061  45.3829041  35.1854858  18.8616714  44.6727448
  34.4344025  19.4729786  46.6395836  34.8338356  18.5844383  46.9061508
  33.7833862  19.9233837  47.2668114  33.0431023  23.3004932  46.7001877
  33.6569061  23.6394196  47.7197037  31.7586975  22.8766594  46.7545853
  31.3836670  22.5246220  45.8853798  31.0356045  22.6385689  47.9599991
  31.1056633  23.5242023  48.5915413  29.5462341  22.2932720  47.6923180
  29.2058773  23.1817760  47.1605110  29.4513397  21.4583282  46.9980812
  28.7064285  22.1058426  48.9668236  28.8935490  21.1754112  49.5029030
  29.0855103  22.8858070  49.6271629  27.2234440  22.0853825  48.6198273
  26.6048889  21.1930256  49.1480598  26.7812691  22.9046097  47.8007927
  31.7497234  21.5317917  48.7772293  32.3337555  20.6280327  48.1760330
  31.6490536  21.5109444  50.0585899  31.1296024  22.2727833  50.4707527
  32.1487656  20.3954449  50.9215660  33.1847229  20.2624855  50.6097755
  31.9183617  20.7757568  52.3991814  32.1512260  21.8138161  52.6364670
  30.8427525  20.7306213  52.5698624  32.5104866  19.8282948  53.4403419
  32.3330383  18.8465481  53.0012665  33.5931625  19.9517937  53.4661140
  31.7099609  19.7313919  55.0437202  32.1851807  18.0113640  55.3983345
  32.0233345  17.3577633  54.5411797  33.2150726  18.0153008  55.7552681
  31.5553551  17.6229362  56.1986771  31.4096756  19.0854168  50.4410706
  30.1695843  19.0857601  50.3758659  32.0887337  17.9447918  50.3331985
  33.0597496  18.1505775  50.1464272  31.5932121  16.5995960  50.0617523
  30.8285313  16.6239910  49.2853699  32.7835236  15.7408152  49.5107880
  32.9329948  16.0352077  48.4719925  33.6852570  15.9577341  50.0834351
  32.3772087  14.2396278  49.3988533  31.2445259  13.7639160  49.6394882
  33.2230949  13.4380617  48.9809723  31.0060883  15.9781017  51.3684883
  31.7937965  15.4353647  52.1375847  29.7199974  16.1508865  51.6021576
  29.2979126  16.7169113  50.8799667  28.8641911  15.7930450  52.7044106
  29.5229282  15.4958973  53.5204201  28.1460781  16.9985752  53.2313728
  27.7225971  17.5835075  52.4149017  26.9647312  16.7852974  54.2319031
  26.1655521  16.3087463  53.6641731  27.4256611  16.1642876  55.0000076
  26.5168018  17.7039051  54.6108856  29.1306458  17.9487572  53.8877258
  28.6018600  18.8145924  54.2862396  29.7038021  17.4284229  54.6550865
  29.7649441  18.2623692  53.0586243  27.7987499  14.7395296  52.3700790
  26.9228096  14.9753637  51.5680161  27.8346806  13.5068607  52.9486580
  28.5900898  13.2327433  53.5604744  27.1392193  12.3601694  52.3543129
  27.3955898  12.1602659  51.3139191  27.4022427  11.0330019  53.1422997
  26.8835163  11.0221806  54.1008949  26.9250488   9.7357893  52.4470978
  27.4234352   8.8856115  52.9128342  25.8409214   9.6297474  52.4861221
  27.2476044   9.8421230  51.4113579  28.7682076  10.9529800  53.3732796
  29.1773472  10.8363438  52.5126953  25.6124439  12.5384865  52.3563004
  24.9393425  12.0242453  51.4768944  25.0485821  13.2087717  53.3828239
  25.6389198  13.6005898  54.1026039  23.6218014  13.5447845  53.5969772
  23.0298462  12.7970133  53.0692215  23.4321156  13.3914223  54.6593323
  23.2237339  14.9375992  53.0655785  22.0738716  15.3963795  53.4118958
  24.0770969  15.6816874  52.3254509  24.9344864  15.3093233  51.9429207
  23.7252064  16.9603996  51.6676674  23.1557255  17.5102272  52.4169884
  24.6050377  17.5167389  51.3444328  22.9328823  16.8270054  50.3581200
  22.7355499  15.7677698  49.8233261  22.3856544  17.9389076  49.9799232
  22.6579170  18.8081493  50.4162712  21.4824162  18.1873665  48.8265266
  20.6390705  17.5162086  48.9890594  20.8472881  19.5385456  49.0070534
  20.1633720  19.4620247  49.8523369  21.6102142  20.2888680  49.2145653
  20.0865440  20.0130234  47.7480164  20.8038197  20.1180058  46.9340210
  18.9417191  19.0316525  47.4335480  19.3610382  18.0475903  47.2240448
  18.2572536  18.9338913  48.2761841  18.3117390  19.2667122  46.5756531
  19.4680500  21.3562145  48.0651207  19.2558212  21.9226322  47.1583519
  18.5293980  21.3102818  48.6173172  20.1096840  21.9955463  48.6714706
  22.3009720  17.9620380  47.5226402  23.2842579  18.6893902  47.2394409
  21.9298191  17.0044670  46.6407928  21.1760311  16.3695908  46.8617783
  22.6473198  16.6547985  45.4253845  23.6989975  16.4445686  45.6200104
  22.0225048  15.3032093  44.9850464  20.9877796  15.5706434  44.7707443
  22.4885502  15.0307617  44.0381165  22.0502739  14.1779938  45.9170876
  21.4285660  14.4313717  46.7757988  21.6792812  13.3147802  45.3645248
  23.5260296  13.9275141  46.3951454  24.1691971  13.8032084  45.5239487
  23.8166885  14.7486525  47.0503998  23.4155331  12.5564356  47.1872063
  22.7293148  12.7579384  48.0097656  23.0795345  11.6799593  46.6331329
  24.6615410  12.2619438  47.8181801  25.3970127  11.9405794  47.2050705
  24.9580288  13.1178169  48.2650375  24.4900169  11.5497189  48.5134621
  22.4979134  17.7771206  44.2971764  21.3970261  18.3290043  44.3141212
  23.4937153  17.9326553  43.4279785  24.2193184  17.2303486  43.4470940
  23.4728489  18.8480015  42.2562790  24.4646606  18.7385731  41.8176041
  22.5516987  18.2310410  41.1998749  21.5164185  18.3422794  41.5222435
  22.7447567  18.8447094  40.3199692  22.8415375  16.7517815  40.7894630
  23.8300877  16.7699509  40.3306198  22.8955650  16.0884991  41.6527367
  21.8899899  16.1252995  39.7218819  20.8451385  16.3267803  39.9580841
  22.2483864  16.4309349  38.7389069  22.0883350  14.5985785  39.7040405
  23.1398678  14.3755140  39.8846512  21.4860458  14.2044210  40.5225716
  21.6016064  13.8273621  38.5550537  21.7108173  12.8233509  38.5434570
  20.6328297  14.0422745  38.3669243  22.2621403  14.1235104  37.8507156
  23.1772995  20.3137360  42.4641457  22.3980503  20.9636688  41.7646942
  23.7460728  20.8759499  43.5290718  24.5948601  20.4555359  43.8796692
  23.4371452  22.1501541  44.0203514  22.4250240  22.4389153  43.7369308
  23.4050388  22.0745201  45.5810852  23.0300426  21.0957909  45.8803711
  24.3632202  22.2487392  46.0706215  22.3504639  23.3885288  46.2228813
  22.9904556  23.4844189  47.3916893  24.3962078  23.2325516  43.3979301
  25.5717583  23.0092773  43.2379799  23.8943710  24.4644527  43.2590675
  22.9128723  24.5414028  43.4845467  24.5402832  25.7160397  42.9171715
  25.6246300  25.6271610  42.8508606  23.9557800  26.1446037  41.5360565
  22.8699265  26.2175369  41.4751816  24.2470608  27.6348114  41.2256660
  24.1631546  28.3852158  42.0117683  25.2302151  27.8122597  40.7897530
  23.5628357  27.8161030  40.3967667  24.4482727  25.2740154  40.4157639
  24.5972309  25.8447304  39.4991379  25.4255619  24.9129848  40.7361755
  23.5217037  24.1069851  40.0541496  22.4851570  24.4049416  39.8963585
  23.8281784  23.7361774  39.0760536  23.5807323  23.2176590  40.6816216
  24.1925869  26.6643524  44.0497055  23.0105152  26.8591270  44.2767258
  25.2182713  27.2656994  44.6769943  26.0984592  26.8026009  44.5011864
  25.0434837  28.2613926  45.7975388  23.9653320  28.4179001  45.8321342
  25.5078182  27.7040253  47.0931129  26.5477524  27.3775616  47.1006584
  25.4865036  28.5537128  47.7755203  24.4941101  26.6542492  47.5205002
  23.4913387  27.0811672  47.5035057  24.5184612  25.8782806  46.7553902
  24.8584766  26.1896381  48.9526367  25.8278656  26.5396538  49.3074265
  24.1543617  26.6555958  49.6419868  24.8664017  24.7025089  48.9697075
  25.4315929  24.2847519  48.2443542  23.9927139  23.9323902  49.5238876
  22.9573708  24.2826900  50.2542839  22.4371929  23.5420609  50.7025986
  22.9499702  25.1778049  50.7220612  24.0681648  22.7059364  49.2662582
  23.4977703  22.0964642  49.8348541  24.9548492  22.3332767  48.9580154
  25.7165527  29.5605621  45.4614182  26.8131657  29.5278244  44.8916435
  25.0744801  30.6656284  45.8022652  24.1409035  30.4408913  46.1153564
  25.4159718  32.0760651  45.4939308  26.2742462  32.0909195  44.8221817
  24.2679386  32.8208084  44.7882729  23.3472900  32.8331184  45.3716736
  24.6546402  34.3136253  44.6732826  23.9510174  34.7875710  43.9888878
  24.6057529  34.8366585  45.6283493  25.6428337  34.3044624  44.2134056
  23.8596935  32.1781540  43.4000359  23.4602470  31.1825161  43.5930214
  23.1119308  32.7681694  42.8700981  24.7435055  32.0954323  42.7674675
  25.6640453  32.6727638  46.9014893  24.8001003  32.5585518  47.7415619
  26.8662682  33.1876526  47.2256088  27.5965061  33.2188110  46.5285568
  27.0807247  34.1511574  48.3147049  26.0968285  34.2596588  48.7710800
  28.0262947  33.6080627  49.4292145  27.7527428  32.5857315  49.6901894
  29.0563946  33.6099739  49.0728569  27.8603020  34.4598808  50.7247086
  28.5668030  35.2877083  50.7851982  26.8196449  34.7568054  50.8549652
  28.1535339  33.5019264  52.1830368  29.8881817  33.0174026  52.0599937
  30.2320633  32.8058739  51.0475235  30.4066830  33.8470116  52.5406227
  30.0879498  32.1042557  52.6206703  27.4749680  35.5055313  47.6664162
  28.6236038  35.7119408  47.2732124  26.6634102  36.5540123  47.7121010
  25.7572021  36.4671669  48.1495361  26.8721981  37.8414001  47.0675659
  27.7566490  37.8125763  46.4311600  25.6144962  38.1987953  46.3314934
  25.1813507  37.2809296  45.9339867  24.9149837  38.5615387  47.0846214
  25.8200359  39.1913185  45.2114487  25.7386913  40.1694183  45.6855888
  26.7943916  39.1145287  44.7289162  24.5365124  38.8373146  43.9443283
  23.2471962  39.9791412  44.5251999  22.9152546  39.7788849  45.5439339
  23.6227474  41.0024033  44.5250168  22.3885937  39.9398079  43.8548622
  27.3006001  38.8922195  48.2124367  27.0715561  38.7758522  49.4234009
  27.7934189  40.0113411  47.8578529  28.1845036  40.0155258  46.9266510
  28.2583599  41.0460815  48.8827362  27.6586285  41.1131096  49.7904434
  29.7367687  40.8569031  49.2010689  30.1660938  41.0080414  48.2106438
  30.3510990  41.8167610  50.1907158  31.3866863  41.5995216  50.4523773
  30.2729397  42.8173561  49.7655106  29.7645950  41.6953926  51.1014290
  30.0164661  39.5661545  49.7189674  29.3331394  39.3421364  50.3549576
  28.0832748  42.4145355  48.2807121  28.5985107  42.7174034  47.1631088
  27.3389111  43.2567215  48.9581528  27.1246471  43.0761757  49.9285088
  26.8376160  44.5010185  48.4298782  27.5024319  44.8384438  47.6347237
  25.4627151  44.1571236  47.7559357  25.7361202  43.5047684  46.9266052
  24.5300770  43.2534904  48.5629730  24.2792358  43.6306076  49.5544167
  23.6048889  43.0109787  48.0401802  25.0104828  42.2754097  48.5371094
  24.6857967  45.3749161  47.1440620  23.8257217  45.0649147  46.5505447
  24.1917229  45.8402481  47.9969749  25.3578644  45.9567947  46.5133171
  26.7332401  45.5502815  49.5400925  26.5976048  45.1656303  50.6970787
  26.7296448  46.8331223  49.0978699  26.6628971  47.0597687  48.1158943
  26.4085369  47.9383354  50.0160751  26.5770988  47.6202087  51.0449028
  27.2602329  49.1725082  49.7628288  27.2782707  49.7674103  50.6759911
  28.3174744  48.9214516  49.6773186  26.7709026  50.0383606  48.5623779
  26.3974094  49.3551216  47.7996292  26.0253506  50.7441978  48.9285049
  27.9277611  50.8666649  48.0013237  28.8822670  51.2222481  48.6630783
  27.7187614  51.3906250  46.7838669  28.3803730  52.0372353  46.3785667
  26.9380684  51.1335220  46.1969109  24.8538189  48.2400742  49.9428139
  24.2730408  48.3751106  48.8496399  24.2759266  48.3536339  51.1128693
  24.8783855  48.1152306  51.8876648  22.8271751  48.4689255  51.3508148
  22.3430061  49.0803833  50.5893631  22.3201218  47.0328712  51.2488708
  22.4017029  46.8110085  50.1848106  23.0433636  45.9649200  52.0716515
  22.8701363  44.9126282  51.8463249  24.1242847  46.0913506  52.0106163
  22.9079571  46.1218758  53.1417618  20.9612713  46.9778748  51.5371552
  20.5914783  47.1924324  50.6776085  22.3083191  49.1763115  52.6470337
  23.0934544  49.2267723  53.6209793  21.1822014  49.8720512  52.6209106
  20.6619740  49.8583832  51.7552986  20.4855900  50.3200493  53.8819733
  21.2725658  50.4638557  54.6223030  19.6992645  51.7067642  53.6891670
  18.9948826  51.5258369  52.8772469  19.1986580  51.8688354  54.6437492
  20.4896698  53.0041199  53.5100670  19.8328056  54.0360603  53.2755928
  21.7342453  52.8966866  53.5891533  19.6026001  49.2540169  54.5327148
  19.1196537  49.5491142  55.6464920  19.4148273  48.0376205  53.9976425
  19.9901505  47.8072739  53.2001190  18.4889717  46.9925156  54.5525856
  17.5748062  47.4726028  54.9017487  18.0912304  46.0566673  53.3607483
  19.0207653  45.6226463  52.9923820  17.0652199  45.0225182  53.7395821
  17.4719219  44.5015373  54.6063461  16.1551437  45.5904617  53.9327202
  16.8571892  44.4482994  52.8367538  17.4798431  46.8498573  52.1647797
  16.9438095  46.1851425  51.4873390  16.7908249  47.5747261  52.5982780
  18.2436142  47.4459152  51.6653175  19.2547340  46.3126755  55.6851616
  20.3008404  45.7681618  55.4917984  18.6693420  46.2373009  56.8788757
  17.5705471  47.0642891  57.3167992  16.6599159  46.5163956  57.0745659
  17.5533485  48.0839386  56.9319420  17.6900673  47.0420380  58.7990036
  16.7171421  47.2171059  59.2582092  18.3000450  47.8906860  59.1085625
  18.2888546  45.7072906  59.1670418  17.4564533  45.0118599  59.0594101
  18.7456665  45.7959709  60.1527176  19.3072395  45.5861740  58.0308151
  20.1593246  46.1784554  58.3643608  19.5906200  44.0974617  57.7725601
  19.0556259  43.4111214  56.9109268  20.5534878  43.5509567  58.5022926
  20.9164963  44.1105118  59.2607269  20.7928295  42.0672646  58.5255432
  21.1660900  41.7505188  57.5516586  21.9854126  41.8301430  59.5417328
  22.8158398  42.2680054  58.9878654  21.8372669  42.2952690  60.5163155
  22.1485252  40.3794479  59.8328056  21.2544994  40.0140495  60.3380775
  22.3615170  39.8995857  58.8775749  23.2397728  40.1219711  60.9237213
  22.9582539  39.7864723  62.0957794  24.4683819  40.4160767  60.5455894
  25.2301693  40.2273941  61.1813431  24.5540295  40.7758980  59.6057549
  19.5338688  41.1059647  58.7781754  19.5296211  39.9761391  58.1831131
  18.5904331  41.5857544  59.5699348  18.6551037  42.4988136  59.9968300
  17.2992859  40.8537025  59.7025185  17.5368271  39.7899933  59.7163544
  16.4546032  41.1916275  61.0250549  15.5769873  40.5469437  61.0727463
  17.1128578  41.0727577  61.8856773  15.9740028  42.6493683  61.1093864
  14.8469925  42.8722076  61.5715256  16.8244591  43.5330772  60.9584045
  16.3202648  40.9271545  58.4904175  15.3717289  40.1284904  58.3154221
  16.4482727  41.9460258  57.6147842  17.2150784  42.6029968  57.6370468
  15.4884815  42.2218628  56.5477982  14.5676136  41.6671524  56.7277985
  15.1604996  43.7209053  56.7652550  16.1149521  44.2450676  56.7165489
  14.4732723  43.9786873  55.9594231  14.4719315  44.0625534  58.0529137
  13.4146156  43.8637619  57.8777962  14.8198690  43.3897743  58.8367538
  14.5191460  45.4766350  58.6709557  14.1769953  46.4568291  58.0465012
  14.9298992  45.5720139  59.9132919  15.1783628  44.7768593  60.4843369
  14.6246157  46.4245720  60.3605537  15.9727745  41.8776283  55.1390686
  15.1871796  42.0236053  54.2094383  17.1865082  41.4665985  55.0139084
  17.7513828  41.3193779  55.8381310  17.7167645  41.0307884  53.7100105
  17.5108433  41.7736664  52.9394073  19.2025337  40.7610092  53.8152504
  19.3806515  40.4837151  54.8542366  19.9204445  39.8153725  52.7801590
  19.4593887  38.8297958  52.7156029  19.9016380  40.0989456  51.7278595
  20.9774017  39.7516251  53.0387764  19.9935627  42.1207466  53.6245499
  19.8399315  42.4862556  52.6092186  19.5886402  42.8399811  54.3364754
  21.5017681  42.1055908  53.9090004  21.5951004  41.6276321  54.8841629
  22.0424881  41.6738091  53.0668068  21.8940353  43.1213837  53.9578896
  17.0868301  39.6698647  53.4189529  16.8981819  38.8463593  54.3148499
  16.8625641  39.4151001  52.1182632  17.1781960  40.1742134  51.5315552
  16.1005898  38.3010979  51.5103683  15.6742086  37.8667603  52.4146118
  14.9789228  38.9491043  50.6867638  15.3260126  39.5288086  49.8314438
  14.4577627  38.0675735  50.3134155  13.9151735  39.7617188  51.5107269
  14.4006596  40.6309052  51.9544792  13.1556110  40.0630379  50.7893562
  13.1577682  39.0629768  52.6798363  13.9142113  38.9081993  53.4492111
  12.4317789  39.8236084  52.9670448  12.3965836  37.8301315  52.2786293
  12.0639057  37.7528191  51.3281288  12.0141344  36.8918724  53.1781387
  12.2202110  37.0607071  54.4300652  12.0516958  36.2698250  55.0352173
  12.9312954  37.7076187  54.7398491  11.1270266  36.0183868  52.8799019
  10.5971298  35.6276474  53.6458244  10.7103519  35.9328842  51.9638367
  17.0536366  37.3545265  50.7834206  17.6739807  37.7778625  49.8333588
  17.1758499  36.1170464  51.2798767  16.5565891  35.9971619  52.0687027
  17.9984608  35.1164322  50.7033539  18.7658024  35.5863762  50.0881805
  18.8152199  34.4352417  51.7820053  18.2043934  33.6805840  52.2774696
  19.5262909  33.7403984  51.3351517  19.5569000  35.3504829  52.6651726
  20.7422256  36.0826225  52.2722664  21.0900898  36.8233414  53.3644943
  21.8455505  37.5946732  53.3375435  20.3396015  36.5556030  54.4174194
  20.4407368  36.9026718  55.3605080  19.3257790  35.6092834  53.9582710
  18.5425797  35.1559639  54.5477600  17.1038208  34.1832314  49.8617859
  16.1160107  33.6862183  50.3916893  17.5360527  33.8237762  48.6477089
  18.4457874  34.0719109  48.2858887  16.4924870  33.2592926  47.6784706
  15.5448799  33.3052139  48.2151566  16.4368114  34.0950432  46.4152489
  17.4635754  34.2054329  46.0664330  15.6532326  33.5118065  45.1936302
  16.2223797  32.7105217  44.7223511  14.7087221  33.0272293  45.4409943
  15.4337616  34.1705971  44.3534355  15.8371115  35.4642601  46.7266083
  15.9033232  36.0510254  45.8104057  14.7752333  35.4555321  46.9724541
  16.4043579  36.0010643  47.4869843  16.8088799  31.8239918  47.3557549
  17.8921146  31.4915199  46.9731712  15.8150558  30.8740711  47.5519295
  15.0359297  31.1980419  48.1070023  15.9394188  29.4779358  47.2676010
  16.9057922  29.3493176  46.7800751  15.9054308  28.6068249  48.5399132
  14.9563208  28.6945953  49.0686722  16.0539074  27.5906105  48.1747246
  17.0347404  28.7925587  49.5187912  17.1770191  30.0294342  50.1693153
  16.4649067  30.8399811  50.1212502  18.3753567  30.3745327  50.8657074
  18.5261173  31.3465366  51.3116646  19.4113064  29.4386787  50.8883514
  20.6101761  29.8246994  51.3833427  21.1504021  29.1405830  51.7855110
  19.2904339  28.2118435  50.2781448  20.1148510  27.5150280  50.3125763
  18.0659180  27.8244667  49.6019249  18.0678139  26.9255486  49.0033073
  14.9332800  28.9613762  46.2263641  13.8127432  29.4018459  46.2500801
  15.3791227  27.9653072  45.4774475  16.3452377  27.7134972  45.6301346
  14.7819710  27.4591064  44.2633743  13.7017746  27.5578270  44.3707886
  15.1130009  28.2447090  42.9995728  16.1610508  28.1367359  42.7202263
  14.5429554  27.7910423  42.1888123  14.8690910  29.7419128  42.9944229
  15.1666327  30.3049583  43.8790436  15.4325314  30.5473595  41.7855263
  15.5257101  31.5757675  42.1345215  16.4548359  30.2335052  41.5746002
  14.9698286  30.4499741  40.8034248  13.4023752  30.0383472  42.9790268
  12.9750929  29.7456360  43.9381142  13.3503370  31.1236725  42.8926392
  12.9288273  29.5753136  42.1133194  14.8961296  25.9359951  44.0238838
  15.9249382  25.3684864  44.4326744  13.9389277  25.4199200  43.3418732
  13.0763464  25.9318008  43.2233810  13.9435110  24.0388870  42.8654213
  12.9544058  23.7523804  42.5080910  14.9114141  23.7346725  41.6898651
  15.9261951  24.0508976  41.9313736  14.9731779  22.6542225  41.5598145
  14.4144831  24.2803535  40.3212776  13.7719564  25.1542912  40.4284897
  15.2181473  24.3870163  39.5926857  13.5046768  23.2255516  39.6477318
  12.3962288  22.8478985  40.2089767  13.8476095  22.7175713  38.5205421
  14.1100483  23.1439610  44.1247063  13.4917707  23.3498402  45.1312599
  14.9139910  22.0357494  44.1094017  15.6107893  21.9367676  43.3849907
  15.0514832  21.0980492  45.2813835  14.0184603  20.8455582  45.5205765
  15.7379732  19.7427006  44.8638420  16.6672592  19.9155273  44.3210144
  15.8185616  19.1156769  45.7517853  14.7690554  18.9489574  44.0175476
  13.8838940  18.6090298  44.5551720  14.3738823  19.6160259  43.2514153
  15.5372572  17.7758865  43.3230705  16.2722569  18.1616898  42.6166496
  16.0349350  17.1477451  44.0618973  14.4619560  16.9314327  42.5897789
  13.6766253  16.6014633  43.2698364  14.0821953  17.5871010  41.8062096
  15.0356312  15.7266645  41.9200859  15.3960133  14.9982824  42.5198250
  14.2570267  15.3797913  41.3782730  15.7264671  15.9876528  41.2310791
  15.7325115  21.6789227  46.5654068  15.8766909  21.0007362  47.5209389
  16.1549511  22.9852180  46.3992348  16.1417961  23.3728123  45.4666595
  16.7344646  23.7926388  47.5296669  17.0052719  23.1004410  48.3269272
  17.9234505  24.6012211  46.9733925  18.3624172  23.9471207  46.2200241
  17.5663738  25.4720707  46.4236450  18.5087528  24.9333553  47.8308334
  15.6811447  24.6628361  48.1554489  16.0547733  25.1822090  49.2066689
  14.5105820  24.9160137  47.5790215  14.3346729  24.4846916  46.6828537
  13.4791021  25.8776035  48.0948982  13.8575001  26.8994541  48.0677795
  12.2284288  25.9070530  47.1383553  12.6040316  26.0165443  46.1209908
  11.3140879  24.6599483  47.3078766  11.7932396  23.7446003  46.9605293
  11.0375881  24.6299076  48.3617973  10.3948336  24.7976837  46.7385826
  11.3625107  27.0866261  47.4277534  11.9846268  27.9728374  47.3024368
  10.6155682  27.1224613  46.6347237  10.8101387  26.9991264  48.3633423
  13.0967512  25.7075233  49.5934143  12.7184877  26.6071110  50.3037071
  13.1553936  24.4395561  50.0664253  13.1449366  23.7078114  49.3703346
  13.0054426  24.1035995  51.5172195  12.0172396  24.4513721  51.8182335
  12.8979788  22.5543518  51.6309242  12.2894812  22.2627583  50.7748833
  14.3718805  22.0282459  51.2768402  14.6324997  22.4614162  50.3111572
  15.0332527  22.2774162  52.1066589  14.3603134  20.9400272  51.2156067
  12.4463997  22.0286713  53.0304031  11.4453745  22.3188992  53.3495102
  12.5525618  20.9448776  52.9832878  13.1480227  22.2549858  53.8332748
  14.0411224  24.6418743  52.4922905  13.8112955  24.7979221  53.7054138
  15.2021904  25.1174755  51.9970322  15.2781248  25.0930157  50.9901886
  16.3419266  25.5938663  52.8164024  16.3006611  25.1608906  53.8158684
  17.7683563  25.1687145  52.2242699  18.0119858  25.5854454  51.2469864
  18.5528088  25.5352039  52.8864021  17.8632545  23.6692543  51.9805412
  17.1009750  23.3693295  51.2614594  19.1673985  23.3184261  51.3407898
  19.2434139  22.2633991  51.0776558  19.2905865  23.9217072  50.4413605
  20.0224800  23.5813408  51.9635353  17.9213676  22.9251118  53.2875290
  16.9933643  23.1058578  53.8299713  18.0410423  21.8532085  53.1300354
  18.8353596  23.1471844  53.8383484  16.2416534  27.1439724  52.9992523
  17.1171074  27.7061234  53.6682510  15.1373882  27.8187962  52.5918388
  14.4197111  27.3507500  52.0570679  14.9396839  29.2740021  52.6669083
  15.7658310  29.7000790  52.0976639  13.7445087  29.7288437  51.7888412
  13.9667158  30.7552395  51.4968872  13.7854834  29.0575390  50.9310722
  12.3694124  29.6118965  52.4584999  12.3779669  28.6995449  53.0548553
  12.2451887  30.4099579  53.1904602  11.3163357  29.6515656  51.4070740
  11.3004694  30.6169682  50.9012642  11.5481434  28.9182854  50.6346359
  10.0199118  29.2368317  52.0327568   9.6267090  29.8566856  52.7264977
   9.3836298  28.0708542  51.9152603   9.8523579  27.0639343  51.2515411
  10.7130013  27.2222557  50.7472267   9.4406099  26.1417160  51.2603607
   8.2601328  27.9531345  52.4658661   7.7458820  27.0939293  52.3339119
   7.9173417  28.7580643  52.9705276  14.9218750  29.8461037  54.1226501
  14.3836956  29.1368561  54.9868317  15.4518166  31.0511093  54.3723335
  16.1002750  31.9870892  53.4598961  15.4593134  32.0073509  52.5784988
  17.1199207  31.6504879  53.2724915  16.0467987  33.3947639  54.1316986
  15.0754566  33.8496704  53.9376526  16.8312569  34.0926743  53.8390388
  16.0744972  33.0161552  55.6084251  15.3646069  33.6679459  56.1176682
  17.0591793  33.1305695  56.0616493  15.5711031  31.5638523  55.7022629
  16.3665237  31.0093632  56.2002068  14.1507730  31.5647411  56.4446754
  14.2403622  31.3348980  57.6851883  12.9567184  31.8257618  55.8245049
  12.9689312  32.1793709  54.8785095  11.6932592  31.9305878  56.5617828
  11.9497719  32.4975777  57.4566727  10.6204290  32.6598053  55.7538528
  10.3325434  32.0836220  54.8745155   9.7171535  32.6417313  56.3636627
  10.8745661  34.0866661  55.3370667   9.8660812  34.7503929  54.9086990
  12.0084600  34.5953102  55.3574524  11.2375269  30.5965118  57.1029243
  10.9666452  30.4670563  58.2370949  11.3652411  29.4509583  56.3692856
  11.5968313  29.5598984  55.3922501  11.1136837  28.0178356  56.7166786
  10.1495619  27.9613934  57.2220345  10.9676657  27.1822777  55.4036102
  10.5140867  27.8043442  54.6319885  11.9888887  27.0208893  55.0584221
  10.1283159  25.9440632  55.6063461  10.3401299  25.4919186  56.5752640
   8.6813822  26.1526241  55.5060272   8.4416513  26.5412560  54.5162773
   8.1962538  25.2009144  55.7228241   8.4129343  26.9132519  56.2391586
  10.3942070  24.7943325  54.6290474  10.0829372  24.9350128  53.5939522
  11.4642878  24.5871086  54.6383591   9.9227123  23.8495159  54.8994484
  12.1616106  27.5516853  57.6113129  11.7692490  26.9202156  58.6074219
  13.4702015  27.8630619  57.4598656  13.7520199  28.3112602  56.5997505
  14.5126486  27.6253242  58.4539375  14.4519291  26.5423717  58.5617714
  15.8746042  28.0820446  57.9306450  15.8613081  29.1711369  57.8882065
  16.6545677  27.7664948  58.6236000  16.1463356  27.6748600  56.5792198
  15.7558527  28.2876759  55.9518623  14.2823305  28.1319790  59.8502502
  14.2741833  27.3357334  60.7822380  14.0644808  29.4584808  60.0604668
  14.1220665  30.0314293  59.2306976  13.6551704  30.0126629  61.4264450
  14.3367310  29.5375023  62.1319923  13.7672529  31.5373249  61.4496384
  12.9371605  31.8913765  60.8383331  13.6922112  31.8046741  62.5036774
  15.0633717  32.1749153  60.8493767  15.0586262  32.0736580  59.7640991
  15.1831036  33.6966362  61.0351906  14.2123718  34.1881256  60.9701805
  15.5887470  34.0230484  61.9927979  15.7962198  34.1233025  60.2413712
  16.3587780  31.6121387  61.4600754  16.4206772  31.9669895  62.4888382
  16.3300743  30.5326958  61.6086769  17.2112408  31.9782963  60.8879395
  12.2464285  29.5847244  61.8923874  11.9808340  29.5100975  63.0697479
  11.3761692  29.1541710  60.9781876  11.6212263  29.1226349  59.9988670
  10.0390940  28.5959625  61.3626060   9.6086283  29.3456039  62.0265617
   9.1198788  28.4866714  60.0841103   9.5874405  27.7997379  59.3787003
   7.7218499  28.0008030  60.2915115   7.2927518  28.6790371  61.0290565
   7.1345029  27.9571857  59.3743286   7.7919297  27.0376797  60.7970657
   8.8898783  29.7261314  59.4411964   9.7442369  29.9300785  59.0537949
  10.1886730  27.2751236  62.1203690   9.7419968  27.0575371  63.2263680
  10.8784485  26.3431664  61.4500542  11.1577997  26.5050430  60.4930496
  11.2714567  25.0759792  62.0158958  10.3442602  24.5913544  62.3217506
  12.0526886  24.1630878  61.0149422  12.8244905  24.7875366  60.5649490
  12.5299091  23.2494316  61.3693314  11.1633072  23.6005573  59.7966499
  10.2973700  23.1534977  60.2849045  10.8274488  24.4115181  59.1503983
  11.9514198  22.6969204  58.8980904  12.4175072  23.2677956  58.0949936
  12.7782965  22.1270618  59.3219261  11.1000328  21.6631794  58.1895943
  10.2098303  22.2383327  57.9349594  11.6232872  21.3395844  57.2898216
  10.7367277  20.4882450  59.0167046  10.4196720  19.7666397  58.3851471
  11.5611925  20.1435738  59.4874039  10.1127720  20.6450138  59.7952957
  12.1194630  25.2047615  63.3330994  12.2463694  24.2594070  64.0997696
  12.6878376  26.3648052  63.6355820  12.5704603  27.1534176  63.0155716
  13.2924385  26.6291389  64.9698029  14.0600929  25.8679295  65.1089630
  14.1806192  27.9259567  64.9658051  13.5919151  28.8124504  64.7298889
  14.5161943  28.0485725  65.9955902  15.5565634  27.9259129  64.2423859
  15.9690552  26.9471149  63.6511955  16.2775002  29.0430317  64.1941986
  15.8374958  29.9107933  64.4652786  17.1471272  28.9085121  63.6984596
  12.3246050  26.5129833  66.1896515  12.6734324  26.0362511  67.2541962
  11.0380182  26.9583492  66.0614624  10.7865229  27.0722122  65.0899200
   9.9452934  27.1084595  67.0895615  10.2435551  26.6349182  68.0249252
   9.5648623  28.5794983  67.3088608   8.6868010  28.6842079  67.9461517
  10.7002707  29.2334061  68.0300217  11.0320663  28.6952076  68.9179153
  11.5630713  29.4747181  67.4091797  10.4152851  30.2098522  68.4217300
   9.1855602  29.2381306  66.1268158   8.2614222  29.4898815  66.1915588
   8.7097855  26.2395496  66.8311691   8.1092577  25.6491280  67.7499695
   8.3707209  26.0415859  65.5908813   8.7729559  26.6363659  64.8805618
   7.3289061  25.0241203  65.2288208   6.5371222  25.0989017  65.9741974
   6.6837225  25.3324337  63.8661156   7.4965301  25.3976517  63.1427956
   6.0853004  24.4716263  63.5677681   5.8114328  26.5859947  63.9329910
   6.3183846  27.3424301  64.5320816   5.7115502  27.0584755  62.9558067
   4.3596797  26.2907467  64.4290695   3.9133849  27.1804161  65.1472778
   3.6193824  25.3241215  63.9858284   7.8364091  23.5446320  65.2901459
   9.0811253  23.3085880  65.2984314   6.9003224  22.5815697  65.3626709
   5.9683752  22.9686832  65.4041214   7.1976595  21.1148853  65.3148499
   8.1318254  20.9131641  65.8390121   6.0732641  20.4348888  66.1968994
   5.1960082  20.2975063  65.5647202   6.3178802  19.3942547  66.4098511
   5.7581930  20.9894981  67.5823135   5.4488025  22.0345020  67.6009369
   4.6348910  20.0829754  68.0547943   4.3702641  20.2545910  69.0981674
   3.7647128  20.2444153  67.4185333   4.8088403  19.0165176  67.9115829
   6.9979148  20.8968964  68.4892731   7.6790295  21.7344322  68.3385468
   6.7162757  20.6759090  69.5188065   7.5490494  19.9843063  68.2622833
   7.2990403  20.4726238  63.9851418   6.4368868  20.6832390  63.1498299
   8.3316545  19.8657513  63.7302971  37.9323769  32.0216904  34.4322472
  37.2263184  31.7318306  33.6570168  38.9286423  32.4132996  34.2382622
  37.5667381  31.8767643  35.7247810  38.4467316  32.2856140  36.9018784
  38.1874924  31.9967556  38.0465698  39.4453201  33.0171394  36.7516136
  36.3612099  31.3792534  36.1380119  35.0581589  31.4687920  35.4232559
  34.3166618  31.1105442  36.1478462  35.0262108  30.5169697  34.2316246
  35.5867081  29.6077099  34.4380608  34.5032043  30.7994804  32.9724541
  33.9458427  32.1091499  32.7663345  33.3260002  32.2590752  31.8844547
  33.9328499  33.0806122  33.7559204  33.4688454  34.0404778  33.5393753
  34.6795464  32.9688187  35.0463562  35.6749344  33.3934898  34.8673401
  33.9282532  33.6954117  36.0969009  33.3463936  34.3017693  35.6064911
  34.5020409  29.7762432  31.8097076  34.8520508  28.6199055  32.1064491
  34.0965538  30.1478539  30.7313461  48.0687599  27.9716072  56.8898201
  48.9130974  27.6559658  56.2807274  48.3187294  28.7073727  57.6511993
  46.7897110  27.7803078  56.5126572  45.6675835  28.3319664  57.2370605
  45.9303665  29.2690144  57.9892921  44.4815979  28.1519203  56.9914398
  46.4849930  26.8138008  55.5698204  46.6164207  27.0807323  54.1524506
  46.4877586  26.1160183  53.6465225  47.9757729  27.6790867  53.7653999
  48.8031883  26.9734077  53.7958527  48.3170776  28.9979286  53.6649933
  47.1938248  29.9198685  53.7845688  47.3392372  30.9933510  53.8889427
  45.9195557  29.5332260  53.6641159  45.1112823  30.2569103  53.5834885
  45.4740944  28.0764885  53.7189255  44.7123299  28.1355438  54.5059624
  44.8762741  27.7027245  52.4814529  44.0046082  27.3271828  52.6956863
  49.7307472  29.4591427  53.7618141  50.7176323  28.7332897  53.7028122
  49.9462967  30.6265945  53.8160515  21.1414127  25.3729725  54.6809196
  20.5869045  26.2677612  54.9554977  20.9757900  24.4128151  55.1648560
  22.1719246  25.3851719  53.7263603  22.2699432  26.6075897  52.8367615
  21.7309914  27.6295700  53.2288017  23.0710373  26.7023659  51.9111977
  23.0038033  24.3148384  53.4160461  23.3703938  23.3196125  54.4011765
  24.1918087  22.7224827  53.9865646  22.1850586  22.3227444  54.6397705
  21.3576183  22.3956413  53.9372330  22.0681896  21.6343384  55.8189964
  23.0788078  21.9430141  56.9243011  23.0724506  21.4087467  57.8724098
  23.8859215  23.0281105  56.8434753  24.5605564  23.3810692  57.6205368
  23.7755089  24.0462646  55.7419968  23.0328770  24.8074474  56.0108604
  25.0593090  24.6888847  55.5643387  24.8412590  25.5012836  56.0534096
  20.9776630  20.6549034  56.0812340  20.9111328  20.0978947  57.2190742
  20.1610737  20.3450527  55.2086716  33.7767372  60.5653954   4.6711416
  15.7439718  56.8858910  82.1589203  55.8171616  18.2446556  52.2379112
  19.8399963  17.8938675  12.1524286  43.6041946   5.4812255  31.4954052
  58.7467422  24.3901539  33.3631935  66.6551132   3.2216926  46.8200989
  21.7307606   5.0640001  39.8704529  43.5043335  56.5119934  76.8225861
  76.1912918  22.0816135  38.7165375  76.5038223  22.8959789  39.1106949
  75.9767761  22.3190536  37.8144073  73.7912903  63.0599976   8.9190683
  73.8793564  62.1111679   8.8285065  73.5402527  63.3616524   8.0460176
  72.4512024  70.1886063   8.9438162  72.2751465  70.6195984   8.1074686
  73.3922119  70.0138474   8.9297924  47.0087318  25.6889839  75.9887466
  46.8249588  25.6507435  75.0501328  47.0698433  24.7725792  76.2583694
  11.9701376   1.3523549  16.6166039  11.6616116   0.4471484  16.5760498
  11.2444916   1.8352258  17.0122108  65.4413681  45.3546867  68.0324173
  65.3272629  45.4846725  68.9738617  66.2968216  44.9330559  67.9507980
   2.1961033  58.6233749  18.6338711   2.4063392  57.9372559  18.0004101
   1.9173844  59.3663368  18.0985622  25.7307777  41.6438637  12.3603582
  25.9838314  41.1469193  11.5823860  25.6582527  42.5478210  12.0540371
  73.6103058  59.4456863  15.7412863  72.6672668  59.4156380  15.9025259
  73.7129593  60.0886116  15.0396156  59.9448204  34.2242279  65.9649887
  60.1941643  34.4123116  66.8697968  58.9890060  34.2756653  65.9643173
   9.3393717  59.2705765  76.5373917   9.6560383  58.8949089  77.3588638
   8.4753380  59.6220932  76.7521286   3.4271224  17.8529949  64.2894974
   3.9765210  17.5714760  63.5579681   3.8639736  17.5026531  65.0658035
  72.1538620  35.3599701  82.1733551  72.9791565  34.8890495  82.0577850
  72.3866119  36.2818375  82.0628052  26.8645554   2.6591425  74.4121399
  26.9808254   2.7455771  75.3583069  27.0667610   1.7416835  74.2287979
  23.9541035  63.4682884   9.3272467  24.8071976  63.2005386   8.9855289
  23.5403328  62.6511879   9.6054125  78.9655914   6.5501466  75.2103271
  79.3619919   6.2598267  76.0317917  79.4045944   6.0315475  74.5361099
  24.9613514  40.1855812  73.3034210  24.9764290  39.2402649  73.1538162
  24.9383583  40.5666580  72.4256516  38.0837250  68.9427261  42.0496254
  37.6729164  68.9468536  41.1850739  37.6215363  68.2566071  42.5311432
  85.0694199  30.8491287   1.5634638  84.6985016  31.4733391   2.1871691
  85.5595016  30.2311478   2.1058228  17.1966610  53.6903267  72.4636002
  16.3754978  53.8989449  72.9090271  17.8751030  54.0707970  73.0214386
   2.7798305  61.4117165  57.0246735   2.0395062  61.1977615  57.5924530
   3.2372408  62.1166878  57.4829597  79.0012207  57.7932396  80.3262787
  78.7173233  58.3856735  79.6301117  79.8678207  58.1143837  80.5754852
  82.7127151  59.0591125  55.2639313  83.2642441  58.2791328  55.3246346
  81.8439484  58.7595787  55.5317879  36.8594322  64.2559280  88.2914734
  37.0505867  64.0517349  87.3760529  36.6275902  65.1846085  88.2863541
  81.1869659   6.6099439  69.5071716  81.8708191   7.1415215  69.0997391
  81.4320755   6.5719285  70.4316788  26.9658318   2.5478337  10.4968805
  27.0749512   1.8160869  11.1042290  27.8592377   2.8127193  10.2780304
  80.5321121  35.7014122  34.9514656  80.9767914  34.8807869  34.7391891
  80.4241486  36.1405144  34.1078033  78.7678909   7.3901849  59.4250259
  79.6294708   7.6665926  59.1127739  78.6814651   7.8016067  60.2849655
   3.9915423  21.6225777  63.3021431   4.8411236  21.2141342  63.4683228
   3.6977401  21.9227180  64.1622772   8.7133932  58.0544090  56.2942772
   8.1006336  57.9454498  55.5670319   9.5606089  58.2012291  55.8736801
  67.1421280  49.1979370  33.3624687  67.3642960  49.0441933  34.2807465
  66.4881897  49.8964691  33.3879700  29.8739929  65.7733612  14.1625013
  29.1936684  65.5483170  13.5278797  30.2194023  66.6118469  13.8561316
  19.2830544  66.2447281   0.1811579  19.9241714  65.9043045  -0.4427925
  19.6938324  67.0303955   0.5420187  18.9685097  61.4543686  19.3945770
  18.2648125  60.9046402  19.0498486  19.4236469  60.8944168  20.0234928
  59.9827995  42.3171806   8.9626265  59.3756180  43.0360184   9.1382208
  60.2681198  42.0275688   9.8291988  22.1889687   7.1746974  68.0751877
  22.6164780   7.1784339  68.9316025  22.1499157   8.0972414  67.8229599
   3.8315768  11.7096701  73.7616577   4.6158705  11.3620195  73.3370972
   4.1653008  12.2261724  74.4952011  69.3897858  34.4346313   4.7953620
  69.8036804  35.2834091   4.6388297  70.1132660  33.8562584   5.0367985
  16.5608482  54.7676277  39.8431053  16.9573479  54.5144958  39.0094719
  16.5034199  53.9508095  40.3388290  43.0724678  23.3418331  15.8221169
  42.2883301  23.2356796  15.2835188  43.5674210  22.5338459  15.6864290
  53.8495102  56.3934898  71.6747742  53.7010765  55.8640289  72.4582672
  53.3762207  55.9333801  70.9815674   5.6534104  15.5379868   6.8610401
   5.4377842  16.3433170   7.3313389   6.5736613  15.3776703   7.0700092
  77.4628372  40.8762970   2.7105992  77.6679230  40.7289734   3.6338894
  76.5712280  41.2244873   2.7159028  77.9469833   0.1850917  65.6016541
  77.8815994   1.1074666  65.8490067  77.2203827  -0.2377164  66.0593796
  65.7449417  23.9347057  18.6832085  64.9714203  24.2089863  18.1905918
  65.3981094  23.3906555  19.3902817  18.4795418  68.5024872  82.3309174
  18.7458992  67.6167908  82.0842972  19.2906952  68.9278412  82.6090088
  26.1988354  10.6139202  65.8045654  26.5660763  11.2602625  65.2015686
  26.0046883  11.1109209  66.5992508  10.1159515  33.5938072  35.9567680
  10.1591206  32.6512032  36.1176033  10.4714413  33.7028046  35.0747375
   9.4126387  41.1529808  63.9665604  10.0990610  41.0041084  63.3162613
   8.6032076  40.9000664  63.5226173  28.6829338  50.0975304  11.6670437
  28.9908829  50.9016037  12.0852194  27.7720108  50.2808380  11.4371519
  66.0018158   0.3686239  59.2435646  65.6102448   0.1571759  58.3961029
  65.4639893  -0.1023246  59.8801041  75.6875839   3.9500377  59.2960815
  75.6737442   3.6118920  58.4007072  75.0113068   4.6273561  59.3067932
  75.6147537  25.0599079  68.3409805  75.7927246  25.0423088  67.4006348
  76.4799576  25.0274944  68.7491455  22.7578812  31.5868835  58.4856262
  23.0666428  31.0846710  59.2397346  23.3510666  32.3366165  58.4380379
  71.7932968  41.5186920  32.2958221  71.8545609  42.4360123  32.0293655
  70.9160767  41.4359856  32.6698227  68.5203018  14.9218607  74.1951599
  68.7434235  14.9529686  73.2648468  67.7755737  15.5167646  74.2828751
  23.4577827  57.0087433  87.1164780  22.9652805  57.8137665  86.9564514
  24.3756428  57.2768021  87.0727768   8.4371986  31.2751369  79.1966629
   7.8404870  30.5357571  79.3127747   7.8746662  32.0477028  79.2508240
  63.8149529   2.8217118  12.3844156  63.2691994   2.0572696  12.5688353
  64.2689743   2.9963596  13.2087927  61.6459808  44.3871574  40.2250481
  61.2168159  44.0158882  40.9958954  61.6913223  45.3261681  40.4051437
  71.9330368  62.4016571  84.9505615  72.0295410  61.6831055  85.5755463
  71.1076355  62.8211212  85.1934509  30.6977692  56.4011116  36.0153923
  30.5436096  57.3321228  36.1756592  30.1804485  56.2036095  35.2346230
  55.1326942  21.6914349  51.2887878  54.1780815  21.6824055  51.2190514
  55.3065071  22.0781403  52.1469727  67.0835495  10.2455359  66.9624557
  66.8795090  11.1797657  67.0050659  68.0240479  10.1977215  67.1339035
   3.4966486  38.5712318  59.7394257   3.9577799  39.3650932  59.4685555
   3.0695243  38.8111267  60.5617676  72.3137894   3.9944570  35.6068687
  73.2669220   4.0737772  35.5683746  72.1043167   4.0729308  36.5375633
  64.2192154  11.2675438  46.7182274  64.7517929  12.0582199  46.6320419
  64.7267609  10.5874529  46.2753830   5.1369028  38.3981056  15.1178246
   5.0510268  38.1952171  16.0493240   4.2356958  38.4903259  14.8087082
  43.0887718  17.1533070  34.6100845  43.1245880  17.9459419  35.1455116
  42.1606216  17.0467472  34.4017334  80.7430878  25.6505165   0.5984638
  81.5899963  26.0881424   0.6848164  80.9340439  24.7259407   0.7563395
  71.6295853  20.6186790  31.4714909  72.3807068  20.0732307  31.2379456
  71.9312515  21.5157375  31.3282490  71.4338684  46.7882805  63.9420013
  71.9067154  47.4194908  64.4844208  70.7545242  47.3056412  63.5094986
  66.7102203  32.2296524  60.9842377  67.0557785  32.8593178  60.3515091
  67.4437332  31.6406345  61.1610107  22.8039055   9.6690397  76.8408890
  23.2118607   9.2185965  77.5804214  23.1920547   9.2598238  76.0675125
  69.8860016  53.2815285  78.7731934  70.4260712  54.0456657  78.5715637
  70.1624146  53.0177193  79.6508255  21.7784748  31.7229729  81.9320679
  21.5703182  32.1002808  81.0773544  22.1590137  30.8681622  81.7302704
  86.4446487   3.2172844  26.6359043  85.6956558   2.9199350  26.1193562
  86.4193802   4.1716657  26.5669899  46.4157257  54.8136482  12.5536461
  46.7149048  54.6277122  11.6636171  45.9913101  54.0040703  12.8376980
  77.3712997  37.3047295  25.2330170  77.9284058  38.0510063  25.0118084
  77.8827744  36.5385933  24.9728947  24.8755226  32.2861862  24.0939236
  24.6931076  32.7985420  23.3062382  25.7326660  32.5950699  24.3873959
  32.2374878  42.2375221   6.2255859  31.3465176  41.8897438   6.1874871
  32.2123489  43.0212784   5.6766562  51.4426003  32.8218842  19.3965607
  51.9781837  32.9338264  18.6111622  51.1325455  31.9175892  19.3481426
  16.8474197   8.6423931  68.4287186  16.6804466   8.0841370  69.1881256
  16.5901871   8.1079807  67.6774063  35.9107170   0.5618608  21.3526058
  35.3158226   1.2841798  21.5540600  36.0046387   0.0908853  22.1806107
   7.9380798  61.8448410  77.0545578   7.3234010  61.3662987  76.4983215
   7.3871136  62.2612381  77.7173386  75.8558655  46.5471687  72.7899475
  75.7124939  47.2723351  73.3980637  76.7198334  46.7167625  72.4144058
  82.9038086   5.7760401  26.9788876  82.9763107   5.0331998  27.5781898
  82.3652725   6.4120135  27.4497871  76.3899536  34.5734138  31.1787281
  76.7829132  34.7654877  32.0301514  76.3618851  33.6174889  31.1380615
  42.7015076  34.4701805  78.0069656  41.9590302  35.0592728  78.1408539
  42.7692337  34.3824577  77.0562057   9.4669304  43.4848404  88.7654953
  10.3590212  43.4271126  89.1076508   9.3084526  44.4236832  88.6670380
  28.0772171  25.3426666  75.6789932  27.2459183  25.1604939  76.1171570
  28.0284538  26.2705498  75.4490280  58.0785751  21.1929359  17.3926735
  58.6340675  21.9579563  17.2429943  57.1848640  21.5302162  17.3314495
  61.7483292  60.4532127  37.2674828  60.8145638  60.3200073  37.1044693
  61.9608879  61.2595100  36.7974396  60.4256821  12.3862457  86.5542603
  60.7127457  11.8654661  87.3043365  60.2773247  11.7444372  85.8597794
  47.5257416  61.5926819  69.1544342  46.9393425  62.0780792  68.5741196
  47.9536400  60.9546471  68.5834274  17.1555614  53.6987381  14.6891460
  16.5251713  53.2771721  15.2732029  17.7641296  54.1466293  15.2767429
  27.4704609  50.4816170  62.2967033  27.4875050  50.4252930  61.3413162
  26.5608387  50.6917419  62.5080528  46.2397690   2.5748186  11.4090462
  45.4682236   2.0691822  11.1535378  46.4084625   2.3133926  12.3142700
  21.4607544  47.0975647  17.0124302  21.8022575  47.6785202  16.3326492
  20.5226154  47.0417938  16.8307266   4.5989199  45.6343269  41.9896011
   5.2277756  44.9718513  41.7034187   5.1402369  46.3563232  42.3088608
  79.4832916  51.9628143  69.6294327  79.6675110  51.4887848  70.4403534
  78.5640717  52.2188072  69.7051773  67.3562012  39.2806473  39.3439484
  67.6094284  38.4340668  38.9759712  68.1864319  39.7238770  39.5185890
  66.7357712  28.8814201  35.3175163  67.5931320  29.2321548  35.5586624
  66.3784561  28.5381298  36.1364822  52.0608063   9.4206314  49.8353920
  51.2796745   9.4299164  49.2822418  52.7759628   9.6549368  49.2438774
  71.1376648   3.5907390  47.6179848  71.5030823   2.9011457  47.0637627
  70.2098694   3.6193602  47.3843117  69.0522537  54.7488747  22.8545628
  68.2734833  54.5743713  23.3830471  68.7139053  54.8995895  21.9719315
  68.3482361   2.8841279  18.8916378  68.2207794   3.7205179  19.3393402
  68.1165314   3.0625803  17.9802094  22.6771870  53.3386497  39.2431870
  22.9379559  54.2497902  39.1088181  22.5214634  53.0014915  38.3609695
  81.0459518  15.2309217  76.5062027  81.9009171  15.2788973  76.0784683
  80.4522476  14.9238253  75.8210373  82.0370636  15.9097719   0.2713208
  81.4761810  16.0369205  -0.4938399  82.2587280  14.9787569   0.2537507
  38.8414116  10.7923470   3.7813416  39.7501984  10.8745623   3.4922469
  38.4830894  11.6761494   3.6993029  18.5063915  14.8471441  66.7279510
  18.3081150  14.1388445  67.3405075  17.9113064  15.5538683  66.9782410
  57.3787956  26.2332592  33.0294876  57.0891113  26.2461739  33.9417114
  56.5774231  26.0910358  32.5256958  48.1742020  47.5632858  59.7346764
  48.0524368  48.4638557  60.0353127  47.7656670  47.5423698  58.8692894
  48.8556328  52.8133049  20.6023788  48.5373917  52.0830688  20.0716209
  48.2352219  53.5218964  20.4314251  83.2797241  11.9140263  47.9992142
  84.2128220  11.7095785  47.9378204  82.8840332  11.4512396  47.2606430
  50.2572594  48.8838272  30.8068810  51.0658188  48.3736115  30.8531952
  50.5301704  49.7824554  30.9918575  54.4213829  60.4784317  41.6193962
  54.4433174  60.6982803  40.6880417  55.2946739  60.7045555  41.9394951
  68.0041656  69.5633850  50.7766838  68.0492249  68.7350159  51.2541809
  68.8036194  70.0271683  51.0256996  65.3959885  67.0587540  44.1900749
  64.8824158  67.3423538  43.4337349  64.7498093  66.6959152  44.7959099
   2.9510949   9.1020641  68.6137695   3.2157810   9.5990553  69.3878326
   2.1442823   9.5260134  68.3212814   3.7398078  53.8367271   6.1440983
   3.7068214  53.3754044   6.9821463   4.0022674  54.7286301   6.3718300
   5.1770344  17.8543110  55.3842964   4.8571458  18.5152493  54.7702446
   4.4044585  17.6044388  55.8911743  65.5229874  69.8293610  88.3883209
  65.0082779  70.3511887  89.0039444  66.3859406  70.2435455  88.3863297
  29.3182125  61.3139267  69.7005157  29.1295586  61.4321442  70.6314621
  28.5375690  60.8845367  69.3505783  66.5480652  19.5883713  50.5979118
  67.1326904  19.7200508  49.8515129  66.8885956  20.1730900  51.2749443
   9.7985640  33.2625580  26.7640247   9.5468330  33.8867683  27.4446316
  10.7093468  33.0455551  26.9630623  79.8619156  39.6677589  57.2516747
  80.7052994  39.3195686  57.5409737  79.7474442  39.3155594  56.3690186
   1.4986402  13.4291391  79.7537308   1.5625446  13.9322119  80.5655594
   0.5760975  13.1799812  79.6983490   2.9235115   0.5020034   6.6912646
   3.3042827   1.2099998   6.1716628   2.8750517  -0.2390092   6.0872912
  47.2748146   0.3724401  74.5706711  48.0471687  -0.1557479  74.3688736
  46.7834396   0.4016069  73.7497330  69.4013290  25.6481438  42.1105270
  69.2721786  25.8535919  43.0364532  70.2923584  25.3015270  42.0641212
  32.3697891  47.9295540   8.2512856  32.9885788  47.6965485   8.9434118
  31.5547409  48.1237679   8.7141142  73.1758347  43.6447601  84.5140228
  73.6363678  44.0228577  83.7649002  72.3181763  44.0697441  84.5073090
  53.1077271   0.9725931   6.3586979  52.4407082   0.9061787   7.0420065
  52.6157990   1.1733710   5.5625010  69.5058212  30.0800838  29.1802120
  70.1254730  29.5474625  29.6787949  69.0101242  30.5569572  29.8458767
  54.5162888  61.0241432  39.0180435  55.2371559  60.7700081  38.4418488
  54.1505356  61.8098946  38.6117783   9.6280661  33.0747337  51.4264069
  10.0128756  33.1586151  52.2988281   9.6898336  33.9534569  51.0518913
  74.0458527  33.0295525  72.7867584  74.8739700  33.1488724  73.2517548
  74.2663345  32.4648895  72.0459671  64.8676453  11.8450012  14.1930294
  64.4234467  11.0900564  13.8070526  64.4773254  11.9338083  15.0625067
  31.6399899  12.2791920  35.9000282  31.8333111  11.4613523  35.4417725
  31.7641983  12.9596281  35.2383537  20.4281235  64.1605377   8.4528933
  21.1412010  63.8249474   7.9096365  19.8593864  63.4039917   8.5957346
   4.1800413  50.3420868  19.5664825   3.6819596  49.7994308  20.1777706
   4.9488826  49.8147049  19.3497257  44.8638687  17.6168194  25.4749432
  43.9513664  17.7987537  25.6995964  44.9029884  17.7261276  24.5248089
  48.7716217   0.5121933  52.5301399  48.4209404   1.1416950  53.1602058
  48.4938927  -0.3408375  52.8639603  43.6390648  64.5932922  77.3712692
  44.1277657  64.5190353  76.5515823  44.3057671  64.5246582  78.0546646
  74.7188721  67.1620255  41.7760010  75.3493881  67.1113586  41.0575905
  74.1902313  67.9347076  41.5766563  68.4285431  60.8963356  73.7451553
  67.6901703  61.4059830  73.4115372  68.0778656  60.0130005  73.8590622
  52.5961380   9.0276794  24.4951668  53.1296463   8.7810059  25.2506485
  51.9271927   9.6105137  24.8544006  61.1908607  18.5414200  38.9740219
  61.4930687  18.6614628  39.8742943  60.6465492  17.7547379  39.0069771
  77.3411789  51.1076469   1.7000420  77.0968399  50.6105003   0.9194160
  76.9775467  51.9805603   1.5516301  31.6188240  36.5401955  16.6875725
  30.9822903  36.1482277  16.0897255  31.2245445  37.3737755  16.9443188
  13.8053322  49.4948387   8.3180170  14.7472792  49.6055794   8.4472589
  13.6278658  49.9157829   7.4768610  27.8747444  37.5651360  11.8859158
  28.5844097  36.9377937  12.0239325  28.3184547  38.4014091  11.7445021
  40.1321831  39.3584328  14.0861301  40.4935188  40.2244415  13.8971844
  40.2824516  38.8562584  13.2852106  11.1747103  65.8422699  55.9169044
  10.8358135  66.2960510  56.6885681  11.5485563  65.0310669  56.2610207
  42.7076645  67.8692474  83.6523056  42.8841515  67.2526627  82.9417343
  43.5397377  68.3224258  83.7883759  66.4081879  31.4900074  74.1469879
  65.6609573  30.8922806  74.1225815  67.1398468  30.9469261  74.4401855
  23.7868652  15.2437840  26.9320240  23.4842453  16.1431885  26.8066330
  24.1036587  15.2213602  27.8350029   2.2034745   6.0664768  26.7188663
   2.4609387   5.3187671  27.2581940   1.9384977   5.6798558  25.8842754
  40.2448730  54.2684441   6.4944901  39.8302269  53.5996094   5.9495506
  41.1797371  54.1845665   6.3068047  70.6046829  62.8097916  87.2896881
  70.9307785  63.4696045  87.9016876  69.6783752  63.0236359  87.1781006
  72.8915787  31.7253132  48.1397820  72.6815948  31.2948837  47.3110085
  73.2973862  31.0393314  48.6698570   2.4902370  67.9329910  69.3589172
   2.8119490  68.3453293  68.5572205   2.5681512  66.9935150  69.1929398
  78.0352859  67.8490219  18.5154324  78.3276672  67.1678467  17.9098339
  78.0222931  68.6482162  17.9887962  51.7954063  70.8284607  72.8138351
  51.6919975  70.2096329  72.0909271  52.5802307  71.3288116  72.5903854
  63.4387207  32.0621262  70.6513214  63.2260857  32.9938126  70.5967331
  63.8129768  31.9526920  71.5254974  36.4498749  53.7087746  82.9646454
  36.1280594  52.8121147  83.0577316  35.7455673  54.1699486  82.5091248
  43.5868111  71.4790802  79.9549942  43.6641121  71.1160812  79.0726776
  44.4874649  71.6751633  80.2130661  19.9039497  60.8828430  31.8154011
  19.7666378  60.9121780  30.8685551  20.4852772  60.1343994  31.9500370
   8.6313620  47.3822098  64.9430923   9.0521879  46.5312691  64.8204803
   9.2946453  48.0182457  64.6752396  70.0632095  67.1184387  44.5477905
  70.0908813  66.1616745  44.5558434  69.3064423  67.3315735  44.0018044
  73.6425552  71.2013626  51.1936569  74.4995499  71.4840698  50.8744850
  73.5225143  71.6801834  52.0137520  82.3962402  47.5787735  55.3795357
  82.2124786  48.5158424  55.3134651  83.3295746  47.5317535  55.5866890
  78.3809662  14.7568874  80.9005356  79.2180481  15.0560513  80.5455246
  78.1373596  15.4283466  81.5377426   1.6300321  24.6608047  11.7994661
   2.3069794  25.1663361  12.2493706   1.7271471  23.7723217  12.1421003
  39.3317451  19.3598633  11.4618721  39.4983177  18.5861835  12.0003023
  38.5135231  19.7189102  11.8051338  38.7922668  41.7075996  11.9703560
  38.4987869  42.3450928  11.3194265  38.8086510  40.8745041  11.4992781
  48.0270081  67.8518906  87.6538315  47.5531044  67.5402985  86.8827515
  48.4640808  67.0726852  87.9973984  76.4556885  11.3483791  66.1961975
  75.5225067  11.1395149  66.2383957  76.5665817  12.0745440  66.8098907
  78.4393692  32.4400063  29.3653812  78.4875183  32.7526207  30.2688103
  79.3446274  32.4635010  29.0552368   4.6898494  38.5074730  52.7007027
   5.5242982  38.0394592  52.7305412   4.8256464  39.1980896  52.0519829
  35.0439949  50.5709038  27.3449860  34.6183395  51.4074860  27.5325375
  34.8662033  50.0333710  28.1167870  35.2802505  25.9067116  87.6564255
  35.5973206  25.2605762  88.2874603  34.4589767  26.2247276  88.0313950
  68.0277100  64.9253693  87.0118484  68.2136688  64.1918945  87.5980759
  67.2519302  65.3415604  87.3875885  78.9269714  14.6591835  65.9786530
  78.9171524  15.5756302  66.2548065  78.5497894  14.6700544  65.0989685
  76.7299881  60.8142776  40.4101410  77.0358429  59.9148712  40.5273972
  76.9042053  61.2379913  41.2505875  26.2042332  32.2597046  81.1518784
  26.9582691  32.2797737  80.5625916  25.4473705  32.1896858  80.5700836
  57.7578621  63.0404663  28.9165516  57.0490532  62.5404968  29.3213387
  58.4964485  62.9378166  29.5167065  58.9734230  51.0486641  87.3577576
  58.9342041  51.5565491  86.5473557  58.0574036  50.8876839  87.5840988
  60.6994820  24.5206833  53.1441383  60.0664062  24.7088261  52.4512825
  61.3911362  24.0231152  52.7079391  11.5909567  48.4324646   7.4781828
  12.4026546  48.6081085   7.9541326  11.1899481  49.2938843   7.3624878
  57.3204117   6.7796392  40.1165199  57.4846115   7.1352301  40.9899178
  56.9877930   5.8964000  40.2761536  16.9914417  30.2906132  32.0752411
  17.3803005  31.1191654  32.3554611  17.4724026  30.0566654  31.2814045
   3.7614977   5.2525792  61.6783409   3.7459443   6.1399622  62.0368652
   4.6642256   4.9596930  61.8029671   5.1232891  19.1844730   7.2788930
   6.0599070  19.0899563   7.4522300   4.8963876  20.0380974   7.6477747
  21.9584808  59.9308472   4.7492709  22.3861465  59.5959587   5.5374231
  21.5822334  59.1553383   4.3330288  76.1804657   2.4209380  61.5546913
  76.1437607   3.1492667  60.9346771  75.6092911   2.6898680  62.2741814
  10.2239380  46.0265198  13.2247715  10.4151859  46.6188850  12.4976149
  10.1121683  46.6032600  13.9804907  43.2535133  11.7741289  51.7220688
  43.2777481  12.1438208  52.6046638  43.1681976  12.5340586  51.1463432
  36.1601906  55.8949890  12.1229696  35.8888130  56.7797089  11.8783035
  37.0617828  55.8255959  11.8090515  32.5181770  50.1833954  70.9968567
  32.3203125  49.9428024  71.9019470  31.9599304  50.9412613  70.8229752
  23.4460144  65.5922241   0.9173236  23.5226002  66.0734634   0.0934491
  22.8533478  64.8676834   0.7172797   1.1275289  23.4153500  66.0936279
   0.5623965  22.9574814  65.4713669   1.8600341  22.8162422  66.2376404
   1.1471767  44.6191750  68.0704269   0.3284831  44.1448593  68.2153244
   1.8309650  43.9622726  68.2013550  66.2656097  66.1916504  62.1536255
  65.4394836  65.7146530  62.2324524  66.2806015  66.4963760  61.2463493
   4.1503539  64.4275513  36.0772476   3.2661130  64.2546082  36.4004211
   4.3316331  63.7044182  35.4768753  49.2006378  63.7920570  20.3313255
  49.5700417  63.8503151  19.4502029  48.5744972  63.0697899  20.2812576
  84.7132263  27.3740673   5.1741018  84.2032471  27.7293186   4.4461260
  85.3990860  26.8543396   4.7549272  78.4497986  37.8041763  47.2362709
  77.6201782  37.3932495  46.9931908  79.0868607  37.0901680  47.2121849
  35.8396950  30.5106087  79.6624146  36.1560020  29.8339233  80.2609787
  35.8667679  30.0983143  78.7989807  37.3997955  30.9971542   3.5118279
  37.2896805  31.7907429   2.9880672  37.5426140  30.3032513   2.8681405
  77.2512436  65.6955872  64.7414932  77.8184280  66.0700912  65.4154892
  77.2682648  64.7535706  64.9104385  64.7111130  22.3166351  30.4694061
  65.5381165  22.6193542  30.8444557  64.4831085  22.9840164  29.8222256
  13.6191578  49.6390686  80.3439560  14.4504261  49.6438980  79.8694000
  12.9646311  49.8643303  79.6828308  59.1115913  15.3282022  27.5184765
  59.1977272  16.0220127  28.1722641  59.9291267  14.8346519  27.5838623
  72.2991409  36.9982796  31.3947620  72.9932632  36.9978409  32.0538750
  72.3384857  37.8721275  31.0060806  45.4354286  50.6282043  10.7785597
  44.5761490  50.2324371  10.9243050  45.2821617  51.5696716  10.8584280
  37.3682365   7.8107185  29.2084103  36.9159317   8.0278597  28.3932400
  38.2773476   7.6653047  28.9464912  33.7146797  12.3854742   2.1102309
  33.7618370  13.1742439   1.5699985  33.6803741  11.6654959   1.4804012
  12.8416100  34.0769768  30.2655354  13.7081652  34.2399178  29.8930225
  12.9678583  34.1595306  31.2107754   2.3231716  25.7132816  86.4054031
   2.2348764  25.4992733  85.4766235   3.2576382  25.8832226  86.5242538
  50.9292831  26.1133728  82.7775803  51.4966469  25.5855503  83.3394775
  51.1272354  25.8153629  81.8897552  50.5057220  14.9122124  33.4629936
  50.3476257  13.9694948  33.5131950  50.6185417  15.0867262  32.5286217
  11.4317646  54.8419838  41.7800140  12.3521576  55.0968552  41.8444252
  11.1071234  55.3093338  41.0103226  82.1414490  31.3149414  57.1638336
  82.3831635  30.4043484  57.3330307  81.2121735  31.2779560  56.9373322
  58.7442741  61.2872581  37.4143295  58.6965675  61.3323746  36.4593849
  57.9275055  60.8616791  37.6751022  51.2487907  54.8865662  40.6258965
  50.7944221  55.6965637  40.3941994  51.6308861  54.5823822  39.8026657
  10.6553326  60.7389488  43.7729645  10.3284664  61.6382561  43.7477798
   9.9585609  60.2195320  43.3717842  50.5742149  50.2310219  79.3050766
  50.2998085  50.2400742  78.3880997  50.3884811  49.3401566  79.6018753
  72.2386551  40.4633904  23.9574490  71.6458740  41.1829910  23.7406235
  72.3303909  40.5071487  24.9092369   1.1006750  42.7344360  88.8098679
   1.4305885  41.8457222  88.6772766   1.8640394  43.2959290  88.6748505
  61.6065865   2.0423546  57.0508041  61.9194221   1.7134176  56.2080917
  60.6581650   1.9168038  57.0197830  74.9550934  28.8151779  30.0250740
  75.7320251  29.3206577  29.7861195  74.2635345  29.1565323  29.4580994
  73.5214081  58.7934341  63.1105194  74.4655380  58.9450874  63.0674591
  73.4116821  57.8849983  62.8295670  15.8555937  56.9412880  24.9896049
  14.9791355  57.2298660  24.7350941  15.8133974  55.9857483  24.9522648
   9.9215107  18.0314751  68.8450928   9.6233702  18.1950951  67.9503479
   9.3151064  18.5283947  69.3942490  60.4484062  21.6789474  14.4503784
  60.2076378  22.3843708  15.0509129  59.6587868  21.5263443  13.9312954
  50.3449020  68.5619354  80.2406616  50.8709145  68.1840515  79.5358582
  49.6652679  69.0631561  79.7899857  86.7938309  61.2599411  69.4169998
  86.0479279  61.2288246  68.8179169  86.7324295  60.4468613  69.9183578
  38.1966629  65.9748917  50.4640274  37.9020882  65.0710068  50.5755959
  38.1943932  66.3385620  51.3494492  55.7631683  16.9584599  54.4342308
  56.5017395  16.3537464  54.5054054  55.0555878  16.5300713  54.9159393
   3.4788072  60.0102234  80.7250748   4.2964182  60.4711113  80.5371170
   3.7166741  59.0832367  80.7064972  83.9798813  25.2546463   7.0340056
  84.7695160  25.2588253   7.5750184  84.2378540  25.7059021   6.2302327
  66.1968231  66.4025879   1.5756234  66.8511734  65.8349457   1.9828596
  66.7091446  67.0762482   1.1284738  86.0756454  48.6370735  20.9491959
  85.1529312  48.6202850  21.2032566  86.1364441  49.3512878  20.3148212
  32.5723801   6.7998118   4.0853958  32.9008141   7.6951175   4.1678023
  32.9590302   6.3336768   4.8266459  44.9409370   4.9712853  50.9048653
  45.4656830   4.3124428  51.3596153  44.6203308   5.5445180  51.6011734
  45.9046364  64.5062943  78.9236679  46.2749176  64.3442078  79.7913361
  46.6657715  64.5729446  78.3470688  86.4513550  57.3083458  45.5782661
  86.1043625  57.9649162  46.1822090  87.3979187  57.4503098  45.5881729
  28.4965897   4.8174744  81.8488617  28.3517113   5.3373733  82.6393967
  29.4331512   4.9061537  81.6721725  44.1508675  24.2897472  80.4004822
  43.9390106  25.2224293  80.4385681  43.6321869  23.9560127  79.6684799
  66.4022446   9.2011881   0.2747827  66.0451813   8.3199749   0.1643181
  66.2159958   9.4224377   1.1872472  63.4958496  32.8096962  73.7087326
  63.3981323  32.2796822  74.4997864  64.3992996  33.1242676  73.7412796
  68.6016388  58.6454659   2.1638050  69.0291061  59.4110298   1.7798649
  69.2870178  57.9779091   2.1929374  19.3181229  40.7057571  75.5591660
  19.2264423  39.7812424  75.3287354  19.7141781  41.1072388  74.7857437
  64.7475586  26.1064720  32.5806923  64.9448013  26.9832535  32.9102097
  63.7964020  26.0992317  32.4735603  14.3417826  33.7286072   9.4239569
  14.2297955  33.4834251  10.3424206  14.1976366  34.6747818   9.4093466
  69.3321991  48.4155693  24.3971596  68.5948334  47.8954811  24.7165852
  69.3115616  49.2117424  24.9281178  22.4712181   2.4469891  80.9882202
  21.7009640   2.7563920  81.4648895  22.1854801   2.4002590  80.0758591
  58.4952393  46.5557137  19.1874981  58.5961800  46.4671173  18.2397671
  57.6005783  46.2632217  19.3614540  46.4479446   4.3006482   9.1515589
  46.5628624   3.5215616   9.6956635  46.3445473   5.0170770   9.7778740
  13.9664154  47.1822624   0.6104739  13.8008614  48.1142616   0.7525895
  13.2859840  46.7382431   1.1165287  75.5698547   1.4454892  45.8339577
  76.2079315   0.7339940  45.8874855  75.8961334   2.0074522  45.1311302
   9.9677458  15.5235443  80.3761520   9.0583811  15.3165359  80.5916367
  10.4833918  14.9071026  80.8960953   0.0598617  20.5226421   6.4963326
   0.7551749  20.8019943   5.9007368  -0.3843963  19.8142929   6.0303860
  44.5023079  42.8213310   8.7032719  44.9374733  42.0571098   9.0811996
  45.2172012  43.4154854   8.4749393  65.3669586  14.6438522  74.2599411
  65.5278320  15.5544262  74.0125351  64.5599670  14.4100409  73.8013306
  59.7417717  12.8634434  47.4379997  60.2136307  13.1497707  46.6559563
  60.4122200  12.4563303  47.9866257  19.3828640   6.6420779  73.5574951
  20.1915531   6.3688884  73.1243439  19.6503220   7.3567386  74.1353836
  60.8185501  19.9101868  81.6249619  60.1820526  20.1813049  80.9634476
  60.8676033  18.9585533  81.5343094   4.5342388  35.5337944  81.5754013
   5.2434502  36.0884857  81.9003220   4.4128647  35.8081169  80.6664200
  10.0980415  19.9180202   7.4980955  10.3406963  19.4417667   6.7040348
  10.1368752  19.2607613   8.1928864   7.1713209   9.3747206  61.5666122
   6.4314842   9.9811897  61.5992966   7.3874454   9.2108717  62.4845848
  43.7808342  20.6878986  15.8107643  43.9187164  20.0726547  15.0905581
  42.9680405  20.3955441  16.2232285  60.6919022  39.5480499   3.1174803
  60.1992111  38.9435272   3.6724923  60.1379318  40.3265839   3.0606244
  11.1773033  14.6082239  21.3744335  10.5063076  15.0850735  20.8859558
  11.6976757  15.2919035  21.7963676  14.8313446  30.0407696  72.7389755
  14.2654104  29.3354301  72.4252167  15.6408138  29.9390240  72.2383347
  44.0818176  11.7918034  45.9938736  43.1719856  11.9071865  45.7197876
  44.4758530  11.2633133  45.2998505   2.1128352  12.5193825  26.4468479
   2.4991708  13.2311306  25.9365635   1.1848366  12.5330591  26.2126198
  79.8530197  55.5045509   3.1723187  80.5162735  55.2171555   3.7998025
  79.3325729  54.7203674   2.9979076   3.5869932  38.1930962  48.2899284
   3.2801952  38.8082047  48.9560738   4.0629640  38.7372208  47.6625443
  71.5599518  18.2015209  25.7076588  71.9550247  17.3296776  25.7137928
  71.0543289  18.2410736  26.5194569  60.7827263  63.0401459   7.4408107
  60.5324707  62.1163902   7.4576802  60.0922165  63.4843788   7.9328299
  16.2169666  55.0504265  69.8153305  16.5079117  54.9008217  70.7148895
  16.8766556  55.6365929  69.4445953  10.8329973  36.5998650  58.6845856
  10.8994579  37.5284538  58.9071541  10.4275303  36.5898018  57.8175621
  39.7835007  66.2718658  22.7071781  40.2057343  65.4999008  22.3303299
  40.0246315  66.9877319  22.1192741  62.7831726   1.0387561  87.4931259
  62.7045174   1.9376295  87.8126144  62.5882149   1.0990396  86.5579300
  80.0773544  47.5244408  44.7283401  80.0988159  47.2461090  45.6439285
  80.9179764  47.2380562  44.3711777  10.4721575  10.4162989  63.9635010
  10.0998030   9.6552353  63.5181160  11.2973785  10.5808048  63.5072327
  60.5330734  23.7073402  75.7518387  61.4104538  23.7192955  75.3693542
  59.9525299  23.5218830  75.0137329  40.1471291  53.1163406  77.2229462
  40.8102112  52.5509453  76.8268661  39.9480743  52.7006721  78.0618896
  22.6237564  62.6089172  86.1356812  23.0334873  62.4756889  85.2809296
  23.2091141  62.1700287  86.7529068  50.6716957  11.3624163  71.5005646
  50.6809845  10.4055576  71.4767609  50.5129852  11.6230450  70.5933075
  82.0670776  33.9064331   6.8939342  82.2148819  33.1055260   7.3968554
  81.1223373  33.9221687   6.7407947  16.8969002  25.2001839  72.9340210
  17.1644306  25.5724621  73.7742996  16.1430321  25.7266178  72.6679688
  60.1959763  52.6934509   0.3345132  60.0708008  52.4182472  -0.5736856
  59.3169327  52.6772766   0.7130057   8.9582224  27.7671394  86.8634872
   8.2149963  28.0510921  87.3956680   9.5881186  28.4848537  86.9294357
  39.2123680  51.3189812  16.2444096  39.5387192  50.5756721  16.7515736
  39.1173897  50.9787178  15.3547850  31.4195061  51.7640305  36.6774902
  30.5745716  51.5481339  36.2828941  32.0614433  51.5523949  35.9997253
  51.6701813   4.1552658   8.8643007  52.5751801   3.9092643   9.0558443
  51.4177055   3.5899856   8.1342678  30.1402721  60.4870415  74.9732895
  30.5648823  60.4830704  75.8311462  29.2777481  60.1031761  75.1311798
  21.7093239  29.0301285  26.2021217  21.9634609  28.2747822  26.7323093
  22.5184193  29.5300655  26.0941315  13.8633518  50.4508629  46.1260147
  14.2275305  51.2088013  46.5833282  12.9816036  50.3548889  46.4859314
  33.1250763  49.6123886  54.8843536  33.8035316  50.0298805  54.3536644
  33.4646492  49.6481133  55.7785835  70.6697388  68.6982269   3.7222610
  70.3713760  68.1923294   2.9664309  69.8757629  68.8568878   4.2328105
  16.5613613  48.7247543  70.7499313  16.2285786  49.4223557  71.3145905
  16.1561432  48.8916245  69.8989410  17.0353165  22.6965523   6.4328585
  17.6419811  22.4398766   5.7383757  17.5730324  23.1943684   7.0487089
  78.5592499  49.5583954   5.5964904  78.0227432  48.8979645   6.0349312
  79.0960312  49.0602608   4.9800820  55.9423904  41.9012794  30.3407917
  56.2311096  42.7397118  29.9803696  55.9261856  41.3099327  29.5882759
  38.0285072  53.1244125  23.9758053  37.7283745  52.7118797  23.1658859
  37.9739113  52.4302902  24.6326523  60.9963989  66.6870880  44.1524010
  60.2807007  66.7592010  44.7839127  60.5601807  66.5745850  43.3078384
  19.6699219  48.3967400  49.4807320  18.7827988  48.4096718  49.1214600
  19.8234253  49.2954750  49.7721748  63.7445297  45.8052788  24.7373734
  63.5605431  45.9784889  25.6606178  62.9035034  45.9308357  24.2978954
  61.9441071  46.9166679  59.9501953  61.8143730  47.0769272  60.8849258
  62.5262108  46.1575851  59.9158592  73.5231171  14.6976805  47.0355377
  73.7461853  14.0701351  46.3480377  73.9418716  14.3494911  47.8227081
  11.9734564  32.4390335  12.1579590  12.1355457  31.5571384  11.8229733
  11.2150221  32.7478600  11.6623421  45.7410393   8.9120312  36.8669891
  46.2721596   9.4423685  37.4610291  45.1477318   8.4293032  37.4424820
  32.1935539  60.9865341  43.9104996  32.3428116  60.2303238  43.3429604
  31.5912285  61.5421219  43.4157677  82.6672745  30.0115032  14.7928286
  83.3949127  30.2308807  14.2109032  81.9298401  29.8507519  14.2041092
  45.6169624  33.4272499  55.8528862  46.4355545  33.9231377  55.8376122
  45.8630638  32.5693321  56.1987915  67.4931793  22.5351276  43.3064156
  67.4785767  22.2226334  42.4017830  66.6953812  23.0570030  43.3924484
  54.6043472  61.3490639  57.9043808  54.6307411  61.4225006  58.8583946
  54.9780502  60.4873199  57.7200623  67.8857803  64.6743317  50.1538200
  67.1726685  64.4935608  49.5414200  68.0140457  63.8495178  50.6222916
  13.9276533  64.3476181  13.2891216  13.4521770  64.4270782  14.1160688
  13.4514503  64.9156647  12.6834965  19.8799000  65.7874374  83.4716187
  20.5952168  65.8712997  84.1021118  19.1721935  66.3158417  83.8406296
  82.5622940  55.8937302  35.6570396  82.7981644  54.9833412  35.8353310
  83.3939667  56.3208313  35.4517708  61.5119324   6.3921223  75.8214874
  61.3535805   6.2832546  76.7592010  61.8536453   7.2823496  75.7380524
  78.9446335  22.7512627  18.9345875  78.6713867  23.4917374  18.3930435
  78.3219604  22.7435341  19.6615372  79.8560181  58.0184975  48.5655365
  78.9613190  57.8131371  48.2943153  80.2362823  58.4718742  47.8131523
   9.8017206  22.2297268  82.2081146   9.3911114  22.3036385  81.3466187
  10.6551065  22.6504879  82.1035919  67.4605560  12.0849171   4.0172853
  66.7723618  11.4332476   3.8833365  68.0099182  12.0170813   3.2363684
   3.1251085  17.5707111  57.8599625   2.8155937  17.5691490  58.7657356
   2.4549077  18.0559177  57.3786736  78.3741989  65.9134064  39.6681900
  78.5657272  65.1552048  39.1162109  78.9179382  65.7870483  40.4457626
  38.5029335  42.5354462  64.6247253  38.1341286  42.9194183  65.4201965
  38.2289124  43.1270523  63.9239044  15.6615400  38.7700615  30.4578972
  14.8004923  39.1281395  30.2420082  15.6730051  38.7340317  31.4143505
  41.8573875  55.1821365  52.6742592  41.9993896  54.5850868  51.9396858
  42.5035210  55.8767395  52.5467033  19.3097610   4.2224836  49.2640762
  18.4799995   3.8008611  49.0405579  19.6543903   3.7029541  49.9904060
  41.7731171  65.9581223  19.6282673  41.3075943  65.2165146  20.0149651
  41.0846748  66.4941864  19.2346802  41.3396530  14.2116222  29.4666882
  41.6839218  14.0839872  30.3506699  42.1129456  14.1895065  28.9029865
  80.4757462  41.1018906  39.5881996  81.1980591  40.7505798  39.0675430
  79.9857254  41.6522942  38.9773293  66.6779633  41.4734993  42.0171280
  66.3629303  40.7370186  42.5411339  66.2179947  41.3874283  41.1821098
  66.1061401  41.8356705  83.6801834  66.6766815  42.0274124  82.9359055
  65.5084457  41.1617432  83.3564224  15.1239901  11.5106955   5.1134210
  14.8564167  12.1253624   5.7966642  16.0460052  11.7140350   4.9560246
  71.8027344  22.8785648  18.1319523  72.3079987  22.4039249  18.7919941
  71.0086670  22.3565559  18.0170918   9.6330051  62.7062721  45.9718170
   8.7133055  62.6281738  45.7182693   9.8843775  63.5867844  45.6930008
  24.1040344  70.0477142  88.5284729  24.4423504  69.9059906  87.6443405
  23.1697979  69.8501968  88.4619522  13.1418028  24.9213123  77.3905716
  13.3090734  25.0385761  76.4554214  12.6241407  25.6871185  77.6391602
  69.7019577   1.3398583  87.5941238  70.0023041   1.9673947  88.2515640
  69.0654373   1.8271672  87.0710526  55.0275879  58.7412224  57.1232224
  54.4717712  57.9989166  56.8859901  55.9094696  58.4718056  56.8664474
  59.5378838  30.4136944  18.8798885  59.3018188  30.8961964  18.0876141
  60.1134148  31.0088825  19.3602486   8.6408052  66.6920700  15.4240875
   8.2131872  66.0214920  15.9567156   8.9758806  66.2165222  14.6639490
  44.0460320  65.5614395  54.3706284  43.9254837  64.7508163  53.8760719
  44.5939636  66.1070099  53.8063965  39.4910088  15.2730417  39.5649605
  38.7626495  15.3880100  38.9546280  39.0720901  15.0941687  40.4068298
   2.2542090  68.6595383   9.7128801   3.0543699  69.1848679   9.7146912
   1.8757923  68.7965240  10.5813665  10.3366318  14.7850027  75.4645767
  10.3294716  15.0997925  76.3685074  10.0411396  15.5344486  74.9476166
  12.0754862  50.3444290  13.7634821  11.2297163  50.5322800  14.1704435
  11.9337597  49.5295258  13.2817402  25.6213894  69.1659470  57.4512100
  25.6054745  69.7490997  56.6923180  24.7044678  69.0922165  57.7158813
  79.2093124  23.4003773  43.6566658  79.5124207  23.0459347  44.4925652
  79.1113892  22.6332397  43.0926247  86.5758438   3.4529133  21.9020824
  86.7661438   3.3968413  22.8384991  85.6229095   3.5302668  21.8555393
  14.2575111  61.5942383  47.7465057  13.4786043  61.0513420  47.6248512
  14.9903994  60.9850044  47.6574135  63.8336983  20.0769138  41.6811600
  63.8849525  19.1570187  41.4215508  64.3567047  20.5399685  41.0267334
  37.0079269  42.1364555  78.8585815  36.8008041  42.6999741  78.1130676
  36.7527809  41.2589722  78.5737076  65.8323898  60.7967072  89.0039291
  64.9543762  60.8021088  88.6227341  65.9502563  59.9013367  89.3211823
  62.8369904  28.0023193  36.7428474  62.8763123  27.0810432  36.9996223
  61.9012604  28.1993713  36.7002907  32.3594894   9.1236267  41.8798103
  32.2777939   8.3775005  42.4738235  32.8879738   9.7582750  42.3637085
   2.1213570  48.7671013   8.9857512   1.3598419  49.3181419   8.8049641
   2.1854045  48.1899185   8.2248383  80.9238663   3.8548527  82.2503586
  80.6172256   4.6497698  81.8141098  80.5758972   3.1398182  81.7175598
  86.4704208  50.8748245  19.0383968  87.2714615  50.8897324  18.5146179
  86.2113724  51.7938156  19.1060867   1.5916996  32.5672150  62.1823502
   1.3237437  32.0151176  61.4477615   2.0608597  33.2957726  61.7757492
  71.3114929  43.6186676   7.0488963  70.8295975  43.9486427   6.2905245
  71.8610153  42.9182396   6.6972542  23.0536346   7.2513838  55.4755135
  23.3433628   6.5337453  54.9122353  22.3115864   6.8904848  55.9606438
  76.2219315  35.0542564  41.9565697  76.6585541  35.1145401  42.8062477
  75.4583054  35.6255531  42.0386200  20.4804745  64.8605042  12.1642389
  20.5886307  65.7267990  12.5567532  20.5614643  65.0123825  11.2226410
  79.2247620  33.9013138  70.7725830  79.7651215  33.1228180  70.6377029
  78.3530502  33.6425400  70.4736176  10.0848475  67.1687851  86.8435669
   9.2477779  67.1810989  87.3076782  10.7168531  67.5018539  87.4806442
  31.5204678  16.5990887  79.9092712  32.2720604  16.9164982  79.4086838
  31.8287182  15.7897167  80.3168640  39.7700005  51.3155746  70.7409286
  39.1384239  50.6893883  71.0948105  40.3770485  51.4775352  71.4630737
  37.7570839  52.1833496  72.8641739  37.7066994  52.5981941  73.7253342
  37.7394295  51.2443771  73.0492477  79.4328308  58.6759338  57.9249268
  78.8111267  58.6803207  58.6527328  80.2925949  58.6447144  58.3445320
  40.0434875  11.1270409  51.0123177  40.3970070  11.3165207  51.8814278
  40.6651688  11.5318031  50.4074097  34.3260384  20.9994335  25.4908524
  33.3778229  20.9468269  25.3710499  34.5416412  21.9117622  25.2974472
  25.8950729  52.7213097  17.3275814  25.6602421  52.8773613  18.2423134
  25.1535664  52.2329865  16.9698982   8.5610600  57.5320435   0.4732598
   8.6599092  57.5083733   1.4250479   8.9487553  56.7104721   0.1716898
  57.6199112  11.0985451  34.5772400  57.2960663  11.9639254  34.8271866
  57.4097557  11.0238314  33.6463890  81.7638779  16.6893520  72.4444504
  82.1988525  17.5073166  72.6851959  80.8322067  16.8661957  72.5746384
  30.2924099  38.1451988  20.6190548  29.7558212  37.8195877  21.3417454
  30.8390980  38.8245544  21.0138168  52.3695030  59.1462746  67.2004013
  52.1404037  60.0538216  67.4006577  52.8398628  58.8411980  67.9762344
  18.4897499  42.9698715  76.7326584  18.9204693  42.1410255  76.5235519
  17.7768955  42.7269745  77.3234787  65.6476974  48.4523735  28.9995232
  65.3013000  49.3138084  29.2322578  65.9285202  48.0740509  29.8327351
  21.4380989  28.0301075   0.7030179  21.1984520  28.0682049  -0.2229141
  22.1340714  27.3741989   0.7435020  39.6390953  64.7271652  32.9744911
  38.7873268  64.6238174  33.3987999  39.6633186  64.0346680  32.3141212
  29.8034592  41.2632637  17.5681305  29.9482918  40.3582649  17.8442307
  30.2383633  41.7906189  18.2381973  65.3145828  20.3298779  10.7591925
  65.5964508  19.4419575  10.5392427  64.6433563  20.5361328  10.1086960
  46.7571602  13.4757757  27.4577541  46.1876488  13.6996403  26.7217026
  47.4985428  13.0215359  27.0574398  61.1180267  65.5950470  49.7637787
  60.8419495  65.1716385  50.5766335  60.3647766  66.1242905  49.5015831
  16.9405842  67.7287674  49.3694229  16.8863125  68.1618500  48.5175285
  17.7470856  68.0665588  49.7588882  81.4677124  29.1873894  65.4303894
  82.0834961  28.4557209  65.3891068  81.2010727  29.2244930  66.3489532
  32.0663986  59.9887390  37.6376877  32.5369606  60.4217262  38.3499565
  31.1617889  60.2870712  37.7320862   0.8037754  65.8271561  57.2829781
   0.2066894  65.1126328  57.0612183   0.6120318  66.0236435  58.1999588
  13.8765097  59.1899567  35.2988701  14.0100098  59.8715591  35.9575233
  13.2556438  58.5841560  35.7035484  80.1217880   4.4432330  73.4162674
  79.3213959   3.9187777  73.4397659  80.7351685   3.9210961  72.8991852
  27.1590729  51.2339935  33.3588409  26.9089565  50.3469543  33.1003075
  26.3914146  51.7682686  33.1551666  46.8559151  31.9822388  87.2421417
  46.0728035  31.8663254  86.7040558  47.1859665  31.0942497  87.3791504
  78.6642303  48.5529366  87.4491272  79.5364227  48.6706505  87.0727463
  78.6781464  47.6680031  87.8137283  80.4691315  57.2339745  86.8606262
  79.5994720  56.8511276  86.7450409  80.8679504  56.7158127  87.5596848
  17.0530930  39.3100967  28.1848545  16.5827885  39.2657967  29.0173702
  17.3890095  40.2056160  28.1468906  18.0935135  38.2061157  10.9733572
  17.1646595  38.1179771  10.7595968  18.1666088  39.0740128  11.3703985
  66.7909698  29.1194153  27.7328968  66.6672516  29.8885307  27.1766720
  67.6284027  28.7517738  27.4504490  73.7164764  64.8527527  33.8445396
  74.5168839  64.5389252  33.4237175  73.4119034  64.1091156  34.3646049
  79.1123428  45.9449005  22.9416199  79.3732452  46.6778107  22.3839378
  79.6594467  46.0313568  23.7222843  65.7792206  51.4416046  34.0260353
  66.1841812  52.1250191  33.4920120  66.1179123  51.5947151  34.9081230
   2.1849315  61.3640366  17.3000469   2.1317177  61.5860710  16.3704758
   1.3296803  61.6080627  17.6539230  48.3445663  63.0058556  57.6190491
  48.9196129  63.6545944  57.2132301  48.7260399  62.1622734  57.3759880
  74.5362701   7.0874238  60.0992355  73.7651672   6.7754955  59.6255951
  74.1925659   7.4029856  60.9350128  31.7117329  32.3424492  20.2158775
  31.2520351  32.7764473  19.4971600  31.0316238  31.8439522  20.6688499
  18.9827404  54.5027580  16.4237175  18.4733047  54.0344391  17.0850658
  19.8262329  54.0505867  16.4066048  41.2335701  24.2373905  77.4656372
  41.1172142  25.1378403  77.1625061  40.5816765  24.1318035  78.1585388
  46.4842148  65.4123993  18.4486485  45.7265396  65.7591858  17.9775829
  46.8313103  64.7297058  17.8744698  74.0135803  45.4759102  82.5142365
  73.9131699  46.2425575  83.0785065  74.9211502  45.5175476  82.2128754
  47.9309959  52.1590614  70.3625336  47.5324287  52.9092178  69.9213562
  48.4097176  51.7013702  69.6714630  59.2333794   9.7742882  56.6876183
  59.8604202   9.5430298  56.0023651  58.4015083   9.4113750  56.3834496
  15.9980536  16.4709091  79.9484558  16.8844547  16.8316040  79.9278412
  15.4590321  17.1354237  79.5193710  49.2148972  56.5204697  70.0035706
  49.9050903  56.3133698  69.3735123  48.5295753  55.8754959  69.8287125
  10.8377542  10.9039249  25.9708481  10.0052109  10.5542831  26.2884235
  11.4761734  10.6419868  26.6342049  82.5236053   6.1673279  57.2874374
  82.3742752   5.3444605  57.7530785  83.4113388   6.4252992  57.5356560
  83.4498520   8.4746819  83.6350861  83.0339508   7.6348739  83.8299637
  83.0547485   8.7514944  82.8083420   8.5571022  37.3917160  65.3976746
   9.4905758  37.5374260  65.2439575   8.3789244  36.5397072  64.9994736
  19.7441635  27.7810936  18.9638500  20.4068928  27.6034775  19.6312866
  20.0634823  27.3289070  18.1829548  79.8219147  55.9523888  23.9291134
  79.8226852  56.9064255  23.8513832  80.2534714  55.6467285  23.1312656
  81.6975861  25.0184364  12.3966637  81.1558609  25.6099682  11.8743076
  82.3626633  24.7006741  11.7859802  12.2378893  50.2403793  66.2126541
  11.6655359  50.9951820  66.0751114  12.3742361  49.8803444  65.3362885
   2.2749615  70.8031540  74.7455597   3.0440361  70.8363571  74.1766586
   2.0733488  69.8705139  74.8215637  23.5724869   3.6734097  11.0270414
  23.2404251   4.5307264  10.7606297  24.2939796   3.4977512  10.4230356
  28.2281075   2.3763022  80.8434448  29.0676975   1.9345204  80.7163696
  28.4395599   3.1445398  81.3738480  33.6437988  27.0686722   8.0217819
  34.3617821  27.3763275   7.4685354  33.8122406  27.4664440   8.8759699
  77.5965271  71.2006378  45.0165024  78.1653137  71.8411407  44.5893402
  77.2500763  70.6712952  44.2981720  67.3280334  35.8605309  23.9254818
  67.0100861  35.5269966  24.7644653  68.2817154  35.8262901  24.0000248
  58.8041649  16.5801468  56.0722694  59.2368546  17.2536793  56.5970230
  58.0337029  16.3353863  56.5848236  40.9976234  55.9307365  40.5076637
  41.1996765  55.1606941  39.9762115  40.8797302  55.5864944  41.3930092
  79.0682144  64.1899796  71.2051392  79.8509064  64.0552368  70.6708450
  78.3916550  63.6670113  70.7750092  27.9240646  17.3117180  30.8364029
  27.5309830  17.8224430  30.1286755  27.2676144  17.3228149  31.5329533
  12.5177584  19.3830223  40.3126450  11.9104700  19.7441540  39.6668777
  12.0431013  18.6496449  40.7039146  75.3057861  57.5741348  16.4119797
  74.7025070  58.1897736  15.9957151  75.4563751  57.9389420  17.2840271
  68.4666824  32.5404053  49.3629227  68.5110855  32.1618309  50.2409554
  69.3321381  32.9249649  49.2238617   8.6168766  46.3438530  21.3860130
   8.2184286  45.6346931  20.8814659   8.2632589  46.2375145  22.2691193
   3.8360891   3.9236853  27.5805645   4.4829774   3.2300079  27.7093239
   3.1514730   3.5171332  27.0492935  17.0786743  20.7373753  17.0703526
  17.7545509  21.3662205  16.8174191  16.2706261  21.0921955  16.6996899
  16.8359737  37.8475075  67.8577194  16.1476879  37.5281258  67.2742081
  16.3645592  38.2184639  68.6036377  74.2198029  29.5389805  49.8420143
  74.6788025  30.2577324  50.2766914  73.7880020  29.0656719  50.5531845
  84.7022018   7.7233729  65.2967758  85.0544281   8.4986725  64.8596497
  83.8196945   7.9796267  65.5646439  54.7745247   0.9789641  62.8519516
  54.1888199   0.4958040  63.4348221  54.4705772   1.8851112  62.9043274
   2.5699241  55.5774651  59.1754112   2.9581730  56.3909950  59.4973793
   3.1126854  55.3333321  58.4257164  84.1334152  55.1063347  13.8881254
  83.2177887  55.0578651  14.1629162  84.6295319  55.1053581  14.7067261
  73.5822067  53.9665146  56.6873665  74.4869843  53.7023392  56.5205574
  73.0981522  53.6609268  55.9202003  32.8947792  28.9083176   1.5177023
  32.0087471  29.1832275   1.7535040  33.1771851  29.5464973   0.8625654
  74.8993225   6.1246581  28.5656910  75.4044113   5.4184890  28.9687328
  75.0940781   6.0551977  27.6310921  22.6579132  62.4064026  51.1809464
  23.0692577  62.9533348  51.8501930  22.2889042  61.6693306  51.6675491
  73.4182663  52.0819702  79.6550217  74.2357101  52.5495491  79.8264465
  73.2274857  51.6248894  80.4741135  58.7908707  57.5715256  65.2834244
  59.5011978  58.2066116  65.3747025  58.0008774  58.0612488  65.5121460
  69.8198318  38.8121262   1.4851617  70.0448227  38.0144463   1.0062890
  68.8761292  38.9096565   1.3580689  85.8325577  57.4044342  59.1857491
  86.3587494  56.6927261  59.5502090  86.2623596  57.6205597  58.3582268
  86.0129166  39.1063805  65.4795837  86.6982346  39.7704201  65.5545959
  85.6727905  39.0116501  66.3692856  13.2440453  55.6737900  54.3527336
  13.0688181  55.5789185  53.4165039  14.1887770  55.8182182  54.4061546
  22.8112526  30.3384399  10.7347088  23.1690788  29.6590977  11.3062754
  22.5618267  31.0453415  11.3299465  67.3451996  16.8638992   0.8827818
  67.4553299  16.0040112   1.2886088  67.3553085  16.6877937  -0.0580245
  78.9587173  29.8593750  46.4285889  79.8821487  30.0607510  46.5801048
  78.9207306  29.5843124  45.5125504  22.1520672  54.3854065  71.1901855
  22.7360573  54.1336403  70.4747772  22.0570202  55.3335381  71.0993881
  77.1389008   2.3643124   6.8033800  77.8799744   1.7600231   6.8467350
  77.5390854   3.2337947   6.7940426  86.1251450   0.8584623  86.1950302
  86.6928940   0.0907571  86.2622452  86.6968002   1.5508111  85.8632355
  21.6793880  67.4065323  65.8337631  22.4286423  67.0700607  66.3253250
  22.0588989  67.7534866  65.0264053  48.2007561   4.5436110  39.9122009
  49.0912514   4.8946824  39.9102707  48.3136559   3.6034391  39.7723351
  50.0427971  51.9959641  26.4265213  49.1702843  51.7417908  26.1259365
  50.1843071  52.8626366  26.0456161  76.8045883  47.0052834  60.1446190
  76.1139603  47.6168137  60.4001465  76.8386841  46.3700333  60.8598328
   3.9711351  59.5697861  67.7281189   3.7208750  58.6506271  67.6345825
   3.9401782  59.7316895  68.6710129  28.1561546  59.2021484  32.7242432
  27.9608402  59.9583359  32.1708298  28.6627445  58.6173592  32.1606636
   2.1915369  65.9099274  53.5825539   1.9546291  66.6953888  54.0756645
   2.1802297  66.1893463  52.6671143  35.4451141   5.5145736  69.5675888
  35.4905052   4.5671034  69.4392395  35.0790825   5.6200576  70.4457245
  34.5195122  50.8530273  79.4031982  33.6297569  50.7018585  79.7221298
  35.0731239  50.7417488  80.1760941  13.0815830  39.7005768   5.2010531
  13.5952444  39.7476997   6.0073805  13.7009048  39.3905869   4.5403109
   6.7724538  46.4177399  30.2796116   7.4786072  45.8374519  29.9952755
   6.4455423  46.0196800  31.0864010  35.0443802  27.7792263  27.2432537
  35.0640106  27.2863503  26.4229374  35.1602974  28.6914368  26.9774151
  77.1771698  24.7998104  37.0787201  77.9892197  24.4068298  36.7587547
  77.4423447  25.6544762  37.4185181  34.0907745  32.1030540  38.6600647
  34.1153641  32.3316727  37.7308922  34.7673073  31.4333000  38.7599144
   1.2180357  57.8286743  62.7840500   1.6150488  58.6856232  62.6283112
   1.9095477  57.3170853  63.2039528  68.9713135  24.2906094  21.3030052
  68.6845169  24.5950222  20.4420090  69.3090744  25.0755539  21.7342930
  79.7604294  62.0794678  30.3310261  79.8781967  62.5192719  29.4890423
  78.8120651  61.9876328  30.4226933  35.3785553  23.4682751  20.5718746
  35.9241905  24.0010281  21.1503983  35.9664574  22.7845497  20.2507439
  13.3956575  45.8348351  26.6315651  13.4175234  46.1145058  27.5467358
  14.2884970  45.5418625  26.4492512  25.7039738  67.4562836   2.4403620
  26.2899914  67.5294571   3.1936615  24.8401279  67.3026047   2.8229644
  30.2628841  68.2376938  35.7123756  29.3759613  67.9448776  35.9217949
  30.1902733  68.6129303  34.8347893  79.0889664  33.7022514  76.9468765
  78.9502563  32.8683739  77.3959198  79.9888229  33.6537285  76.6241837
   8.3885374  52.1411781  56.8779411   8.0327864  51.5305099  56.2323761
   7.6171989  52.5271950  57.2929840  29.4080048  45.3168640  18.6240063
  28.6937218  44.6815681  18.5746822  29.5937862  45.5396767  17.7118263
  51.7398529  21.7167568   7.6412435  50.7897224  21.6292267   7.5649409
  51.8869400  22.6579666   7.7346401  45.9348831   4.4873242  19.0331955
  45.8159943   3.6326802  18.6188507  45.8109055   4.3198857  19.9674454
  56.6064186  30.9855366  13.1883965  56.4788322  31.8922100  12.9092979
  56.6952896  30.4938583  12.3719501  82.8947144  62.6208458  46.5268440
  83.0135803  61.6869354  46.6998177  83.4703674  62.8019829  45.7838440
  76.9668350  61.2295189  14.8728848  76.4944077  61.1759644  14.0421133
  76.5737076  61.9764862  15.3242474  80.0552750  19.1481915  28.1377468
  79.6519852  18.5292950  27.5290127  80.0832672  18.6797905  28.9720421
  14.9833889  20.4400043  33.7449417  15.3009596  20.7834339  32.9098167
  14.3291035  19.7851639  33.5013695  40.8581467  16.4296207  27.4162045
  40.4735985  15.9964619  26.6541500  41.4267769  15.7662621  27.8071651
  34.1518936  38.2448387  21.4723606  34.0858307  38.2484131  20.5174503
  35.0827637  38.3814583  21.6485596  63.8428612  31.2381516  46.2595291
  64.2531662  31.3184719  47.1205902  63.4030151  32.0775299  46.1245689
  23.9880791  29.5957146  87.7851028  24.4678135  30.0570278  87.0971527
  24.5777550  29.6097507  88.5389709  26.6765156  53.3271561  88.2355957
  26.4314098  53.1599274  87.3255463  25.8879490  53.1215096  88.7376938
  14.6624918  38.0254707  13.7496223  14.5200500  38.6661987  13.0529070
  13.7922859  37.8762474  14.1193600  18.0060463  68.6438751  11.4498034
  17.9295216  67.7497406  11.1167793  17.2481232  68.7510910  12.0245094
  53.6388283  16.8932209  28.6323528  52.7781448  17.2328587  28.3871956
  53.5114212  15.9472694  28.7042980  58.4701385   6.3816848   4.1686220
  58.3725510   7.3040652   4.4051023  58.0482101   5.9051919   4.8835797
  77.3104630  13.5207300  25.1702766  76.3748550  13.6808233  25.0468483
  77.4061813  13.3735237  26.1112347   5.5553498  59.7429428  58.9670830
   5.2802286  60.6558380  58.8824539   6.4954295  59.7584763  58.7875252
  85.4253998  62.3346024  75.1293945  84.6566696  62.8006210  74.8006058
  86.0984192  63.0103493  75.2108994  52.7972336  41.1994896  14.4866323
  52.4589081  40.9974022  15.3589458  52.1148148  40.8948059  13.8885527
  74.3301926  16.4146957   8.9884377  73.5234375  15.9293613   8.8157129
  74.1425018  16.9168472   9.7814360  77.7624207   6.9392734  31.5185986
  78.6390686   7.2865691  31.3539486  77.7351227   6.1165085  31.0301876
  23.3324604  65.7065048  16.2488918  23.8516178  66.4883041  16.4373093
  23.5981979  65.4495926  15.3659353  10.2109652  14.9973021  56.1070099
   9.4291258  14.7130136  55.6335754   9.9871759  14.8813896  57.0304337
   2.0898688  57.9739838  14.9446039   1.7378997  58.3744736  15.7395620
   2.8577302  58.5034447  14.7294483  59.9179802  71.4581909  73.2221603
  59.7577133  71.0433426  72.3745422  59.1892738  71.1696091  73.7716522
  10.7134867  52.6108475  80.5584488   9.9339800  52.6250420  81.1137848
  10.9747782  51.6902771  80.5359116  64.5607681  33.9377975  88.6450119
  63.9757309  34.1734543  87.9249878  64.1533508  34.3233337  89.4206390
  58.2076683  24.9902534  86.4207382  58.5910110  25.4352760  87.1765366
  58.8603745  25.0898514  85.7277069  15.9775534  69.7179184   9.1308193
  16.4609184  70.5021286   8.8708181  15.8032007  69.8423462  10.0637455
  35.6716309  69.5795822  11.9928713  34.9860840  70.2451859  12.0496950
  35.1970024  68.7557449  11.8822031  48.6609192  21.8410530  21.1601257
  49.0109978  22.7285347  21.0823174  49.3130341  21.2877960  20.7301464
  62.7012367  52.5115013  52.8119583  61.7549896  52.6445656  52.8679886
  62.9870758  53.1113358  52.1229553  36.4731102  65.8077011  14.8654242
  36.8181152  65.4187088  15.6690979  36.4519043  66.7478027  15.0442820
   6.7154026  65.9160233  26.9500217   5.8477888  65.5550232  27.1321087
   7.3239431  65.2524872  27.2750320  38.6019135  46.1475754   0.5967628
  39.2237701  46.0266571   1.3143288  38.8652534  45.5025787  -0.0596401
  26.1739120  29.7960758  75.4803543  25.8987026  29.7734680  74.5638504
  26.5303860  30.6760883  75.6017532  56.2766304  57.0977020  51.0360222
  55.5434608  56.4831543  51.0039635  56.9325790  56.7187157  50.4509354
  79.1729736  53.2345276  79.4792404  79.4179077  53.8983459  80.1239014
  79.4934540  52.4118423  79.8489838   0.7965534  28.2060051  81.4844437
   0.2666933  27.4187145  81.6095581   0.9319239  28.5466251  82.3686829
  33.4810829  49.9917259  21.0451393  32.8637466  50.2625999  21.7246647
  33.5498123  49.0426140  21.1485348  35.6700096  60.0677643  38.3732338
  36.5185776  60.4941330  38.2533455  35.5321808  59.5766220  37.5632896
  73.9623947  66.3261642  13.9962759  74.5731812  66.9599838  14.3723640
  73.1327286  66.7997284  13.9360170  38.8037987  57.1803703  25.6904449
  39.4575615  56.5045242  25.8694954  38.5207710  57.0079079  24.7924557
   3.9708970  51.9735947  69.2244568   4.8555312  51.6876602  69.4522629
   3.8547451  51.6928673  68.3167496  10.2433758  50.6605873   7.6903901
   9.9324961  51.0840073   8.4905777  10.1715918  51.3377380   7.0176768
  40.1003914  11.9123659  35.6352348  39.9037170  11.2530804  36.3007355
  39.7342377  12.7239847  35.9865685  29.1046810  67.0269699  33.1849747
  29.2347279  67.9277802  32.8885651  28.4863873  66.6548080  32.5561371
  14.1814251  39.8944511  16.3979053  14.6766367  39.7903481  15.5854034
  13.9827843  38.9996109  16.6736546  76.9491119  69.7750626  16.4607964
  77.1652832  70.6521530  16.1442146  76.4311295  69.9266815  17.2513237
  73.9877548  66.0587616   1.4248559  74.4616089  66.8488541   1.6845784
  74.6298828  65.5442429   0.9358041  80.0560532   3.3536897  62.4481049
  79.7741241   3.8291249  61.6666260  79.7761154   2.4514761  62.2935753
  54.7346535  48.0914268  42.2799568  54.5007668  47.2517624  41.8843651
  53.8970680  48.5355301  42.4120636  69.1859589  34.2637482   1.6516234
  68.3992920  34.1868057   2.1914940  68.9149704  33.9529343   0.7877989
   9.0271568  17.0901775  42.7044601   8.3669386  16.9247932  42.0314140
   8.7882290  16.5049725  43.4232635  75.2130280   3.1418371  56.5390320
  75.8158798   3.7717896  56.1441116  74.3778992   3.3014789  56.0993652
  18.2890739  48.9207344  13.8622723  18.4885311  48.1734123  14.4261532
  17.5700035  48.6174126  13.3080482   8.2998028   2.6292496  81.0997543
   8.1390533   2.6637368  80.1567764   8.3189278   3.5463727  81.3731613
  39.7455368  63.8348122  88.4265518  40.0727882  62.9489250  88.5825806
  38.8020554  63.7712173  88.5749817  19.4132996  44.1745605   5.6699734
  19.3177643  43.4096184   5.1025472  19.9478111  43.8650665   6.4012356
  34.3600655   4.7294021  57.9770393  34.4125595   3.8521750  58.3564453
  33.4357758   4.8387613  57.7535133   6.5541086  63.7885513   7.5571799
   7.3139644  64.2572174   7.9024329   6.6906338  63.7758942   6.6098509
  62.1271362  42.0053368  30.6952209  62.5882683  42.1473846  31.5219078
  62.4237709  42.7185249  30.1298866  50.9335861  49.2634010  24.9058380
  50.8917809  48.9604073  25.8128548  51.8689613  49.2866096  24.7039375
  78.7136002  11.6253061   9.1772842  79.2173309  11.1265106   9.8204718
  79.3607025  12.1850700   8.7481470  58.3057060  25.7821789  62.4796753
  58.8577538  25.4537601  63.1893387  57.5005226  26.0643845  62.9135742
  55.7495537  69.4598236   1.0992165  55.7421417  69.9399567   0.2711754
  54.8810730  69.0609207   1.1525623  54.4226646  35.9061661  82.0780640
  53.9907455  36.2794724  82.8463898  54.8249588  36.6568031  81.6411057
  69.8904648  51.2887421  74.5559464  69.8327103  50.4481316  75.0101166
  69.0115891  51.4322090  74.2049179  14.3856277  53.4673729  88.5168839
  15.0270309  53.0898666  87.9149551  14.5595627  53.0361328  89.3535538
  15.6860094  55.5548248  50.6560249  16.0710144  56.3107567  50.2126656
  16.3412189  55.2984886  51.3050423  76.8069687  37.8298531   2.7489624
  76.4374237  37.3877563   1.9846165  77.2266617  38.6130371   2.3930027
  57.7039299   2.0922205  80.1211090  57.5521584   2.9040825  80.6049271
  57.0587082   2.1104293  79.4142914  51.0737495   6.6350484  63.7669106
  51.8701172   6.4651170  64.2700577  51.0765915   7.5818973  63.6265488
  18.0566177   2.2055190  24.0311985  17.3078823   1.7472677  23.6495819
  18.5822449   1.5132070  24.4320126  34.3116837   2.0820906  14.2781591
  33.8781967   1.3510022  13.8378963  35.1916924   1.7581979  14.4702806
  50.6168823  38.0492706  84.8671494  50.4467545  37.1225929  85.0361404
  50.8550835  38.0839958  83.9407120  15.4311771  28.1966972  14.4440536
  14.5316687  28.2782383  14.7610178  15.9573441  28.1027336  15.2381258
  85.3936996   9.8740587  63.8342247  84.7697372  10.2948208  63.2427330
  86.1567764   9.6904936  63.2862701   5.3657231  30.5364742  55.6368370
   4.9273515  31.2218075  56.1411972   6.2855692  30.6014061  55.8935432
  19.8114204  24.9538536  83.3371811  19.4086533  24.8632717  84.2007828
  20.0704575  24.0636444  83.0991440  58.2438393  70.4016266   5.0841460
  58.5453300  70.2338867   4.1912866  58.5587158  69.6512909   5.5882063
  43.8776512  59.3465385  73.2420273  44.0733261  59.3590355  72.3051224
  43.1135254  59.9155312  73.3347244  47.0755272   3.5678005  82.2643509
  47.0368690   4.4787569  81.9729843  47.9429703   3.4792402  82.6592255
  61.5858498   9.3285704   6.1999440  61.6082344   9.1791553   7.1451459
  62.0205421  10.1729794   6.0805802  29.1961765  51.3791847  23.8586941
  28.3795872  50.8907585  23.7545261  28.9199600  52.2484207  24.1491566
   7.2479272  56.0188408  57.4904785   7.2260928  56.2280807  58.4242744
   7.8246965  56.6812744  57.1100159  17.2314301   8.1041183   8.1143618
  17.9552536   8.4080067   8.6620512  17.5400295   7.2755470   7.7476611
  19.6500969  56.6896667  52.9224091  20.0472469  56.7770729  52.0558853
  19.7867012  55.7717705  53.1570053  70.6087341  28.3898544  62.5789108
  70.1572189  27.5843239  62.3269463  71.3680801  28.4306755  61.9975739
  68.1860962  23.2610931  74.1769638  68.4240646  24.1778412  74.3154449
  68.6822510  22.7819653  74.8406677  58.0367622  60.8559532  26.7010975
  58.4113693  60.2774696  27.3653698  58.4671936  61.6983948  26.8468723
  86.6304245  62.3674736  18.5446472  86.6827469  62.8743286  19.3549500
  85.8810272  62.7379189  18.0783825   8.0791159  11.8459644   5.7535615
   8.9831829  11.5929031   5.5668693   7.7184596  11.1046276   6.2399559
  31.5213318  56.8630714   3.7326529  32.3404922  57.3578072   3.7117198
  31.2650356  56.7851486   2.8137004  78.3733826  18.5718708  10.1815968
  77.9465942  18.7580090   9.3452711  78.4334335  19.4234142  10.6146069
  74.6011810  20.1189365  60.0888443  75.3909378  20.3074112  59.5818977
  74.5819321  19.1643028  60.1561775  69.6371384  38.5846481   9.3525782
  70.5187988  38.4422646   9.0081396  69.7200317  38.4312859  10.2937689
  42.5652847   8.0877943  67.7314682  41.6701775   8.1303082  67.3950043
  42.6362228   8.8399944  68.3191681  62.2482414  54.5300255   0.6367527
  61.6758232  53.7983742   0.4059744  62.6539001  54.2655640   1.4624237
  68.6587753  67.5153275  13.9429541  68.3344955  68.3731842  14.2171164
  69.6107407  67.6136856  13.9249601  38.3209648   5.8274360  62.3947983
  38.5667419   4.9797158  62.7651978  37.3991737   5.7268434  62.1572723
  23.7277946  65.5375443   7.3448853  23.0545254  66.2117004   7.4368677
  23.6863060  65.0442581   8.1641397  46.2056198  45.8599663  27.4453659
  46.7486877  45.3970718  26.8073711  45.3818550  45.3726196  27.4571037
  63.0864258  61.2784195  40.3516884  63.1806641  60.5374680  40.9503059
  63.8903275  61.2703438  39.8321571  70.0732193  31.8967705   3.2558324
  70.6952286  31.9346199   3.9824038  70.0248642  32.7972260   2.9347866
  43.4306602  16.9490128  82.1825333  43.1166763  16.0448627  82.1951523
  43.5640259  17.1433125  81.2547989  71.2810135  24.6416092  55.0946198
  71.3104935  23.7509270  54.7452698  70.3751526  24.9210224  54.9620628
  60.0722923  37.9836235  12.1832047  60.6625824  37.8860435  11.4360313
  59.3568077  37.3734016  12.0044813  16.4463654  11.4333553  88.2122345
  17.3601913  11.6899633  88.3359451  16.1118469  11.3034105  89.0996170
   4.1942811   3.8883519  48.9202995   4.9485135   3.5795543  48.4182930
   4.4520869   4.7564888  49.2303123  11.4747438  56.4948807  58.4612617
  12.2595358  56.1200943  58.0614243  11.7404242  57.3735657  58.7324829
  52.7105637  12.0620537  40.9560089  52.3616638  11.5547476  40.2231102
  52.3111916  12.9266949  40.8604469  80.0462265   6.7368917  36.3424149
  80.8821106   6.2965961  36.1885643  80.1023941   7.5433283  35.8298340
   9.5241470  18.3932209  57.4550896  10.1474771  17.6668091  57.4509087
   8.6991253  18.0025387  57.1670990  10.6396418  31.8443050  48.2989159
   9.9017982  32.0552063  48.8710518  10.3566885  31.0649700  47.8205795
   8.5704975   7.8611822  72.3114319   8.6094723   6.9141722  72.4451675
   9.2958546   8.2066069  72.8317871  70.0428848  38.1333961  22.5844631
  70.2793121  37.2148018  22.4559479  70.7573318  38.6237488  22.1778297
  63.5520973  30.8427639  16.4440594  64.3672028  30.5566082  16.8563042
  63.8178291  31.5441990  15.8494101  51.2118111   9.0709333  69.0680771
  51.1351357   8.9494028  70.0144272  50.3186188   8.9667778  68.7400742
   7.0360279  16.6702271  72.8797302   7.8924861  16.7268448  72.4560547
   6.7323771  15.7828512  72.6884460  67.0463486  28.8459396  30.8347664
  67.0123825  29.3734379  30.0367527  67.9531860  28.9196129  31.1321602
  61.7754593   7.5085359  56.7553329  61.1855545   6.8023429  57.0190277
  62.6231995   7.0804138  56.6358376   8.2291775  26.1402054  21.2482185
   8.5011454  26.3056622  20.3455067   9.0277090  26.2539673  21.7636204
  48.8723373  69.3628845  58.6665154  48.4838448  68.8282471  57.9740791
  49.7987595  69.1221237  58.6637306  51.0647507  40.3275452  86.4461136
  50.5468559  39.5813866  86.1440201  51.2089272  40.1578255  87.3770523
  47.1093140  41.5229988  84.3420639  47.5836182  40.8286514  83.8847351
  46.6033974  41.9591560  83.6564636  74.9773254  28.6674938  25.7512875
  74.2797241  29.3210678  25.8006058  75.7247620  29.1419601  25.3873577
  80.3645782   9.2316484  51.5255203  80.9068985   9.7893677  50.9677811
  80.0465546   8.5443668  50.9400826  69.2844925  64.9285049  56.8849258
  69.4522858  65.7890091  57.2691116  69.2194901  64.3392334  57.6364365
  52.3347664  34.5805550  58.8713417  52.1515312  35.3838921  59.3584862
  51.7260475  34.6040573  58.1330032  18.4165630  47.1034203  16.1323643
  17.8878460  46.3273621  16.3178959  18.0664444  47.7768097  16.7156296
  77.0418320  64.1979828  16.8837776  77.4981995  63.7444687  17.5925007
  77.5510330  64.9962311  16.7432098  32.1499367  33.5745544  72.3271027
  31.7968826  34.2091560  72.9506989  33.0332565  33.8909035  72.1376343
  71.7734222  53.7837791  63.6999550  72.1563263  54.5655594  64.0979996
  70.8342896  53.9662552  63.6690102  36.8864021   8.0031538  55.7116394
  37.6484985   8.2606983  55.1928787  36.3314133   8.7829142  55.7253799
  12.7928247  64.9738083  28.2887497  11.8552055  64.7908478  28.3489990
  12.8616142  65.9189072  28.4239807   4.9172845  23.9022617  28.7716427
   5.6610055  24.1046391  29.3392296   5.1575360  23.0790272  28.3464432
  62.7048798  42.9207420  15.7563496  61.8222160  42.5504532  15.7518473
  62.9758759  42.8827515  16.6735992  22.1581001   9.3518562  16.1053143
  21.4489079   9.9366007  16.3724308  21.8540154   8.9663277  15.2836504
  21.5901451   2.5720043  24.4251671  21.8824749   2.7654808  25.3158646
  21.0691185   1.7737608  24.5121689  72.7999802  68.1089401  26.9938374
  72.9238510  68.5831680  26.1716499  72.7054062  67.1935577  26.7304497
  51.7776985  65.5590363  63.3924561  50.9176025  65.6577072  62.9841270
  51.8436813  64.6245880  63.5891228  21.4560356  19.7715816  11.7598267
  21.4147091  20.6416340  12.1567307  21.7773190  19.9284000  10.8718977
  58.5380592   2.2050693  30.2653828  58.7534485   3.1265657  30.1215649
  59.3817596   1.7540895  30.2334557  23.9198055  42.3063469  18.1684475
  23.0948200  42.2182617  17.6910896  24.5834579  42.3982315  17.4848137
  13.7120609  41.1691322   1.7918720  14.0357771  41.5565948   2.6050835
  14.4793129  41.1355476   1.2205328  77.0098343  19.9456043  20.3832455
  77.3267822  19.2693634  19.7845192  76.7096786  20.6512089  19.8103046
  18.3841324  67.9836121   4.8655720  18.3074055  68.8136520   4.3950648
  17.6552715  67.4554443   4.5399404   7.4845939  56.0426445  28.3028927
   6.6826987  55.5649185  28.5149612   7.1829543  56.8207359  27.8340454
  30.8140011  12.8719721  74.0896835  31.1694221  13.6119776  74.5819244
  29.9588985  13.1755667  73.7849503  21.0139866  56.0311127   7.6104064
  21.8163433  55.8684540   7.1144266  21.0783272  55.4491005   8.3676062
  44.0266380  67.3353424  40.5982590  43.2316132  67.2471161  40.0725403
  44.5341377  68.0138855  40.1530037  77.5583344  34.2172508  87.9198303
  78.1772461  34.1811218  87.1905289  77.7754364  33.4547501  88.4561996
  16.5341377  31.4875278   8.1529274  15.7468472  32.0319405   8.1573687
  16.6138363  31.1890583   7.2469497  55.7022171  71.2123871  24.6938152
  55.6021996  71.8862152  24.0213623  55.1989822  71.5409470  25.4388237
  49.5786629  23.2361755   9.7442417  48.7427063  22.8411465   9.9919567
  49.3381691  23.9744778   9.1845074  47.5655022  63.8223038  49.2702408
  48.0037651  63.6155777  48.4447594  46.7014618  64.1410980  49.0093994
  40.4974823  65.8819351  29.1777458  41.3582458  66.2199097  29.4249229
  40.6869316  65.0968094  28.6640186  40.0713730  49.0808487   4.9052367
  39.8802605  49.5831337   4.1131411  39.6047478  48.2540779   4.7829843
  32.3529587  59.6245232  20.9752026  31.9879303  59.1130600  21.6972771
  32.0718536  60.5223618  21.1515541  84.8559189  11.6473598  44.8611870
  84.7532272  10.6989851  44.9403725  83.9701233  11.9714050  44.6981354
  47.9377670  69.8983688  79.0033035  47.1274719  69.9161148  79.5125580
  47.6585350  69.6695862  78.1167831  81.0080795  57.1713028  10.4096508
  81.8257828  57.6509171  10.5421839  80.9368439  57.0772247   9.4597530
  49.6867294  55.2800636  76.5370712  50.6124878  55.4358788  76.3501968
  49.6781693  54.4688454  77.0450974  32.3731041  54.1505928   3.5560977
  32.9676895  54.0678482   4.3016539  31.7507572  54.8282394   3.8201261
  48.6626892  52.9727135  31.9314709  49.3360023  52.5394249  31.4069309
  48.3839455  52.3072090  32.5604630  85.6157379  12.8509350  42.5448761
  85.3371048  12.4976044  43.3897133  85.8447495  12.0795679  42.0264397
  56.0180740   4.3073015  40.4807014  55.0675201   4.2464771  40.3859482
  56.2884445   3.4298215  40.7511826  31.4304962  56.6576080  29.2187748
  31.9321003  56.5898247  28.4063530  31.5062599  55.7918587  29.6199818
  69.5235672  26.1828022  34.2754898  70.1894073  26.6907368  33.8119278
  69.7661514  26.2558613  35.1985512  29.7082119  55.8795929  86.0718994
  29.1091328  56.4898109  85.6418152  29.6498814  55.0790596  85.5503922
  37.8677711  57.6756897  34.2372818  37.2065086  57.0388718  33.9663124
  38.2762604  57.2832146  35.0088615  68.2446442  47.6574364  71.1693192
  67.6787415  46.9693527  70.8192825  67.7807922  47.9787788  71.9425049
   2.4057131  12.1375103   6.2011847   2.9528754  12.1567307   6.9863443
   2.5214176  13.0022478   5.8073912   1.6442811  13.4811954  64.6628723
   1.2340046  13.2291431  65.4901352   0.9096936  13.6497049  64.0727692
  14.4091883  12.6638575  19.8034515  14.5485668  11.8043213  19.4059544
  13.7236948  12.5179300  20.4553986  81.7458649  12.5769386  68.6276016
  81.4978714  13.5003586  68.6726532  82.7024841  12.5839815  68.6601410
  85.7099457  58.9442406  20.9838524  86.3047638  59.3359299  21.6233845
  85.1481018  58.3673134  21.5012741  80.1664734   1.1508369  84.7272873
  79.3336411   1.4557745  84.3672409  80.5357285   0.5961404  84.0401230
  59.4386597   0.4306997  23.0187969  59.4589844  -0.5002111  23.2406616
  60.2150574   0.5643526  22.4751282  58.1577301  17.3506107  14.9410114
  58.8505745  17.2402534  15.5921803  57.7577591  18.1929245  15.1572571
  54.7137566   6.5255446  80.6873169  53.8605957   6.2097979  80.3895721
  54.5761642   7.4560223  80.8648300  76.9939194  68.6748047  56.5768929
  77.9079361  68.9083328  56.7390060  76.9356689  67.7512436  56.8215790
  27.6143417  20.3727226  73.4361954  27.1724663  20.3044357  74.2825546
  27.2122765  21.1334229  73.0167770  82.6877670  57.1236267  50.2526436
  83.0171204  56.3676910  50.7387657  81.7565918  56.9406738  50.1274185
  60.7182617  65.4217834  35.4982834  61.0407143  64.8597946  34.7937012
  60.2490616  66.1244583  35.0484734  19.5173092  57.5435066  87.4974747
  18.9211559  57.5318108  88.2462769  20.0096626  58.3584328  87.5960159
   8.7570782  33.0577965  73.0991821   8.6146574  32.4397125  73.8160629
   8.9833689  32.5071907  72.3496170  15.9036407  29.2924824  27.8398018
  16.2306824  29.2097702  26.9440155  14.9707546  29.0884628  27.7739868
  28.1254730  27.9535770  75.1705170  28.7571430  28.3334007  74.5598145
  27.5150185  28.6666222  75.3579865  59.7020836  58.3853722  86.1833954
  59.1026306  58.9902000  86.6205139  60.1271172  58.9150696  85.5088577
   2.4214296  40.7798653   8.8146791   2.5109875  41.5161743   9.4197083
   1.5874474  40.3746338   9.0523615  83.9688187  34.9220047  87.8905487
  84.3958588  35.7782211  87.8629837  83.0349503  35.1220779  87.9545975
  21.8283939  50.9495697   2.3114567  21.8162327  51.4818420   3.1069260
  22.7197437  51.0419998   1.9750295  22.0965500   6.6336513  86.4064331
  21.8526211   7.5438466  86.2382812  22.9082451   6.6923962  86.9103546
  72.9163589   3.9019330  55.2544403  71.9755554   3.8402185  55.4197121
  72.9855576   4.4274583  54.4574051  82.4019241  38.6768646  57.5998955
  82.7467117  37.8483925  57.2667465  82.6487579  38.6844330  58.5246925
  28.0052814  51.1621094  77.2163544  28.3979568  52.0336876  77.2651825
  27.0814648  51.3036919  77.4231033  56.6415710   7.1182323  51.1580200
  56.7828369   7.6767840  50.3936272  55.7023239   7.1821809  51.3310966
  74.0014801  55.3776550  85.9161072  74.6710510  54.6965256  85.9790955
  73.3232574  55.1046562  86.5339432   2.7072086  53.0291443  78.8530426
   3.5871377  52.6658249  78.9528198   2.8435249  53.9749336  78.7970505
  57.5194550  26.5922279  25.8973217  57.1613693  27.4148102  25.5636063
  56.7914886  25.9733505  25.8399544  62.7536774  70.2055588  36.8464775
  62.9070892  70.6172256  35.9960480  63.6036530  70.2386932  37.2854271
   5.6807284  42.2526627  14.6110907   5.0641222  41.8680191  15.2340498
   5.8302832  41.5624733  13.9649458   3.8531814   2.7200773  12.2089539
   3.4941759   1.8707095  12.4657049   4.7701654   2.5398169  12.0018826
  51.8087349  61.5326462  67.9662933  52.1016998  62.4050064  67.7028732
  51.6152458  61.6167526  68.8999557  52.0578079  61.9153938  54.2994995
  52.1441994  62.6172333  54.9446297  51.1137390  61.8222771  54.1718521
  21.4699707   3.5685658  33.4313583  21.0007725   3.7747798  34.2397881
  20.7805882   3.3603508  32.8007774  77.3833389  19.7080250  30.4203148
  77.9231110  19.6098003  29.6359463  76.8324738  18.9253044  30.4315395
  47.6613503  20.7523975   8.9541988  47.3109436  21.4870739   9.4578838
  48.5438957  20.6231441   9.3015356  47.4291306  13.8089342  51.3736038
  47.3815079  12.9691544  50.9167290  46.7852821  13.7351942  52.0780563
  28.9875870  25.9370422  81.1023788  28.5667515  26.7428761  81.4019852
  28.2783241  25.4281235  80.7097244  71.1107025  25.6073055  39.4347191
  71.9407578  25.1836834  39.6533127  71.2135696  26.5082397  39.7412605
  74.0573807  13.4108200  11.1426620  73.6886444  12.6218748  10.7453823
  73.7426834  14.1265554  10.5904627  51.9112968  28.1690426  58.0632477
  51.5581818  28.5456867  58.8692780  52.7936172  28.5338287  57.9948959
  65.4255600  21.4024830  76.5580597  66.1152878  20.8053284  76.2683945
  65.6403580  22.2368259  76.1409683   2.8557463   7.5815687  85.1654510
   3.7581701   7.2646375  85.1278000   2.4390967   7.2109995  84.3874283
  75.3507156  53.0938110  22.4153500  76.1838837  52.9440804  22.8621578
  74.8939514  52.2545853  22.4727459  51.4939079  69.8836670  55.5470352
  52.2360077  69.5258179  56.0343399  50.9914207  69.1149292  55.2772675
  29.6109867  58.5888443  51.7438278  30.3926258  58.0759087  51.9491730
  29.0960960  58.0214806  51.1700516  42.5481186   3.3099277  85.5513763
  42.4169922   4.0139351  84.9162292  42.4181862   2.5060978  85.0481796
  73.0097809  38.6746635  61.1293640  73.9063644  38.8886070  60.8713074
  73.1025696  38.2313156  61.9726105  41.4705582   9.4928474   4.1464744
  41.8729401   8.6257658   4.0965614  40.6847878   9.3620520   4.6772151
  74.4896774  51.2716904  54.1109314  74.4846420  52.2049294  53.8981590
  73.6992416  51.1412048  54.6347885  49.8317909  15.8807230  89.1733322
  49.1568985  16.5572224  89.1176300  50.0288200  15.6633778  88.2621918
  22.0207691  47.7563896  44.6634674  21.9964447  47.3228722  45.5165253
  22.6791935  48.4440041  44.7629318  60.3212738  60.5766525  40.2717247
  61.1996689  60.9478836  40.3544540  59.9218521  61.0646591  39.5516243
  10.0729446   2.9601657  67.8533554  10.6170883   2.5913882  68.5491638
   9.3303108   3.3524394  68.3125381  59.9799347  54.0718765  56.5986252
  60.4659157  53.2585716  56.7349663  59.1461449  53.7921944  56.2207336
  15.8581161  59.8870316  24.5135632  15.0478373  60.2558174  24.8652439
  15.7270851  58.9396744  24.5532055   6.2045746  21.0300865  75.4152908
   5.6534238  20.5039883  75.9946747   5.5869937  21.4669743  74.8288116
  14.7461863  64.9898758  88.0390472  14.2770596  64.9709625  87.2049026
  14.0817356  65.2376480  88.6819611  57.7645912  19.1246700  72.4864960
  57.4197121  18.6451702  71.7332611  56.9878769  19.3777390  72.9853973
  62.2698898  37.4734344  64.4247055  61.8243904  37.4583702  63.5776329
  62.1146698  36.6034393  64.7924652  32.9576950  69.4161911  32.0399742
  32.5006676  70.0591660  32.5821342  32.7345581  68.5714188  32.4308739
  52.4168816  62.9480743  17.9509563  53.2762108  63.2026367  17.6148262
  52.6098289  62.3558044  18.6777439  85.1831970  57.5681572  62.3707428
  86.0247574  57.4611855  62.8140945  85.3059845  57.1484222  61.5192871
  15.7851419  16.7048206  50.7226562  15.8682632  17.6017399  50.3988380
  16.6777534  16.4513283  50.9576454  42.6856575  50.5826950  35.2624817
  43.0994949  50.0534477  35.9442902  41.8218880  50.1876488  35.1438599
  44.5325203  57.2337265  74.8893814  44.5174866  57.9625397  74.2690277
  45.4625320  57.0798225  75.0555954  72.2159195   1.2364467   9.8602352
  72.5351334   1.9206899   9.2718925  72.1267319   0.4635535   9.3026400
  63.3265915   9.5647316  55.5845985  63.4178123  10.1493549  56.3370132
  62.6890259   8.9088993  55.8667755   7.4980569  31.0168400  74.2891464
   6.8917751  31.5742359  73.8013306   7.0501652  30.8428841  75.1170120
  52.4752083  70.2240143  17.7775612  52.8901253  69.5272293  18.2860546
  52.0036964  70.7460175  18.4267330  72.5582428  66.7646179  54.4477882
  71.7130280  67.1363754  54.7000771  72.5485840  66.7754974  53.4906960
  27.2322674  58.7192993  45.3414841  27.4852848  58.2237282  44.5626221
  26.3872833  58.3491402  45.5968590  67.2865829  36.7196884  34.1689835
  67.1117630  37.5405960  33.7087860  67.3284302  36.0607948  33.4759178
  55.2487183  55.9029274  34.1556168  55.3394737  54.9726486  34.3619614
  54.3908577  56.1433182  34.5056419  57.8096161  60.9789200  46.3462715
  57.1569481  60.3939629  46.7310867  58.6343079  60.4984665  46.4188919
  69.1205063  20.9814777  23.7045345  69.9106216  20.4428654  23.7475491
  68.7504425  20.9346638  24.5860634  77.7846451  29.5484524   8.9125891
  78.2503815  28.9760799   8.3029089  76.8972778  29.6045609   8.5580883
   6.5365615   4.7369370  72.2832184   6.2872515   4.2037082  73.0380325
   5.7132382   5.1156545  71.9750900  15.0453539  19.6218033  54.1091995
  14.8194408  20.2276325  54.8150101  14.4781227  18.8643093  54.2530136
  45.0902100   1.5941166  45.1625023  45.3204155   2.3994143  44.6991081
  44.3017006   1.8190176  45.6563683  45.3233452   7.0071268  54.8413582
  46.2520332   6.8177180  54.7075844  44.8679886   6.3873968  54.2714310
  81.1608658  48.2236824  84.6033401  81.4251480  48.5098114  85.4776993
  80.2686996  47.8963432  84.7179184  48.6294746   0.6894960  41.6923828
  48.0449982   0.5158963  42.4302711  48.0455780   0.7704317  40.9382286
  52.1115227  19.5002117  78.9741364  52.4489212  18.6044846  78.9822388
  51.3442993  19.4723377  79.5458221   5.2199297  36.8203850  17.8038292
   4.9370494  37.2031136  18.6343288   6.0471492  36.3851929  18.0100937
  32.5220680  64.7181778  67.1039886  33.0091896  64.0265274  66.6561432
  31.7015705  64.3013535  67.3671875   2.9343402  22.4733906  38.4106064
   2.0879917  22.0263271  38.4183311   2.9127278  23.0404377  39.1814613
   8.4313469  60.7916222  24.0029030   7.6289711  60.2701607  23.9804573
   8.7914228  60.7152557  23.1193047  86.3593979  37.8552666  63.2234955
  86.1690292  38.3055992  64.0464096  85.5506516  37.3883896  63.0132980
  69.4309540  56.4277420  40.8155212  70.2193909  55.9348526  40.5882263
  68.7083054  55.8669662  40.5334969   7.1424489   5.3633842  46.1695595
   6.1975737   5.2581110  46.0583839   7.2486229   6.2636867  46.4768295
  54.7187424  13.2793436  83.9090118  55.5583153  13.2983189  84.3683472
  54.0869560  13.0101280  84.5757980  60.1770096  40.6530876   6.7906475
  60.0944366  41.2946777   7.4961786  61.0342293  40.2511482   6.9315376
  83.6172714  16.1991043  77.2630234  83.5484238  16.9713135  77.8244400
  83.5718689  15.4585152  77.8677521  40.9355278  51.4728889  57.6520233
  41.3247528  51.9636040  56.9281960  41.2552643  51.9134521  58.4393654
   1.6667640  16.7185173  86.2069702   2.2634532  16.8329163  85.4673080
   1.2364634  17.5683346  86.3012314  63.4294243  52.2561646  29.1523304
  64.0144806  52.2696724  28.3948631  63.9172974  52.7094231  29.8399105
  60.4436684  37.2917137  67.3826065  59.7318497  37.7746010  66.9626465
  60.2045822  37.2703667  68.3092194  15.8304424  37.6104431  22.4168377
  16.2244015  36.7949867  22.7267704  14.8888569  37.4789429  22.5279961
  25.5946198   2.9296849  50.0752068  25.1346397   3.3910944  50.7764587
  26.0466709   3.6202400  49.5904236  20.4419308   3.4901905  38.6776810
  20.2008533   3.2165165  37.7926865  20.4048653   2.6860096  39.1955147
  62.6466751  39.0387115  19.5879726  62.0497360  39.6039162  20.0783176
  62.3712807  39.1332970  18.6761379  71.8209839  12.7580366  35.6939163
  71.7128372  13.3454256  34.9459114  71.0425949  12.9077368  36.2305107
  64.1421661  46.9491005  19.9227142  63.8904915  47.1019783  20.8334942
  64.8601074  46.3181992  19.9752808  78.2178802   1.9978909  27.0942554
  77.7673950   1.6553819  27.8662548  78.4729538   2.8869846  27.3405895
  74.1964645  30.4686642  57.5792274  74.0120697  30.6916504  56.6668091
  73.9535294  31.2529564  58.0712624  54.9686890  39.0922012  54.2156143
  54.9722824  39.8953590  54.7363396  55.0260811  39.3942184  53.3091240
  85.4553070  28.9013119  15.3050985  85.0202408  29.5784912  15.8231449
  84.8323212  28.6957340  14.6080685  25.0423088   6.0194721  64.1363068
  25.1213741   6.8468800  64.6110458  25.6607323   6.0999389  63.4101486
  20.0048561   8.4162321  70.7714386  20.5928898   8.8657122  71.3784103
  19.1266098   8.6275787  71.0880585  65.0136414  37.9105453   2.8808179
  65.4619598  38.7453537   3.0162277  65.6348419  37.3839035   2.3778298
  24.0809307  36.3198776   7.1008806  23.7244320  37.0736885   7.5708914
  23.7277622  35.5601082   7.5637579  26.9608002  59.9037552  13.3105078
  26.6308384  59.1384201  13.7812710  27.8957481  59.9257126  13.5145159
  53.6779366  55.1897774  83.4713287  53.9786758  55.1833992  82.5626221
  52.8210640  54.7641029  83.4430237  20.1962585  67.2121048  77.3676300
  20.8593540  66.5580139  77.1469345  20.2698631  67.3171768  78.3161926
  14.4865761  54.7380295  82.2905426  13.8835230  54.7697067  81.5478821
  13.9458408  54.4501534  83.0260468   7.0476208  26.1903515  75.5856857
   6.3284569  25.6457653  75.9057846   7.3532391  26.6628685  76.3600006
   1.7284477   0.4949490  66.7457581   2.4789133   0.5725507  66.1566772
   1.2601141   1.3239501  66.6475067  70.2124786  41.0600014  12.2869310
  70.7302704  41.8581200  12.1814089  69.3062897  41.3451462  12.1696873
  63.5303879  39.2180061  36.1574745  63.2608070  39.6395531  36.9734764
  64.4073563  38.8808365  36.3404236  64.4092560  35.5270424  23.7830315
  64.2485123  34.6118851  23.5530739  65.3319550  35.6686707  23.5713654
  80.2278290  15.8447475  78.8921204  80.7660904  15.4303303  78.2177505
  79.8233566  16.5914173  78.4503937  24.0894356  50.0680771   1.2366610
  24.9497356  49.7597160   0.9520032  23.8342381  49.4595146   1.9300265
   5.4555898  25.2314720   6.4091606   4.7792387  24.5690842   6.2676578
   6.2451968  24.8541813   6.0213423  47.3755417  17.1666660   0.3940124
  47.0616684  17.5337811   1.2204144  46.6557350  17.3099709  -0.2204583
  81.6939545   4.5184999  36.0356369  81.8838196   3.6121109  35.7934761
  81.9045715   4.5664167  36.9681473  66.4365616   1.7520843   2.2744584
  66.9774246   2.1613305   2.9498971  66.1394424   0.9324334   2.6695812
  28.0789165  49.3063660  82.9090652  27.3900681  49.6417694  83.4828415
  28.8597832  49.8009071  83.1578827  65.5494232  41.7384529  31.8865757
  65.3979416  42.1356621  31.0289574  65.3630142  40.8086777  31.7561913
  48.9467773  27.7272739   0.1199406  49.5517960  27.2133312  -0.4148932
  48.7708817  27.1741810   0.8811120   3.7576010  11.0067549  70.5168839
   4.1195292  11.0627546  71.4012527   3.8198864  11.8988991  70.1756668
  12.9238119  47.9265213  76.8376007  13.3362646  47.4515190  77.5590515
  12.4307728  47.2582054  76.3616791  37.3172226  64.1749725  85.6662292
  38.0803146  64.1635818  85.0884857  36.5868225  63.9181519  85.1033936
  57.2393532  40.1533432  67.7478943  56.5067062  40.7336998  67.5413742
  57.9746704  40.7443008  67.9101028   7.0405588  54.6362228   6.1757417
   6.5535264  54.5186577   5.3601379   7.2177844  55.5760307   6.2155356
  59.1226501  62.7150612  84.1167145  58.7795906  62.8638573  84.9978485
  58.3781509  62.8814774  83.5385666  11.9443607  10.0359821  41.9933929
  12.1659260   9.5692739  42.7991982  11.0088739  10.2220469  42.0738678
  51.6425400   2.8894436  45.6820068  51.1880264   3.2601209  46.4384804
  52.0602074   2.0965848  46.0183983  26.3199615  54.8385735  15.7033110
  26.9920349  55.0476074  16.3520432  25.9034367  54.0441437  16.0374050
  40.8866920  60.4904900  79.2549667  40.7798157  60.7183495  78.3314438
  40.4024811  59.6711311  79.3570862  84.0584946  22.7902317  72.3307343
  84.2769547  23.2192631  71.5034256  84.4328003  21.9128075  72.2516708
  55.8469810  38.2796974  14.1758595  55.3603096  38.8444214  13.5754652
  55.2166939  38.0599518  14.8619213  68.5007324  29.9725475  71.3892059
  67.7725983  30.4449406  70.9856110  68.5279694  29.1345959  70.9273376
  44.6693115  39.6354027  29.4705276  44.8916321  39.6838036  30.4002914
  44.1252327  40.4071999  29.3138676   7.5123277  61.5155182  30.1878872
   6.9185157  61.9440918  30.8042850   7.5158014  60.5971718  30.4578133
  69.7739410  41.6666718  73.7064896  69.9507828  41.3648758  74.5974808
  69.3633652  40.9164619  73.2765579  15.8079500   9.8296404  10.6567974
  15.6780958   8.9849958  10.2255840  16.4185486  10.2978668  10.0874434
  45.7705650  18.8971443   2.0104783  45.1796989  19.6456795   2.0929825
  46.5525513  19.1542931   2.4989502   1.2652142  49.2369308  56.6416397
   1.2831594  48.9468803  57.5536613   1.6797113  48.5241737  56.1554298
  47.9666176  31.8664322  83.1317368  47.9034653  32.3153229  83.9747849
  48.8595657  31.5223408  83.1098938  35.6415176  52.3448219  11.5894241
  35.5690117  51.6949272  10.8904161  36.2689629  52.9862061  11.2560005
  67.1121902  22.8484402  31.4021835  67.3745575  22.6604290  30.5010452
  67.7938995  23.4332733  31.7330532  60.4359779  10.3794918  26.7160015
  60.6413460   9.5415306  27.1305828  59.5879555  10.2371988  26.2954769
  44.7309303  13.6650925  43.2263336  45.3681412  13.5081739  43.9231644
  45.1192360  13.2597857  42.4509773  28.4086475  28.0287418  15.8570452
  28.4587822  27.4639740  15.0858402  29.2346134  27.8796062  16.3172302
  30.6650372  23.1710434  27.2022285  31.3495312  22.8155327  27.7690735
  29.8619976  22.7429085  27.4989758  59.3906555  23.1884727  60.2248421
  58.5899124  23.3455162  60.7252235  59.8505745  24.0278187  60.2392349
  17.6221523  37.5741081  70.8224487  16.8749466  38.0391655  70.4461060
  17.2969818  37.2328644  71.6555481   7.0662379  58.7335091  22.9108162
   7.0030088  58.6958084  21.9564514   7.2066846  57.8250389  23.1776237
  52.3220062  19.7727509  66.3007202  51.8175163  19.8240871  65.4888840
  52.3198242  18.8423538  66.5256424  10.6535349   6.6369214  52.9962654
   9.8818560   6.0793271  53.0954208  11.2168941   6.1600432  52.3868027
  65.4496841  61.6028557  48.3065414  64.9528351  61.0014534  48.8612366
  65.9748306  62.1163521  48.9203529  23.5186939  51.1978264  57.7582970
  23.9532032  50.3966064  58.0506668  22.5903187  50.9674530  57.7225494
  27.3836727  69.5481796  85.2028046  27.8969536  69.5583649  86.0106888
  28.0365467  69.5846558  84.5037689   2.5158374  59.4191399  28.0620823
   2.9185188  60.2354431  28.3582745   3.1311548  59.0683823  27.4181995
  18.9057140  22.4540920  74.7491379  18.4304600  23.1857262  75.1429443
  18.5623398  22.3976498  73.8574371  20.1109638  17.4354305  77.8584061
  20.0393372  18.3734684  77.6818008  20.8733387  17.1540146  77.3526154
  11.2492924  48.7079849  88.3871536  11.4825182  48.5919342  89.3082275
  10.4787006  49.2755280  88.4048767  27.6664047  16.9390450  73.2179031
  28.2467251  16.3512001  73.7015381  27.8071079  17.7971420  73.6180344
  66.7517624   1.6370980  34.7478409  66.2849579   1.6771594  33.9131432
  67.0437012   2.5355015  34.9023552  74.0322037   4.2456098   9.5720205
  73.4833374   4.6524868  10.2424164  73.4135590   3.7957196   8.9965973
  39.1344986  65.6425629  36.5203857  38.4571609  65.6194611  35.8444366
  39.3666000  64.7242355  36.6583595  55.2451324   6.8088179  33.8917694
  56.0524483   7.1177125  34.3029327  55.2482262   5.8629665  34.0386963
  82.8220444  41.5379257   5.9342370  82.6956177  40.8296242   5.3029218
  82.3077698  41.2735176   6.6970229  79.9614029  23.6981030  67.8449936
  80.8616409  23.7360363  67.5219421  79.4237823  23.6722412  67.0534592
  34.7648087  45.4850922  82.8252869  35.2211494  44.7745743  82.3745651
  35.3883209  46.2113419  82.8203659  64.7789383  54.8233986  45.4292068
  64.8247528  54.3192329  44.6168327  64.4531860  55.6822701  45.1600227
  67.2687912  31.4625473  52.1670570  66.8351669  32.1199303  52.7111588
  66.5997391  30.7939148  52.0203323  69.3182373  46.7811813  49.2064247
  70.1434784  46.9679070  48.7588234  69.5717239  46.6050568  50.1124916
  46.0325241   5.5900083  12.3035984  46.7854652   5.0296054  12.1158228
  46.3492813   6.2021317  12.9678278   6.0641952  35.4478264   6.4801650
   6.8139687  36.0427513   6.4684782   5.5775881  35.6912003   7.2677021
  55.6325378  39.7815514  11.6850777  56.3975029  39.2539368  11.4555473
  55.0298500  39.6615295  10.9511909  68.9259186  39.9690056  56.5973320
  68.1251984  40.3031578  56.1930847  68.9996872  40.4540176  57.4192543
  14.1283760  29.1829567   0.4669203  14.7134600  29.0747471  -0.2828798
  14.1400967  30.1231556   0.6461412  74.3903198  63.3595848  17.2965622
  75.3234787  63.5610085  17.2267799  74.3617783  62.4970627  17.7106552
  65.5305557  25.4495049  29.0068245  66.1006699  26.1097107  29.4009514
  64.9376450  25.1926651  29.7130222  18.5653114  67.1438446  32.7464485
  18.4383640  67.3846664  31.8287773  17.7873173  66.6328964  32.9698181
  70.2508774  12.1918697  41.8504219  70.3379288  11.2789059  41.5762863
  71.0501556  12.3704157  42.3459091  81.9420166  54.0730515   5.3615541
  81.2536545  53.5289803   5.7441463  82.6584930  54.0334129   5.9950500
   3.9905474  39.8202477  77.7694244   4.5004606  39.4962196  78.5118713
   4.5263629  40.5214386  77.3986588  61.8292465  11.1618376  48.4310341
  61.7311630  10.2112122  48.3769722  62.5308418  11.3657827  47.8126411
  17.8578053  20.6326122  67.1694260  17.8053055  21.5502071  67.4368057
  17.0312424  20.4676685  66.7157516   6.0980344  37.1731224  29.4651451
   6.6466565  36.4374313  29.7371826   5.4376545  37.2470474  30.1541042
  70.5964584  15.9170856  12.4000101  70.5194092  15.1480293  12.9646759
  69.7458191  15.9816542  11.9658661  70.2351837   9.7535458  40.5053253
  70.6781540   8.9053011  40.4831848  69.3343201   9.5468721  40.7542343
   2.8774714  29.8108368  13.8020620   2.3803828  28.9928761  13.8107796
   3.6207240  29.6456146  14.3821564  84.2288437   5.0266857  48.9315834
  84.0498199   4.8944526  48.0006180  83.3635559   5.0598755  49.3395195
  38.0221977  58.0810547  70.7828674  37.8270035  57.3112984  70.2484436
  37.1766052  58.5153122  70.8952179  60.4521942  14.6150322  34.6727409
  61.2128143  14.4382715  34.1191635  59.7448883  14.1051073  34.2778625
  82.4869080  27.4927750  84.6221924  83.3081665  27.0189705  84.7536621
  81.8873215  27.1160946  85.2662735  50.0376587  20.2319794  10.2840919
  50.9538727  20.1852055  10.5572205  49.8413048  19.3554878   9.9532757
  71.8759842  35.3603592  46.4416275  72.6579285  34.8387527  46.2607574
  72.2073441  36.2467995  46.5853539  71.6322098  65.5078278  21.1744003
  71.8286743  64.8843918  20.4751415  70.8956451  66.0191879  20.8394070
  40.8866730  63.2906685  27.8305950  40.5030975  63.2120628  26.9571419
  41.3722992  62.4749718  27.9532185  11.8817921  42.1130943  55.7556229
  11.5459032  42.1435051  54.8598061  11.2993231  42.6901627  56.2495384
  40.7182617  28.5641327  19.7642708  41.5455551  28.2962971  19.3641720
  40.9512100  28.7971172  20.6629848  18.5102215   9.6950312  77.8529968
  18.1648827   9.9038181  78.7209702  19.3060913  10.2216473  77.7788391
  74.1757736   2.2631037   5.6792169  74.8538895   2.0811112   6.3298082
  74.6584396   2.5499113   4.9039712   1.1758881  24.5976315  42.7902565
   0.9648650  24.2821045  43.6689720   0.3379799  24.5958920  42.3275032
  20.2282810  28.4457150  70.7882996  20.3542480  28.0393276  69.9308548
  19.7357101  27.7968311  71.2908478   2.2097127  29.9182377  34.0521507
   2.9869723  29.3595810  34.0529442   1.6573502  29.5611000  34.7475510
  82.4427643  40.6408386   1.9309871  82.1028442  40.2509117   1.1256046
  82.4267960  41.5835724   1.7659603  37.9265823  12.1448622  15.3950834
  37.4649239  12.7349606  15.9908066  37.2927895  11.4534883  15.2039242
  45.7657738  49.8202171  70.8788147  46.2577705  50.6083641  71.1090088
  44.9194145  49.9311600  71.3119354  54.4153786  38.6978149  36.0894585
  54.7933960  39.4348450  36.5691757  53.9681168  38.1803169  36.7590714
   4.3470306  64.2715759  27.2392063   3.5563490  64.4027634  26.7159042
   4.0476303  64.3367844  28.1460342  79.2655411  14.7408381  34.8442230
  79.3888016  15.4456549  34.2083969  79.2543259  15.1832104  35.6929932
  36.5978928  55.5183258  64.1521912  36.9499550  54.6568947  64.3762970
  37.0897141  55.7832603  63.3749199  22.1671162   2.7832682  77.9804611
  21.3389587   3.2141652  77.7690048  22.0885410   1.9108285  77.5945740
  86.3981857  25.9511395   0.7367141  86.9802246  26.4783440   0.1894270
  86.3771133  25.0952244   0.3086959  62.7130661  68.8459244  85.3013229
  62.8847160  68.0086136  84.8704071  62.6392174  69.4742661  84.5830154
  84.7765274  50.5554047  56.6975403  83.8704605  50.2950516  56.5317268
  84.7426376  51.5094490  56.7674103  14.6309299  11.0331078  66.0998306
  14.3073654  10.2461348  65.6614151  14.4704056  10.8724070  67.0296936
  80.6342239   2.1416297  46.3444405  79.9873199   1.7329917  45.7693138
  81.4643936   1.7327121  46.0998383  55.1595306  42.3608665  32.8333092
  55.2033997  41.8136215  32.0491982  55.8891830  42.0612717  33.3756065
  40.2354393  60.3888969  28.0229053  40.2135696  59.6984406  28.6854916
  39.4547119  60.9141388  28.1984596   5.0109005  32.6994591   7.9210105
   5.5210323  33.3974037   7.5100737   4.0991936  32.9424896   7.7598972
  62.0806999  52.7269173  22.3874454  62.3734932  52.8440552  21.4836845
  62.7859688  52.2329674  22.8055840  40.5259514  10.7739697  16.4356918
  40.5828972  10.1550217  15.7077551  39.5904922  10.8285446  16.6310539
  86.3294220  13.6434374  32.2484207  86.5912857  13.3048954  31.3922367
  86.0503387  12.8690882  32.7370148  51.8517036  23.1792183  53.9016457
  51.9352455  22.3189983  54.3130798  51.2175331  23.6448917  54.4468155
  12.7613287   5.4386387  25.5173798  11.8937941   5.5273948  25.1227417
  12.8385286   4.5060763  25.7188702  42.9768600  22.1029510  28.8662758
  42.1747017  21.8473301  29.3217220  42.6810532  22.6930981  28.1731262
  28.1839523  61.2170792   0.7703351  27.7592220  62.0028648   0.4262698
  27.5095310  60.7931786   1.3010846   6.0178423  33.8777237  70.3378677
   6.6825972  33.2137337  70.1549759   5.2152109  33.5253563  69.9533539
  27.6824722  66.9702835  77.9571457  27.2082596  67.6323318  77.4541016
  28.6060848  67.1626816  77.7954178  59.0177460  65.0632172  31.2803802
  59.0126038  65.7080765  31.9877434  58.3846359  64.4003143  31.5559959
  10.5072088  35.3970757  68.7547989   9.9491148  35.3061180  69.5271225
  10.2899780  34.6393547  68.2117462  82.8530350  33.7020836  57.8432121
  82.8513107  32.7646904  57.6495132  82.0996399  33.8288803  58.4198875
  75.5186310  62.0317841  38.0615349  75.2082062  61.1855736  37.7393646
  76.1149521  61.8115044  38.7771568  19.4527283  71.1872406  44.4628487
  20.3790474  71.3874435  44.5973282  19.0687809  71.2303391  45.3386116
  71.3778915  29.2824669  66.2646561  72.1682892  29.4884892  65.7655945
  70.9456406  28.5962906  65.7561798  58.6334648  30.7811165  15.1674223
  58.4661903  31.4361305  15.8450718  58.1520386  31.0985622  14.4034271
  67.2889328  53.7959442  67.7347107  67.7935638  52.9856224  67.8050766
  66.7776031  53.6907654  66.9323959   5.5466471  25.4804115  57.5300598
   6.0375886  25.4431095  58.3509254   5.6851530  26.3712463  57.2084122
  29.0315228  66.8106689   6.5827003  29.8828964  66.4050903   6.4186873
  28.6268597  66.2565842   7.2501326  16.7214432  16.4713287  70.1013870
  16.6429615  15.9368916  69.3111725  16.8473606  15.8375874  70.8076096
  69.3764038  45.2282066  64.6029663  69.0306015  45.0562248  63.7271423
  70.0762100  45.8661385  64.4631577  82.8343124   0.7183510  45.4146233
  83.6953430   1.1197510  45.5318451  82.8830872   0.2925259  44.5587463
  65.6601791  45.4691505  39.6799965  65.7335052  45.7033081  40.6052132
  65.3167191  44.5757103  39.6855431  66.4550095  67.6389847  11.5187674
  66.0617828  66.9810944  10.9453697  66.8347626  67.1338730  12.2377119
  53.2564240  12.4668264  26.0218105  52.6027184  13.1517477  26.1624660
  52.7829170  11.7750645  25.5597610   5.7883162   9.5951214  11.1744442
   5.9491925  10.1464033  11.9402380   5.7075381  10.2126074  10.4475203
  61.5204735  68.2518082  61.9427032  61.8683357  68.9929504  62.4386139
  60.7816811  68.6156769  61.4548340  28.5129299  68.3872299  19.8767529
  28.3255444  68.3598862  18.9384708  29.3864040  68.7743225  19.9353695
  85.4215469  37.1695557  72.1662979  84.5465164  37.3217850  71.8093872
  85.2716827  36.6429558  72.9514542  35.4021378  31.9627285  74.1492462
  34.5615921  32.2403717  74.5134354  35.3965302  32.2966576  73.2522049
  84.3151398  31.9325848  87.9036255  84.0212479  32.7990265  88.1849442
  84.9232483  31.6521778  88.5875931  72.1462097   8.3134251  71.9401093
  72.5185928   9.1243076  71.5936508  71.2381363   8.3183908  71.6374359
  27.8151379   3.1166778  21.0315990  26.8624592   3.0282083  21.0031586
  28.0210457   3.1912346  21.9634113  48.2611275   7.4869027  58.3669090
  49.2133064   7.3976130  58.3266907  48.0075073   6.9974608  59.1494408
  23.2539787  35.7928925   4.5198503  23.3257236  34.8389587   4.5530057
  23.6685753  36.0925255   5.3288984  21.9913311  42.3861771  15.8535824
  22.1205883  43.2484703  16.2485142  22.8147049  42.2043648  15.4005575
   0.2016970   7.1617436  47.6078300   0.4473823   7.8269095  46.9648514
   0.8272201   6.4508352  47.4679680  72.2338333  31.7655010  29.2233620
  71.4745483  32.2841530  29.4892769  71.8596573  30.9909134  28.8035603
  29.9424267  51.1407051  71.6128464  29.6737118  52.0258789  71.8588028
  29.3882313  50.9215965  70.8637924  64.4155121  49.2593460  69.1429062
  64.3819733  48.6547623  68.4015656  63.8611565  49.9935188  68.8784943
  20.3218594  15.6587906  80.0431442  20.1815338  16.1698799  80.8402176
  20.0954456  16.2577114  79.3316269  23.7862988  39.9506226  55.9542007
  23.6377850  40.0839462  55.0180397  22.9667549  39.5747223  56.2755737
  37.5743637  22.5098896  88.0327988  37.6866875  22.3477669  87.0961380
  38.0357933  23.3336010  88.1903229  17.0952187   1.1983522  70.5233231
  17.7770710   0.9303054  71.1393204  16.7459354   2.0101619  70.8910141
  32.6893997   5.9508657  60.5696068  32.2519455   6.7984262  60.4889412
  33.5389977   6.0787125  60.1476173  58.1425858   9.2906456  20.6305161
  57.9404144   8.7257423  19.8846989  58.9581795   9.7278013  20.3857117
  27.6061916  19.1335449  21.6634121  27.8716450  18.2811699  21.3181267
  26.6520958  19.0821457  21.7207661  50.2989769  58.1062012  11.9980049
  50.2680664  58.5508728  12.8450861  49.4701385  57.6301079  11.9470377
  12.4884882  52.6386909  36.6163902  11.7035847  52.9991837  37.0289497
  13.1413679  53.3342438  36.6950340   5.1004462  29.7144642   8.1996098
   4.6481433  29.4657001   7.3935266   5.0711675  30.6711998   8.2051964
  68.6826172   7.6744857  80.1680069  68.9217529   7.5762563  79.2463760
  69.3359146   7.1591902  80.6411896  57.8857346  18.1209526  38.8103828
  58.0359001  17.5972137  39.5973892  57.5556831  17.4951916  38.1656189
  75.9647598  36.9903755  46.3191872  75.6405869  36.5806465  47.1212273
  75.4714966  37.8079071  46.2516136  29.5660629  25.7075157   6.8474846
  30.2515678  26.3171387   6.5742130  29.9385185  24.8405418   6.6866689
  15.7242460  17.7450943  63.2753105  15.2089710  17.8342190  64.0770493
  15.2435532  18.2555199  62.6236725  73.6268387   8.3784885  27.4275188
  73.9065552   8.1693430  26.5363121  73.6658249   7.5430369  27.8930645
   0.2923201  36.1870117  19.8498917   0.9848203  36.3364143  19.2061882
   0.6385183  35.4995804  20.4189415  16.9386368  65.5414047   7.1750426
  17.4360142  65.0261459   6.5399394  17.0359879  65.0644531   7.9992194
  11.9177160  37.9179001  86.0521164  12.8343964  37.7410316  86.2634201
  11.4564304  37.8182526  86.8848953  75.1815338  55.2909660  23.8604794
  75.6815033  54.8376541  24.5392818  75.2093506  54.7002831  23.1077843
  33.8951263  66.4782333  73.5061569  33.8174477  67.1449661  72.8237534
  34.7842484  66.1375427  73.4080429   5.6840086  28.3592873  41.7612762
   4.8006783  28.3356972  41.3933067   5.5654922  28.1315918  42.6834145
  64.8554764   7.3961248  18.4112110  64.9664841   7.4258747  19.3614864
  65.7481003   7.3989229  18.0655937  43.1474609  64.2575607  67.5536423
  42.4894867  64.9189835  67.3395920  42.8940048  63.4919510  67.0380478
  60.7803040  52.2337646  25.7614002  61.1825714  52.9092598  25.2153988
  60.8659782  52.5657196  26.6550980  46.5808144  67.6103210  44.3754272
  46.1857452  68.4821777  44.3794594  47.5114937  67.7683487  44.5338249
  23.2818623  68.1705093  76.9734802  23.7733727  68.6046143  76.2761993
  22.5721951  68.7785492  77.1805801  19.5974007   1.0371028  84.1979752
  20.0053234   0.5975674  84.9440536  19.3208752   1.8863780  84.5422058
  86.4923782  39.2998466  34.5048332  85.9346313  39.3323021  33.7276001
  86.5390549  40.2078171  34.8042297  41.8718758  67.1197968  61.3066978
  42.5714989  67.0352478  60.6589203  41.5273094  68.0027924  61.1732254
  55.4331512  69.3707352   5.5613852  56.2011299  69.4698944   4.9987030
  55.7402840  68.8365479   6.2938786  50.1848984  27.1165047  79.9651566
  49.9141273  27.0736313  79.0480499  49.4128151  26.8354988  80.4562302
  20.2675152  40.3246880  23.0199699  19.9419575  40.0528831  22.1618519
  21.0881100  40.7800598  22.8315773  85.1279755   5.1975899  87.6120529
  85.1284409   6.0515795  87.1796951  85.1416473   4.5653396  86.8935089
  58.0898552   9.5960808  30.5890903  57.9393120   8.7036200  30.9006710
  58.5055733   9.4843588  29.7341461  51.6119957  -0.0147475  38.1630402
  51.1042786   0.7312992  37.8438683  52.3327446   0.3788411  38.6548119
   5.2928181  42.9862099  28.5262184   5.0340066  42.2461357  27.9770947
   4.4920535  43.5007019  28.6277351  80.9390182   3.9233098  86.1304245
  80.9108124   3.0984194  85.6456604  80.1020889   3.9576092  86.5936890
  68.1407700  19.5160789  33.8936882  68.0432510  19.3670254  32.9532089
  67.5224228  20.2198811  34.0900307  20.5957184  10.3418522  43.7450447
  20.6090832  10.3970947  44.7005539  21.1497879   9.5884790  43.5409164
  76.9063034  14.5879450   3.3064618  77.3935089  13.7659779   3.3633070
  76.4142227  14.6318903   4.1263156  78.4637604   4.6911383  59.8214874
  77.5085526   4.6734514  59.8806114  78.6873703   5.6217542  59.8349762
  18.2986584  33.2023010  58.5750847  18.7523499  33.2759132  59.4147148
  18.5096531  32.3215561  58.2652435   3.0654275  32.2509842  26.5453224
   3.1233966  32.6699219  25.6866226   2.1266816  32.2055550  26.7267704
  34.4196320  51.2525864  51.9871750  34.9480057  51.8360786  51.4425774
  33.7866936  50.8672791  51.3812370  13.5696487   2.4361510  46.3067055
  13.0341883   2.5279632  47.0947952  12.9566126   2.5694039  45.5837517
  43.5409012  42.3808594  78.3077545  43.2588196  42.1535530  77.4217606
  42.7271729  42.4571419  78.8060150  48.9438858  51.5063858  34.2046242
  48.4560127  50.8560944  34.7099342  48.5331039  52.3413734  34.4288788
  69.9430313  50.8105774  52.0742149  69.5833511  50.2618370  52.7711716
  70.7506332  50.3678360  51.8134575  34.2660789   2.0589445  63.5118065
  33.3969498   1.6778660  63.3868065  34.6335411   2.1118808  62.6295395
  85.1895142  10.1241331  38.9224854  85.1755524  11.0676661  38.7619171
  85.1397324   9.7320547  38.0506897  37.4264603  69.8552322  56.3872604
  38.0107994  69.9344559  57.1412544  36.5646706  70.0983887  56.7255325
  16.8220921  23.3801746  76.5388947  16.6361923  23.7121067  77.4172363
  16.0585346  22.8469563  76.3177795  69.2714310  24.1390686  64.4078140
  69.5268402  24.7692585  65.0815048  68.3374710  23.9930210  64.5582123
  51.5796661  69.1264496  60.3605461  50.9503326  69.6953354  60.8038826
  51.9249763  68.5647202  61.0544090  64.8653107  12.2762413  54.3059921
  65.1125946  12.8715830  55.0135612  63.9454651  12.0723915  54.4749718
   0.1755692  44.5002174   8.6102762   0.3436750  44.0600395   7.7770796
   0.8735893  44.1928406   9.1886530   7.9538746  22.2404022  72.0878754
   7.7748713  22.6742020  71.2536011   7.3454237  22.6471977  72.7047501
  13.1657696  37.3131371  61.9438248  12.8365107  37.9473305  61.3069420
  12.7364187  36.4910278  61.7071304   8.9304657  65.2583160  18.6934566
   9.2059059  66.0707550  19.1180801   8.0936422  65.4747620  18.2822304
  15.7145433  18.6284275  72.7475281  15.9781532  18.7586422  71.8366013
  16.5223694  18.3814030  73.1976700  41.5717430  53.4291763  33.3158150
  40.6731644  53.1299438  33.4545631  41.8068810  53.0889626  32.4525681
  26.5883713   6.7586126  80.3414459  27.1378975   7.3860850  80.8110504
  25.8868217   6.5467858  80.9572220  22.8812485  13.7436714  21.3460255
  22.1479893  14.3343306  21.1737309  23.2717705  14.0760908  22.1542454
  49.6593971  15.3659468  61.0541344  48.7181244  15.1994638  61.0039139
  49.9585114  15.3258886  60.1457520  72.3021698   0.6097941  84.4302139
  72.9540176   1.2053205  84.7999115  71.9588013   0.1319759  85.1852112
   4.5547366  68.6277466  71.1937408   4.9468803  67.7671814  71.3416672
   3.7804744  68.4495697  70.6598816  77.9212189   1.0227308  10.7929478
  77.3020935   1.6794537  10.4741526  77.4387283   0.1972227  10.7485752
  15.0755167  21.1360607  19.2611275  15.3828220  20.4877739  18.6274700
  15.8737593  21.5598183  19.5765152  60.4087830  20.1997089  66.7873077
  60.0768166  20.4027481  67.6618423  61.3263245  19.9659653  66.9277191
  50.3966904  39.9223213  67.0638657  50.3076973  40.3278198  67.9263535
  49.5145645  39.6185188  66.8498688  65.1275940  66.1782837  80.5773392
  65.4760818  66.5403442  79.7626572  65.8931656  65.8213959  81.0276184
  59.7536812   4.4312906  22.1357059  59.4456787   4.4792819  21.2306843
  59.4562416   5.2494655  22.5336380  -0.0016642  34.9319305  80.6839828
   0.7221754  35.3321266  80.2021790   0.4213082  34.4479141  81.3932495
  78.2686005  44.4269180  25.0198784  78.7082367  44.5833588  24.1841316
  78.9674835  44.1416359  25.6084385  86.7011261  28.8215733  84.3112717
  86.4457703  29.1493835  85.1735687  86.1308746  28.0671463  84.1633301
  47.8591614  12.8699875  76.1477585  47.8870010  12.8128138  77.1028442
  48.7752914  12.9634943  75.8866119  69.7059555  60.8978157  39.4862251
  70.5417328  60.8853226  39.9526443  69.1585770  60.2706604  39.9587555
  21.1807575  22.2621651   7.7314653  21.2356014  23.1786804   7.4608679
  20.2640133  22.1396847   7.9780636  35.3988571  70.3300247  71.3118591
  35.9129791  69.6672363  71.7729645  34.4886665  70.0759506  71.4643021
  20.2427139  68.1631241  56.2204361  19.6282272  68.5762177  55.6138153
  20.7801876  67.5958786  55.6676407  24.5374241  58.6622314  12.5756798
  24.5541077  59.6013298  12.7602062  24.7362499  58.2494354  13.4160948
  63.5289040  70.1925964  76.1304550  62.7850227  70.6958237  75.7993469
  64.2311401  70.8363495  76.2235794  78.8900070  24.2855911  65.3033142
  78.7081375  24.1353760  64.3756332  78.0695877  24.6308422  65.6553802
  12.0064793  20.2153511  14.1915941  11.9269180  21.0942516  13.8208723
  11.9563847  19.6309128  13.4351845  62.1936073  33.6573753  26.2214394
  62.1817741  34.6144714  26.2289867  61.3746643  33.4043503  26.6475201
  86.9010315  32.4712410  49.4735527  86.7189178  31.8223019  50.1532173
  86.0616608  32.9077263  49.3280792  25.6603069   7.7282476  37.0049019
  25.0015411   7.7506356  36.3108139  26.4293804   8.1473846  36.6187897
   2.5269036   6.7015533  59.0211067   3.4359815   6.6332445  59.3128967
   2.0104830   6.6007891  59.8207207  59.2772789  28.0306129  71.3846512
  59.1595459  28.9658833  71.5509033  59.4797134  27.6583977  72.2429733
  20.6381550   0.4824686  86.7685471  20.8913746   0.4352766  87.6904449
  19.7061653   0.2642661  86.7646866   5.3143239  26.7651463  44.2111320
   4.9297924  25.9157925  43.9944191   6.0867748  26.5517883  44.7346115
  33.8156242  31.2210522  82.0778961  33.2572975  31.5831165  81.3898468
  34.6939201  31.2190495  81.6973419   0.2191765  70.7525177  59.9420891
   0.0189443  71.3275909  59.2035599   1.1524276  70.8887253  60.1055565
  35.9149323  29.0518265   8.7004490  36.4174538  29.8624477   8.7816534
  35.4368324  28.9826088   9.5268040  80.2635880  24.2060184  38.9752274
  80.3010941  24.1964531  38.0188103  79.3283005  24.1925068  39.1783981
  73.7476807  30.3797436  42.9028625  72.8103104  30.5638599  42.9634972
  74.1310730  31.1938972  42.5766830  18.6486435   5.4084387  19.6341457
  18.8049831   4.9747005  20.4729919  17.7238960   5.6541882  19.6602612
   3.4614463  67.9766922  14.2371178   3.7809627  68.8429031  14.4897432
   4.0562086  67.3657608  14.6721478  15.8795662  41.8448219  67.1661377
  16.1910076  41.4280357  66.3626862  16.5838356  41.7021408  67.7984924
  15.2191553  44.2907028  78.4727249  16.0937862  44.5391998  78.7718964
  15.2561731  43.3378334  78.3896561  21.7402496  49.6275902  69.2164001
  21.7444744  49.0739555  68.4355621  20.8524685  49.5441017  69.5643997
  11.2034616  70.4685822  70.7310257  11.9961653  70.9594498  70.5144577
  10.8840532  70.1456223  69.8884659  71.7519760  41.5591431  18.5618687
  72.4861603  41.3840332  17.9731903  70.9794464  41.2783661  18.0713654
  28.3977299  46.1580963  86.4768677  28.5852757  47.0941963  86.4077530
  28.4403858  45.9739265  87.4152145   6.2989230  18.8706226  71.6961060
   7.0797253  19.2049236  71.2547226   6.6087337  18.1096668  72.1872253
  17.1478958  22.4237976  20.4630013  17.9238091  22.9449825  20.2567081
  17.3633976  21.9898396  21.2885151  19.5549068  60.9093742  82.7593155
  20.3010464  60.4193115  82.4138489  19.8504715  61.2252731  83.6131821
  80.2066116  36.4252167  19.7775440  79.4216385  35.9299927  20.0116558
  80.8478928  35.7571602  19.5352859  58.9944038  15.3373117   3.7533653
  59.2523193  15.3906813   2.8331139  58.0452576  15.4608374   3.7436430
  74.9084549  35.3073196  16.8513451  75.4042892  36.0980988  17.0635910
  74.4117279  35.1153717  17.6467400  48.6480942  11.8930311  64.7831192
  48.7048492  12.5406485  65.4856873  48.1005898  11.1956530  65.1438599
  75.9912796  34.3510323  78.7378922  75.7596741  35.1759911  78.3112335
  75.9818802  33.7051544  78.0315018  46.6037369   5.2280641  86.4348755
  45.8296738   5.4218497  86.9635544  47.1865005   4.7541451  87.0281906
   7.7751427  68.7479477  67.3184052   7.0865026  68.5944366  66.6715317
   7.4367399  69.4573517  67.8647232  56.3808136  35.3485451  68.5383148
  56.2245064  34.4716988  68.8889389  55.5078888  35.7323837  68.4552155
  84.7152328   0.6622277  38.0045967  84.8326874   0.7761469  38.9477081
  83.8691483   0.2226718  37.9199753  66.4153824  18.8579865  20.7318363
  66.9962311  18.8988113  21.4915638  65.7823868  18.1741638  20.9507732
  69.2557831  48.2189713  68.6142349  68.9578857  48.0929146  69.5151215
  68.9921570  47.4184036  68.1605530  73.4973450  14.5389585  50.6174126
  74.2761917  15.0720224  50.4578018  72.8629456  15.1486349  50.9943275
  73.1092453   7.4238191  67.1681824  72.3981781   7.0648475  67.6989899
  73.7864685   7.6589108  67.8024750   8.4940395  49.3570328  24.6753769
   8.5059910  48.6775131  25.3494244   9.4012928  49.4127655  24.3753490
  26.1726742  56.6702766  77.4683838  25.4999237  57.2126923  77.0567703
  25.9274197  56.6452980  78.3932953  54.0580978  69.4000320  13.7124214
  54.7520599  69.9012070  14.1407557  53.3200798  69.4449463  14.3203249
   4.4764395  34.7430344  20.8951721   4.9866080  33.9646797  20.6712837
   3.5652289  34.4734268  20.7801075  12.9361992  10.6216841   4.1534739
  12.9688282  11.1313543   3.3439038  13.7534733  10.8349094   4.6038394
   1.2828839   0.9050681  79.7743225   1.5453917   1.7261578  79.3582306
   0.5115132   1.1349823  80.2923508  78.3347168  66.8800507  62.2918739
  77.6960449  67.1282730  61.6235085  77.8442230  66.9065399  63.1134300
  64.1155396  19.4587555  54.9112968  64.7699051  18.8468475  54.5742493
  64.4025345  19.6483116  55.8045654  53.0207825  57.2753296  53.7285614
  52.2410240  56.7314072  53.8397560  52.7971153  58.1040573  54.1521301
  60.1670723  43.0587120  26.0186520  59.9718475  42.9013138  26.9424171
  59.3202553  42.9837799  25.5787411  77.4458542  39.9312019  76.3651047
  76.5584717  39.7397690  76.6686554  77.3222580  40.3550072  75.5157852
  82.1292953  50.1699791  56.0069695  81.3575211  50.3341522  55.4650764
  81.7762756  49.8360901  56.8316650  65.0434113  15.5572958  67.1882782
  64.4566269  15.6076221  67.9428482  65.8069763  15.0781460  67.5101776
   5.0790868   0.2657599   8.6384459   5.0156126  -0.5107319   9.1945601
   4.2693195   0.2616754   8.1280622  21.0468712  41.1036339  31.0427151
  20.4259300  41.5697021  30.4828529  20.6012497  40.2865067  31.2662144
  74.4170685  31.1586304  64.0236740  75.0369720  31.8221664  64.3264542
  74.6945953  30.9621315  63.1289139  83.6634140  18.9236546  11.1346703
  83.7411804  19.6491375  10.5151062  82.7206345  18.7823448  11.2209015
  86.9127960   6.9979134  77.9530182  86.0628357   7.4186916  78.0824509
  86.8795929   6.6614623  77.0575104  54.9287949  23.6246662   0.7397912
  54.3825188  22.8410740   0.6782031  55.8138237  23.2890453   0.8823321
  83.7184219   6.3660784  40.6211853  83.6554031   6.2203245  39.6772499
  83.4296646   7.2704234  40.7437019  75.9005661  43.5996208  74.6319351
  75.4247131  43.7622986  75.4463882  75.3250732  43.9389343  73.9464340
  27.3311996  -0.0745900  81.8673706  27.3508053  -0.4134895  80.9723892
  27.5622597   0.8500391  81.7784729  35.1728897  68.9510956  16.2869778
  34.8807449  69.8209000  16.5596046  35.0518150  68.4036789  17.0628090
  62.1134834   3.6623216  28.1623726  62.9305840   3.8777134  28.6120262
  62.3396072   3.6814098  27.2324619  66.3855515  20.2912750  36.9452438
  67.0991974  20.1541920  37.5682564  66.2685165  21.2409649  36.9202805
  17.7345219  21.7391300  10.3637094  17.7329159  21.4253006   9.4594193
  16.8756828  21.4900913  10.7051868  15.6287975  41.6152534  77.5437317
  14.7132425  41.3376350  77.5133743  16.0007839  41.1335182  78.2825089
  45.4763298  45.1246262  11.2631817  45.7573586  44.2730675  11.5980062
  45.9083900  45.2019730  10.4125490  50.0916138  35.1107521  85.4073715
  50.1703415  34.6149521  84.5923767  50.5523834  34.5792313  86.0565338
  15.8796225  63.5447998  61.2448578  16.5847321  63.2737617  60.6569862
  16.0235653  63.0353813  62.0423584  79.6707306  35.2939529  37.2713356
  79.4960022  36.0283051  37.8599243  80.0686874  35.6955261  36.4989357
  20.0893726   6.2070789  54.4628220  19.2356834   5.8844218  54.1741409
  19.9613762   6.4316883  55.3844490  30.9558849  70.0760803  10.8205214
  31.1136513  70.8804550  10.3262348  30.7567387  69.4197998  10.1527843
  47.3961258  65.4498138  28.0511150  47.9909058  64.9997864  28.6510677
  47.9685097  65.8195419  27.3788738  60.3012886  59.3271599  18.4794979
  61.0191994  58.9098282  18.9555988  60.7323112  59.8274117  17.7865314
  68.1381378  52.6050987  28.4630966  68.9222412  53.0976372  28.7056332
  67.7910004  53.0678024  27.7004528  85.5014725  42.8952484  57.9233551
  86.4529572  42.9343109  58.0202255  85.3039627  41.9599571  57.8738289
  50.5748100  14.3283176  43.4794121  50.9445610  14.8599863  44.1842842
  50.9586716  14.6894817  42.6803856  37.0655441  52.1336975  21.5384979
  36.7521210  51.2299728  21.5741997  36.3519630  52.6184769  21.1237450
  12.7769756  22.7171478  31.9572048  12.9694824  21.9294891  31.4485130
  11.8524904  22.8943920  31.7835903  30.9271564  14.0045385  81.0986557
  30.0933323  14.3613119  81.4047318  31.1578979  13.3423061  81.7501450
   9.8054132  71.0567474  49.5135841   9.4403238  71.4259186  48.7094345
   9.8091488  70.1114731  49.3630257  67.2729568  61.0996552  15.8433952
  67.3527756  61.9025688  16.3583622  67.5287857  60.4018288  16.4465694
  85.1130829  14.6515369  13.8354206  85.4134903  13.8286877  13.4495382
  84.3590851  14.9046507  13.3028240   1.7854271  66.1447525  61.3004761
   1.9499401  66.9141617  60.7553406   2.1738906  66.3638077  62.1474380
  43.8222237  46.7464828  13.2521420  44.4531059  46.8376274  13.9662237
  44.3190727  46.3357620  12.5445518  81.4474869  49.4518356  87.1707458
  82.3587952  49.7221146  87.0580750  81.4353485  48.9951553  88.0118942
  60.5294266  10.2147121  41.1541252  60.0129814   9.7663870  41.8238411
  60.1063232   9.9798021  40.3282738  24.7548370  12.8689146  13.5738020
  24.4520817  13.1765242  14.4281721  24.9163094  11.9338236  13.6993561
  47.1411018  67.2693939  62.2484093  47.2077789  66.7013245  61.4808922
  47.3963318  66.7108688  62.9826698  67.4643784   9.7899342  81.4371643
  67.9864578   9.3761587  80.7498169  66.6217804   9.9720135  81.0210953
  73.7914505  63.6989288  82.6111603  72.8571625  63.5051003  82.5351715
  73.9972992  64.1991196  81.8214340  75.6318359  23.9839611  13.3500929
  76.5712509  24.1659107  13.3750172  75.3760376  23.9186153  14.2701626
  25.2169685  26.8012829   1.5015026  26.0967064  26.4255409   1.5348495
  25.3581696  27.7227612   1.2843106  17.2739677  11.7319880  52.8880386
  16.4933929  12.1453466  53.2569122  17.8483486  12.4636154  52.6621170
  70.2350082  45.9656792  33.0653954  69.7788162  46.2761574  33.8475227
  69.8690491  46.4878693  32.3515205  13.5913181   6.2522550  45.5542755
  13.2155056   7.0226898  45.1283340  12.8959179   5.5954871  45.5181313
  72.5772324  21.9063148  60.1293907  73.1829758  21.1746483  60.0112228
  72.3828278  21.9073372  61.0666428  71.9212036   4.1582332  85.3563843
  72.6569366   3.6816230  85.7407913  72.2887268   4.5802522  84.5798111
  84.8452377   9.5738869  31.6047688  84.1319580   9.0498190  31.9692192
  85.6082993   8.9970407  31.6396313  73.6366196  33.7198563  35.0937424
  73.9715805  34.4953156  35.5439644  73.6603394  33.9528198  34.1656265
  16.8561783  25.7998772  87.9997559  16.7692699  26.7257748  88.2264481
  16.0185413  25.4117336  88.2526169  50.1237450   4.9192920  32.7794724
  50.0596924   5.7664080  33.2205200  50.7249985   4.4107862  33.3236618
  82.7436600  53.6783028  19.0372200  83.1539459  53.8879318  19.8762417
  82.8366165  54.4775848  18.5188179  46.5147362  61.2486534  17.2890663
  45.6762123  61.5287209  17.6560478  47.0624733  61.0687637  18.0531693
  45.1115074  65.9206848   5.7572889  45.2292023  65.2338486   6.4135151
  44.1933289  65.8481445   5.4966788  71.6872482  48.1254845  76.4033432
  70.7528610  48.3246040  76.4625626  72.0997009  48.7245026  77.0256729
  63.9960442  66.6544189  22.6708431  63.3937263  65.9198532  22.7885551
  64.7336807  66.4540176  23.2470074  27.9638367   5.0626287  72.8187790
  27.9592857   4.3904543  73.5002441  28.8873367   5.1636877  72.5882034
  65.6393356  65.0391693  31.6650448  65.0591431  65.7333145  31.9777222
  66.3899918  65.5032730  31.2944202  66.2315979  21.5248642  20.0095310
  66.6289902  22.1239700  20.6414948  66.2631683  20.6694279  20.4378567
  75.7457428  16.1896992  49.5613441  75.8771667  17.1176891  49.3669434
  76.2707291  15.7309055  48.9055061  68.0042877  30.1346207  65.4705124
  67.3828430  30.0724888  64.7451324  67.4592590  30.0987835  66.2565689
  14.0129442  62.4418144  63.4253883  14.0398827  62.3887672  64.3807373
  14.0792065  63.3776474  63.2355080  48.2243614  53.5741844  57.0175018
  47.5802689  53.8069572  56.3487816  48.9889565  53.2809982  56.5218506
  63.8496590  15.0844765  47.8249741  64.1779785  15.9270973  47.5112381
  64.6175003  14.6525993  48.1993256  44.1984558  68.5996933  14.9464264
  43.8894577  69.4858932  14.7582417  44.2134514  68.1651382  14.0936852
  84.1272888  12.0442190  20.5802441  84.2139282  12.5937757  21.3591614
  83.6805801  11.2568045  20.8911552  80.5194016  51.3867416  27.7336941
  80.6358871  51.8664932  28.5537548  79.5762253  51.4131966  27.5726223
  65.1450729  60.7345963  33.6828842  64.9535675  61.4482841  33.0744400
  66.0129623  60.9417000  34.0294456  39.4976883  63.6953316  11.7499151
  40.4285507  63.9053955  11.6750984  39.1369553  64.3959808  12.2932377
  59.3785057  13.3120422  73.5849686  59.9130898  14.1057034  73.6084747
  59.9041252  12.6838036  73.0897217  85.2095871  32.2601738  69.3046417
  86.0869064  31.9707336  69.5551758  85.3545456  33.0742149  68.8223953
  65.1686707  67.8081894  57.0184441  65.2452316  68.1520386  57.9084625
  64.2782898  68.0347824  56.7499084  33.2013474  67.6372070  82.9227371
  34.0806808  67.5836105  82.5483932  33.2176323  67.0277634  83.6606750
   5.7330132  30.6531277  76.2111893   5.7741866  31.5978031  76.0624466
   5.0079222  30.5387745  76.8255157  28.6942501  14.4187698  16.3534737
  27.9693813  13.8365717  16.1257839  29.4790592  13.8866539  16.2224808
  68.8028793  12.2103024  59.3576126  68.8143692  11.4754391  58.7443619
  69.3910141  11.9422770  60.0636520  45.5040894  22.9960499  72.5159454
  44.7759285  22.9865685  71.8947220  45.3915291  22.1959324  73.0291443
  22.7788639  39.8305893  69.7929001  22.3743858  40.2465515  69.0315857
  22.1862392  40.0297623  70.5177155  60.0246658  57.4917412  77.2200851
  59.5318260  56.6728134  77.1681519  60.6100578  57.4673996  76.4631424
  63.4861107  32.0652313  37.6847763  63.2944870  32.6355743  38.4292336
  64.0138245  32.6067238  37.0978050  48.6097336   1.0619138  87.0868683
  48.1736031   1.8134087  87.4884644  47.9309845   0.3887103  87.0386200
  18.9697399  41.8207474  85.5075684  19.9163780  41.7571907  85.3808060
  18.8697777  42.1843414  86.3873596  71.4962616  70.5431747  82.3362503
  71.5534821  69.7388992  82.8520889  71.5391006  71.2466736  82.9839249
  76.6919098  58.9332123  38.1465492  76.2611389  58.5690765  37.3731956
  76.3540726  58.4134636  38.8759041  41.1659966  47.5361443   8.6351089
  41.4293823  46.7082901   9.0369997  40.3590240  47.3278008   8.1643467
  43.0089378  11.3357143  58.6002808  43.0471497  10.5014267  59.0679703
  43.5851784  11.9158573  59.0978851  27.8484650  39.7255783  14.1669531
  28.0215702  39.9825325  13.2612820  28.0957470  40.4917336  14.6847286
  17.1838875  40.5536652  65.0562134  17.8052177  40.1232796  65.6435318
  17.7229080  40.8832130  64.3371201   8.5718145  45.8067322  50.8719406
   8.0419064  45.5846100  51.6375084   9.3881683  45.3228722  50.9971504
  18.6973057  38.2048683  73.5596237  19.5082188  37.9713020  73.1078491
  18.2641315  38.8223686  72.9703140  83.7976456  19.2017822   2.8413918
  84.0421677  18.3644772   2.4472282  83.5156937  18.9759655   3.7278116
  78.8052597  46.1960106  80.5662842  79.5063171  46.6474762  80.0962601
  79.2533569  45.7210159  81.2661591  18.7064590  69.3581314  21.1393528
  17.8795128  69.7321472  21.4434986  19.0828209  70.0348740  20.5766697
   6.8301120  70.5001297  77.9160843   6.4532304  71.3311539  78.2052002
   6.2290988  69.8349609  78.2516022   2.5609918   6.3001928  82.5437622
   1.7636826   6.4733748  82.0432205   3.1792753   6.9684453  82.2481308
  44.8303261  52.7397423  37.8800392  45.3423271  53.5264282  37.6923866
  45.2237854  52.3820992  38.6759758  43.1856689  24.3387775  10.0435162
  44.0973358  24.6091614   9.9340324  42.9135628  24.7421322  10.8678312
  76.7623825   3.7777107  24.6271000  77.3539581   3.1433392  24.2223282
  77.2018890   4.0310335  25.4388218   9.1339321  32.3511238  60.4157982
   9.1709375  32.0805511  61.3332138   8.9891577  31.5380173  59.9319305
  65.7214508  58.1007309  40.1081886  65.0385666  58.7703323  40.0689659
  65.2436600  57.2713089  40.1120186   2.5602932  44.2107430  35.4756393
   2.5246618  44.9076004  34.8203926   2.2502282  44.6237144  36.2815857
   9.0559874  43.2078362  68.3589706   9.6388464  43.4556580  69.0766678
   9.6438503  42.9075661  67.6658020  17.2572117  43.4620094  73.9215698
  18.1062851  43.2290497  73.5460281  16.9859467  42.6806870  74.4034271
  59.5755653  64.1430664  45.9209671  60.4125061  64.1097260  45.4576645
  58.9356956  63.8279915  45.2825851  15.4902773  20.3350201  65.9102173
  15.2389736  19.4192276  65.7902069  14.7460403  20.8337555  65.5731583
  65.3967056  32.8704414  83.5928650  64.4653931  32.8082619  83.8050232
  65.5894318  33.8071899  83.6328278  58.5821495  32.3552780  79.2061081
  58.5392494  32.0154381  78.3123016  58.9166832  31.6236057  79.7247391
   4.6730275   7.7411733  19.3541946   4.2934914   8.2156248  20.0938416
   5.6103768   7.7095218  19.5455208  15.6141262  10.5720282   1.4327294
  15.0665903   9.7965851   1.5557095  15.0826359  11.2956057   1.7646708
  65.7004623  24.8272743   5.7818270  66.2690964  25.5901833   5.6776381
  66.0127029  24.2044048   5.1254935  52.9063721  13.0417328  22.5751705
  53.6704979  13.6070433  22.4621811  53.2432404  12.1550856  22.4462852
  77.5561447  22.9683247  79.7627258  77.6382980  23.8764668  80.0538635
  76.8362808  22.6137104  80.2845306   0.5833114   6.2828097  75.3203201
   0.1744090   5.4412313  75.1183929   1.5235435   6.1098456  75.2725830
  75.3334656  22.8169937  48.2980652  75.5481491  23.5749683  47.7543602
  76.1706924  22.5491848  48.6769600  81.7254868  14.8163881   6.0637817
  81.9022064  14.7384014   5.1262741  82.1620560  15.6278000   6.3231182
  33.9489975  37.5364380  83.8446426  33.3814850  37.4013290  84.6035309
  33.5450325  38.2627487  83.3697510  13.8513250  17.2837696  71.1153870
  13.9025030  16.3342018  71.0061417  14.5828390  17.4980221  71.6943665
  79.0098267  28.5744019  63.9288216  79.8350143  28.1171055  63.7670441
  79.2727890  29.4506435  64.2103958  62.2008400  40.8783455  79.4260406
  62.2959976  41.5380211  80.1130676  62.3377686  41.3604050  78.6105042
  82.3582077  10.5618439  71.6412354  82.3743668  11.4014902  72.1005478
  81.4553604  10.4732122  71.3358765  29.9882374   1.4677174  55.9564514
  30.4461384   1.7180866  56.7588654  29.0664730   1.4232317  56.2106247
  31.6739559   0.9368716  18.5307007  31.7023258   1.4142914  19.3598557
  30.8640404   1.2299809  18.1131420  86.0331573  48.0753059  25.7220459
  86.8740616  48.0065193  26.1741371  86.2651749  48.2497597  24.8099251
  24.3082314  70.7988052  66.2941818  25.2618771  70.8049927  66.2120132
  23.9908104  70.7212524  65.3944778  66.4623413  58.6431618  65.5721893
  66.8345795  59.4915009  65.8130112  66.4322891  58.6576653  64.6155701
  28.9714909  60.6468964  58.4994278  29.6517601  61.1710930  58.9221420
  28.6671124  60.0519333  59.1847038  66.9419708  25.2225628  16.0527859
  67.0880814  25.4908199  15.1456347  66.0487900  24.8784599  16.0598984
  86.2909088  28.7400074   3.0662079  85.5014648  28.3185177   2.7265680
  86.9225388  28.6783295   2.3496356  26.6290874  67.4259644  81.4196320
  27.5443172  67.7062302  81.4136429  26.3637276  67.4548569  80.5004044
  31.6471004  35.3389473  81.0985031  31.8440952  36.2729340  81.1698608
  31.8154793  35.1281357  80.1801071  47.8218536  69.8762436  27.8221684
  48.5243759  69.3858948  28.2490749  48.0122032  69.8023300  26.8870029
  22.3424110  18.2339344  20.9030685  22.5257816  18.6935520  20.0837040
  21.6925869  18.7809868  21.3443089  66.3898621   8.4604664  11.3296165
  65.5599670   8.2984686  11.7782450  66.2272568   8.1988516  10.4233332
  53.7069511  51.3183937  76.4522171  53.0495491  51.6569557  77.0600281
  54.0884361  50.5669861  76.9061813  81.4482346  60.7739449   3.8383772
  81.1149597  61.5265274   4.3270288  80.7332153  60.5358658   3.2482111
  44.9247131  41.9238663   5.0392408  45.1348610  41.1737442   4.4830160
  43.9893532  42.0712776   4.8992200  20.5418530  15.4459286  73.8971710
  21.4947109  15.5369873  73.8987122  20.3306789  15.1231012  74.7731934
  72.8771057  66.7045441  10.3300724  72.0077591  67.0174866  10.5801315
  72.8198700  65.7520981  10.4062386   0.0242363  71.1876602   3.4497149
   0.6138555  70.6030579   3.9259763   0.2417958  72.0621567   3.7724283
  37.1366463   0.5518509   2.2185607  37.1561432   0.5189976   1.2621233
  37.0764198   1.4845830   2.4249966  80.0567703  21.9772873  80.6923447
  79.2536392  21.9838886  80.1716003  80.2054367  22.8962917  80.9149628
  21.6179771  43.7869568  22.6011353  22.1469402  44.0124054  21.8358879
  22.2347965  43.8064537  23.3328342  59.4069481  52.0382118  61.6245461
  59.4661827  51.7851601  60.7033005  58.5674477  51.6832657  61.9169235
  28.9778748  56.1503296  67.1533585  29.8347969  56.3563309  67.5268326
  29.0280819  55.2190285  66.9379959  79.5905838  36.9686890  83.0581589
  79.9572220  36.4118042  82.3713684  79.4754639  37.8215065  82.6390152
  63.5844536  52.9373093  19.7982731  64.3626328  52.8650246  19.2456017
  63.0863419  53.6604080  19.4171619  86.3415833  37.7139206  39.0646400
  85.8093033  36.9183884  39.0581932  86.6155167  37.8114243  39.9766083
  59.3099518  65.2900696   1.8401862  59.5409012  66.0840225   1.3579746
  60.1177177  64.7767944   1.8573891  54.6786575  18.2788639  62.9132805
  54.5038452  17.4367332  63.3333855  55.6330032  18.3237324  62.8546143
  73.7368088   8.5018349  42.0605507  73.0039673   8.9560108  42.4763603
  74.4408951   9.1500254  42.0421066   3.1285210   7.2373123  30.2757759
   3.5444450   8.0001135  30.6774883   2.1898000   7.4069648  30.3548489
  11.8020430   5.4820528  71.4558258  12.4797544   4.8120251  71.5452805
  11.1607113   5.2659059  72.1327286  60.2991219  52.6282043  32.7844849
  59.6757736  52.7820892  33.4944038  60.1765900  51.7073936  32.5535545
  73.5454254  17.5797424  69.4696274  73.2469940  18.0148563  70.2682800
  74.1188889  18.2198277  69.0481262  49.8327713  17.2537537  36.9728851
  49.2315979  16.5650673  36.6890984  49.3656464  17.7045517  37.6763115
  12.8857508  32.3187103  67.8620987  13.2004709  32.7997093  67.0967102
  13.6768799  32.1238098  68.3644562  51.0001259  45.6089325  85.4822922
  51.1732941  44.8764725  86.0736847  50.9811401  45.2137108  84.6107025
  65.4489136  49.4591103  54.5458565  65.5866394  50.4055328  54.5852089
  64.7784424  49.2869492  55.2069588  83.6987534  45.5629807  78.6161346
  84.4789810  45.1352501  78.9690247  84.0403290  46.2435837  78.0361938
   4.3710222  30.4849434   1.6196492   3.5960305  30.7591476   2.1099880
   4.4832025  31.1609802   0.9513502  51.8739319  16.3955421  44.7555351
  51.6268883  16.6561317  43.8682365  52.7867851  16.6706886  44.8405609
   4.8518171  36.2779655  65.8941803   4.0033193  36.7209702  65.8999023
   5.1652780  36.3724632  64.9947052  17.0873795  51.0004768  57.2733498
  16.2497349  50.5670433  57.4368057  17.5795269  50.3769150  56.7393150
  15.8826246  57.4075661  56.9794998  15.5687780  58.3117180  56.9949455
  15.9772482  57.2027397  56.0492706  47.6914215  55.5541077  31.5168343
  48.1117630  54.6965866  31.4520130  48.2386246  56.0432434  32.1312790
   8.1909494   1.5541570   0.9986243   8.8947077   1.8368782   0.4146509
   7.3868237   1.7979192   0.5401562  49.4497948  46.5333443   8.2111187
  49.6326294  47.4296532   7.9292774  49.3039818  46.6039543   9.1545086
   7.9831448  58.0181923  80.9756088   8.2660170  58.9175224  81.1411896
   7.5049596  57.7681084  81.7661972  79.4143219  71.7376099  87.2774124
  79.6080246  70.8033447  87.2008514  79.6662216  72.1046677  86.4300385
  17.8662434  56.8395309  41.0486488  17.5619087  56.2264442  40.3795128
  17.2628708  56.7136879  41.7809982  43.5850945  40.5450058   2.0884526
  42.8444061  41.0401726   1.7385669  43.4138260  39.6405067   1.8261918
  70.6872253  37.5759964  88.0040665  69.7576981  37.6157761  87.7790451
  71.0842590  37.0719795  87.2937469  66.7021942  37.9027443  58.1338081
  66.7715302  38.1415443  57.2094688  67.6067429  37.7614288  58.4131851
  72.8817139  55.2703438  46.3243217  72.5332870  54.4678612  45.9359169
  73.7606888  55.0318451  46.6188469  15.2870693  31.6235085  74.9616318
  15.1805401  31.2011032  74.1093063  14.3939753  31.8180771  75.2458115
   4.7742386  64.1262894   9.5780449   4.2476358  64.7620010   9.0934935
   5.5101099  63.9326019   8.9973459  49.0472717  63.3299370  77.4842377
  48.8076820  64.2566528  77.4897156  49.8315468  63.2820778  78.0309067
  10.0435104  18.8502026  65.7959442   9.4991274  19.3586483  65.1948090
  10.8625708  19.3423824  65.8518753  12.2595425  21.1234589  24.7437172
  12.6843624  21.9499302  24.9732933  12.9817047  20.5040474  24.6386337
  48.4141655  40.6336288  26.8610783  48.6564751  41.2207222  27.5772057
  48.7225609  39.7723389  27.1426888  25.9182472  23.5398750  77.2841949
  26.0938587  22.5993099  77.2572021  25.1375999  23.6534290  76.7420425
  20.4225788  50.9648209  57.4815750  20.1040764  50.8324547  58.3744736
  19.7600594  50.5523567  56.9273453  57.9769554  52.3934135  25.7154045
  58.9276123  52.3005409  25.6533184  57.6310654  51.6259346  25.2598095
  52.6289558  31.8445358  58.5729790  52.5489388  32.7974205  58.6158867
  52.8301239  31.5804043  59.4707527   1.1050177  12.5685711  61.2847633
   1.5415809  13.3984661  61.4769020   0.2870331  12.6078796  61.7803307
  27.2854519  16.8976765  77.6291199  27.8013706  16.8627605  78.4346237
  27.9319687  16.8232460  76.9271851  57.6755943   0.5367189  82.2874146
  58.1985474  -0.2278560  82.0462112  57.8594894   1.1786950  81.6016464
  76.6802292  55.3902740  73.4482803  77.1254196  55.5822067  72.6229324
  77.0744858  54.5712357  73.7482452   6.6309576  14.1187572  56.2735023
   6.2941732  13.9716673  57.1573410   6.9090781  15.0346613  56.2725143
  71.8757782  66.9204407  33.4936523  72.4317093  66.1457291  33.4100494
  71.8253708  67.0784683  34.4363708  57.0932045  29.3830814  20.0141983
  57.7602234  29.9180222  19.5839024  56.4948273  30.0177231  20.4084091
  44.8621101  58.3763084  16.0181656  44.4906769  58.6844025  16.8448143
  44.6209106  59.0492744  15.3816338  39.3349152   5.9078164  45.3747482
  39.4484901   6.5419278  46.0827293  39.0421867   5.1089764  45.8133774
  66.7183075  55.5836678  63.4807472  66.0302658  54.9184532  63.4985580
  66.3473892  56.3247833  63.9597015  65.0417786  14.6273489  61.5813370
  64.7831039  14.1177425  62.3492050  64.7426834  15.5163975  61.7720451
  55.2998924   6.2284660  77.9438705  54.9340172   5.4162741  77.5935745
  55.2621765   6.1179695  78.8939285  72.5445633  29.1542549  81.1687241
  72.3242111  30.0013790  80.7813492  73.2458649  29.3501530  81.7900314
  21.1708221  64.4253998  87.2905426  20.6538582  64.3438187  86.4890900
  21.9946823  63.9810677  87.0904083  57.5324745   2.5857434  21.7710400
  57.9236870   3.2455852  22.3435707  58.0506363   1.7960999  21.9266052
  82.5974884  17.9167767  29.6996365  82.6657257  18.8329144  29.4308090
  81.6627502  17.7818851  29.8555012  50.4536934  68.9755630  45.7426529
  49.5932541  69.3068008  45.4854317  51.0328445  69.2300034  45.0242691
  15.9996138  35.4082756  17.3345184  16.8067303  35.7653465  17.7050514
  16.2933559  34.8463669  16.6174374   1.8194431  48.7529907  52.4316597
   1.0733857  48.7822533  53.0306396   1.5443574  48.1564980  51.7354164
  18.3461514  62.1143494  41.6206703  17.5613422  62.3288612  41.1163979
  18.1355858  62.3797531  42.5159111  36.2858467  29.7471409  29.0357704
  35.6047096  30.2234707  29.5105324  36.4174118  28.9470081  29.5444088
  73.3916626  63.7366829  39.0064774  73.2042313  63.5660095  39.9295006
  73.9461746  63.0050583  38.7354164  81.8271942  39.4643135   4.2721338
  81.4913635  38.5734863   4.1727610  81.9035873  39.7928009   3.3763144
  83.3119278  27.6199970  80.9237747  82.4343872  27.3563862  80.6468811
  83.1990433  28.5072250  81.2648239  57.8843307  34.8278503   7.2275519
  57.3003616  35.3288918   6.6581917  58.6468735  35.3941002   7.3464093
  70.1551361  29.9517822  48.8116798  69.3345795  29.5457401  48.5322990
  70.5168381  30.3351994  48.0126839  71.8690948  20.2535915   9.5562878
  72.5573273  20.2246971  10.2209187  71.0537033  20.2813587  10.0568933
  61.6131630  50.7101555  49.8023529  60.7387085  50.4222412  50.0643921
  62.1977768  50.3249054  50.4550705  44.1295929  47.7165108  44.1609535
  43.8032761  48.3380318  44.8116913  44.3038940  48.2505836  43.3859596
   9.8460503  22.5778255   6.7549119  10.1213980  21.7199230   7.0780492
  10.1629639  23.1951237   7.4142609  56.9030533  47.0909157   9.3174314
  56.6258240  46.2033958   9.5447702  56.3376579  47.6596947   9.8399754
  34.9389725  68.6285324  75.4771805  34.4117813  68.1071548  74.8718185
  35.2001190  69.3956833  74.9677582  70.7380600  33.8992348  33.9242096
  69.8806763  33.4837608  34.0164490  70.5766144  34.6604576  33.3667984
  62.0128403   9.0858860  75.3127747  61.8508759   9.9043474  75.7819443
  62.6541786   9.3177223  74.6410828  68.3736420  64.2403336   1.9730394
  67.9284592  64.3261108   2.8160594  69.2969666  64.3943329   2.1730132
  79.2548523   7.4705667  27.7745419  79.3708878   6.6988702  28.3288460
  80.0813446   7.9472370  27.8515434  47.8919640  43.1897621  22.4433308
  46.9663353  42.9891739  22.5819263  47.9273605  44.1456947  22.4090538
  72.4616623  39.5638351  30.1971359  72.2412186  40.2385178  30.8393497
  72.1046143  39.8926620  29.3721371  26.4236870  24.4025173  45.6559334
  26.6630363  23.7453156  46.3094101  26.4393005  23.9296608  44.8238297
  36.5723381  60.8271370  54.5263138  35.6670189  61.1182671  54.4173813
  36.5038376  59.8853912  54.6833305  34.4195213  65.9263840  28.9265175
  34.9772415  66.2908859  28.2392635  33.7943573  66.6241302  29.1228485
   6.2775235  63.2062569  79.0408859   5.7147331  63.9381027  78.7881012
   7.1094909  63.6151466  79.2793579  72.8481827  41.9331131   0.9175732
  72.3329468  41.2922935   0.4275576  72.8004532  42.7314377   0.3916138
   9.6892195  65.0201035  69.3805161   9.2187014  64.2292175  69.6438675
   9.8643761  65.4792862  70.2019196  57.8666954  40.0908241  72.4219971
  57.7244072  39.7173080  73.2917480  58.2193642  40.9644356  72.5912704
   8.6603088  30.7656670  85.1008453   7.9997082  30.6776505  85.7879333
   8.9310465  31.6827221  85.1449509  73.4045105  23.5503674  40.9648285
  74.0667267  24.0534363  40.4908867  73.1070023  24.1394520  41.6581535
  70.1860580  13.7170525  49.0701828  70.5813675  13.8797550  48.2137413
  69.9039764  14.5806112  49.3717232  33.3915482   4.5425262  25.4232025
  33.8095398   5.1291809  26.0535603  33.1908493   3.7536314  25.9267864
  70.4931107   0.9919470  74.2238007  70.6028214   1.2210466  73.3009262
  69.6440125   0.5517287  74.2620010  75.3017044  53.0310974   5.6135502
  76.1080780  53.4300117   5.9404449  75.3365860  52.1278458   5.9284272
  72.8446274   8.6760530  33.0818253  73.7214737   8.8376827  32.7336044
  72.8807068   7.7793732  33.4148369  24.8336468  61.9186287  87.8041916
  25.6111946  61.4032974  87.5895233  25.0774708  62.8196716  87.5922852
  31.9993343  52.4386292  14.9919643  31.9903603  53.0106773  15.7593708
  32.1648102  51.5649948  15.3463850  54.1854973  59.7039032  19.2114983
  53.5032349  60.2517929  19.5995255  54.9518890  60.2751999  19.1615334
  10.4780083   9.2471066  68.0861359  10.1148348   9.6970196  67.3232956
  10.2156820   8.3335619  67.9727554  77.8923264  44.4262619  70.8964767
  77.5276031  43.5462456  70.8027267  77.4001160  44.9574547  70.2705383
  66.1624603  58.3551903  32.4033432  66.3445816  58.8494225  31.6040955
  65.7791290  58.9978447  33.0002403   8.6338549   1.8712138  61.3905296
   7.6963906   2.0617185  61.3573570   8.6816444   0.9422892  61.6164665
  44.2154350  69.0218735  77.8252335  43.7585754  69.7964096  77.4972076
  45.0084534  68.9677658  77.2919159  75.9348679  39.5118561  61.9218941
  76.2410507  39.8333702  62.7699013  76.1034012  38.5699654  61.9478035
  14.1384468  26.0510540  37.0479736  14.0734787  25.3288784  36.4230957
  13.6351109  26.7600803  36.6477661  20.0273438  44.5647697  70.0987625
  20.8461666  44.6654205  69.6133423  19.7231541  45.4606972  70.2437134
  50.1765327  63.9851608  36.5031967  49.2195473  63.9736176  36.4865532
  50.4352684  63.3288765  35.8562164  18.5970230  41.7890053  68.5647354
  17.8287010  41.8678551  69.1301498  19.2936897  42.2383156  69.0432739
  52.3278236  12.8635044  10.1873531  51.8731918  12.1840487  10.6852303
  51.9123650  12.8471403   9.3251715  53.2080307  18.5918617  23.8321056
  53.0742264  17.6673565  24.0409489  53.3731842  19.0071526  24.6785641
  32.2104530   2.0791759  66.6744080  31.4761581   2.5007963  66.2280045
  32.9754944   2.5921810  66.4140854  86.4798508  45.0522118  52.2719879
  86.9842529  45.6658669  51.7379074  86.4392700  45.4634247  53.1354027
  41.0383682   7.6856165   8.6098051  40.8979988   6.7705059   8.8529129
  41.9900589   7.7877526   8.6007223  51.9339676   3.7351034  50.5174789
  51.0353508   3.6563442  50.8376617  52.3615761   4.3179412  51.1449242
  73.9765015  43.8063316  42.7234421  74.8485794  43.8091431  43.1180458
  74.1132507  43.4572105  41.8427353   4.4493256  61.5136833  61.9078827
   4.4475904  62.0041733  61.0859032   5.1751204  60.8962975  61.8168564
  85.4596100  38.3789062  51.1635857  84.5925827  38.5046120  50.7779808
  85.3752136  37.5828590  51.6883888   4.6031513  13.7259550  70.1105881
   5.2800255  13.7752619  70.7856064   3.7846990  13.8877211  70.5798416
   8.3858480  71.3757629  56.7759361   8.4592581  71.8895111  57.5802422
   8.0248566  70.5360565  57.0602036  58.4051208  60.8796005  20.2145863
  58.6478767  61.1789551  21.0907650  59.2161789  60.9350433  19.7092724
  56.6494942  16.6007748   9.7698479  56.0617332  16.9012566  10.4630127
  56.3045959  15.7441263   9.5179968   2.8000100  13.3806477  58.5952759
   2.7333367  13.8386469  59.4331436   1.9237715  13.0254221  58.4461021
  52.6881485  42.2025223   9.4385300  52.1807632  42.3049355   8.6333580
  53.5900612  42.3905182   9.1788273  82.5020294   0.6665741   3.8718054
  82.7800446   0.8846676   2.9822140  83.2931213   0.3328810   4.2949471
  37.2926025   7.9352813  31.8884411  38.1800766   7.7361088  32.1866875
  37.3306808   7.8321753  30.9375744  18.2859917  39.4072304   3.0594430
  19.1386776  38.9914513   2.9318342  17.9681244  39.0519905   3.8895001
  69.2521591  32.0873985  40.1481133  68.6405411  31.6133156  39.5847244
  68.7362595  32.3186264  40.9205246  41.1425056  59.1057472  58.9987946
  40.2066917  59.3002090  59.0504913  41.3107185  58.9847374  58.0642929
  59.0308533  34.3951683  30.4663601  59.4221458  33.5282822  30.3585167
  58.2219810  34.2340889  30.9521732  81.7586441  31.6845436  67.0361557
  81.2546310  31.5086880  67.8306808  82.3957214  30.9713993  66.9938965
  60.1129570  32.6992760  68.7142944  59.4550819  32.1703873  68.2629471
  60.8327866  32.0918312  68.8848343  26.8846474  57.7302055  84.6213608
  26.4982567  57.7985535  85.4944382  26.6642685  56.8452873  84.3305206
  36.0971031  10.9376049  44.3037415  36.6424713  11.5752411  44.7644196
  35.6197128  10.4843283  44.9986267  42.0307999  66.3485107  38.6458549
  41.7725563  66.7960052  37.8400688  42.3461494  65.4930878  38.3542480
  55.5662193   6.4529042   8.4236183  55.6782608   6.0409842   9.2803564
  55.0591888   5.8183112   7.9172153  33.2567101  46.0976143   5.6179347
  32.7135620  45.4537201   5.1633787  33.2137070  45.8398781   6.5387788
  85.8767090   1.2938435  69.5720978  86.1937561   0.8387120  68.7919922
  85.6584244   2.1734524  69.2640839   5.7373104  61.5886803  72.0035172
   5.6458783  61.3938446  72.9362106   5.0830808  62.2668381  71.8352432
  16.9868908   2.5895693  73.2730179  17.0943470   3.5100067  73.0332718
  16.1014385   2.5375988  73.6328888  12.4476404  31.0868721  35.6605148
  12.9273510  31.8964062  35.8359146  13.1275110  30.4174900  35.5834694
  61.5863876  42.1151657  20.1948605  60.8432961  42.2641716  19.6101856
  61.2407494  41.5438080  20.8806553  85.2277985  17.0379982  48.6368790
  85.5594711  16.1657467  48.4238129  84.3247223  17.0349445  48.3195839
  72.2595367  59.9441223  48.7867699  71.9203720  59.7163162  49.6523933
  72.7792511  59.1839485  48.5255013  25.3992367   3.9333148  67.0916672
  25.0290222   3.1682553  67.5319595  25.0926304   3.8611569  66.1877747
  50.7805061  13.6830969  20.6882858  51.4307899  13.5242805  21.3724937
  51.2858849  14.0312300  19.9536953   7.0917277  58.5842056  66.4712296
   6.6215620  59.2558823  66.9652176   8.0158768  58.8060951  66.5849991
  59.5864029  34.4275398  41.0831947  59.9821434  33.8604813  41.7450562
  59.6826439  35.3117905  41.4368553  85.5905533  61.9390068  51.3305092
  85.2342606  62.1204643  52.2001953  85.9454193  61.0525246  51.3972397
  20.9004593  43.5452080   2.1043446  21.2208786  43.0372009   1.3590322
  20.3158474  42.9462929   2.5688422  43.9747543  49.7647400   7.7740364
  44.0360107  49.8153572   6.8201404  44.0034103  48.8275261   7.9664874
  30.1679077  71.2467651  53.5650635  30.0912876  70.3300705  53.8296967
  30.0111599  71.7420502  54.3690224  15.7299414  56.7210007  54.2389221
  16.0626507  57.2662010  53.5259743  16.3386841  55.9834862  54.2805824
  51.9241486  36.7689896  13.4975052  51.0294685  37.0738678  13.3464012
  52.2120972  37.2473564  14.2749901  45.5270844  21.8620491  27.5742340
  45.5400505  22.5746765  26.9353085  44.6660614  21.9264507  27.9874172
  21.9076939  30.1504402  15.8329563  21.0904350  30.0005951  15.3577013
  22.3329124  29.2931404  15.8544388  50.4361038  18.2677460  76.1036148
  50.3711090  18.2892113  75.1488647  49.8606567  18.9734135  76.3987808
   4.9241815  40.1875153  62.3825836   5.2467766  39.5468483  63.0163879
   5.6174541  40.8456764  62.3332825   3.7088528  28.0382404  16.3752975
   2.7695694  28.1534882  16.5191612   4.0919013  28.0768833  17.2516613
  76.4685211   3.4051957  44.2377434  77.0889969   3.5997233  44.9401703
  76.8335648   3.8416898  43.4680328   6.3036423  68.9966736  40.2699890
   5.6698990  69.4453583  39.7102699   6.1203623  69.3249512  41.1502571
  11.7543888  60.7732658  47.1658783  11.5065422  60.1447182  47.8439140
  10.9213190  61.0858536  46.8130112  82.5391769  26.6727600  38.4790421
  81.6557007  26.6310196  38.1130371  83.0625000  26.1122723  37.9061394
  39.8511543  67.8522949  18.8691216  40.2425346  68.7000198  19.0798893
  38.9098091  67.9903183  18.9742508  79.5242310  37.2684250   5.4367037
  78.9495316  36.5684509   5.1268930  80.1429825  37.4054451   4.7193413
   5.7731671  47.0915108  36.3678703   5.7573662  47.6815491  35.6143188
   5.7167478  46.2151299  35.9870758  10.7738438   5.1377316  28.5246544
  10.2522993   4.7869129  29.2465630  11.5134830   4.5349340  28.4484978
  73.1024780  22.2777290  12.1263142  73.0397034  22.6138191  11.2322588
  73.7811356  22.8137589  12.5365963  72.1645355   2.9256830   7.6865659
  72.7531967   2.7611902   6.9499164  71.2927933   2.9625499   7.2929420
  18.0640717  17.6264992  73.4144516  18.2747593  16.7181530  73.1982269
  18.9153290  18.0500717  73.5248032  36.0269547  48.0343857  11.9494009
  36.2413063  47.1455994  12.2328453  36.8727570  48.4794083  11.8963814
  10.3505821  41.4708176  87.4276733   9.9909716  42.2200699  87.9025803
   9.6940956  41.2731247  86.7597122   8.7971640  54.8462143  10.9930639
   8.4176159  55.6183319  11.4126024   8.3378191  54.1069832  11.3915224
  12.0172434  15.6062441   7.1329212  12.8271847  15.9789982   6.7846661
  11.4318676  16.3569069   7.2332859  54.9484482  56.9979401  62.2062492
  54.6683273  57.4121895  63.0224380  54.9620705  57.7111893  61.5680313
  81.9338226  27.6814327  59.5091782  82.7673645  27.2495308  59.6959763
  82.0568008  28.0762234  58.6459007  17.3198605  15.4917679  87.0862656
  16.8578568  16.1078053  86.5176849  17.9002647  15.0105715  86.4965134
   2.5190670  38.2783470  14.1599379   1.9976939  37.5869904  13.7519817
   1.8761195  38.9304924  14.4384232  69.1809769  15.8449173  24.7313061
  69.3249893  15.7676115  23.7881641  68.5817184  16.5857716  24.8221607
  39.1285439  30.6698875  81.3257065  38.9150772  29.7524643  81.1554108
  39.6310883  30.6516685  82.1401672   0.3048217   7.7569375  30.9013958
   0.2736312   7.6385679  29.9520550   0.2333742   6.8706193  31.2557487
  27.7219963  32.5086708  14.8420486  27.2168064  32.7775612  14.0747719
  27.4375591  33.1029816  15.5363998  47.6293488  36.7407646   6.8327656
  47.7874374  37.6298981   7.1500640  47.7133675  36.8074150   5.8815928
   5.9597144  54.7554741  11.9801207   6.3798175  53.9723892  12.3358231
   5.0476737  54.6872368  12.2625332  37.1638947  63.0841675  81.6572723
  36.8811493  63.8482246  81.1547699  37.8779907  63.4090424  82.2056885
  72.6956635  69.8228683  49.3179283  73.0461426  70.3089218  48.5714989
  72.9726791  70.3266907  50.0832138   9.2381239  66.1680679  36.3910675
   8.8563509  66.1763382  37.2687988   9.0758076  67.0479660  36.0509758
  24.2518883  22.8805714  25.2998981  23.7145767  22.3002758  25.8391418
  24.9270306  22.3096962  24.9331360  36.9716034  36.4919701  13.4060240
  36.3876648  35.7730789  13.6477766  37.8489990  36.1650543  13.6048613
  69.3539276   9.0632353  22.5651321  69.7897415   9.0898743  21.7133141
  70.0627136   9.1663704  23.2001286  39.9448280  58.5898209  30.1952915
  39.6581306  59.1320572  30.9301491  39.2842293  57.8997650  30.1347618
  63.4374466  62.8154449  55.2992287  64.3496780  62.8369789  55.5883636
  62.9438820  62.5700645  56.0817986  50.2105904  69.9363403  11.8154898
  51.1565971  69.8381729  11.7075005  49.8429909  69.1318130  11.4496546
  29.6791439  10.8446264  19.1626072  30.2665596  10.1173220  19.3680401
  28.8712559  10.4241533  18.8680706  84.2049484  21.1664925   0.5419943
  84.2305222  20.4491062   1.1751865  83.6100845  21.8078632   0.9306051
  46.4197159  32.2293587  80.6604080  46.5621605  33.0742569  80.2336960
  47.0238228  32.2311516  81.4028931  60.3927116  18.6845493  53.2723274
  60.2709465  19.3061523  53.9899673  60.6695747  19.2245712  52.5320854
  85.7485962  39.1743698  82.6076431  86.2961578  39.0197144  81.8379135
  84.8559189  39.2076340  82.2637863  74.1438370  38.1076317  33.0149002
  74.4913483  37.5757332  33.7308273  73.9256897  38.9455147  33.4230690
  66.1323547  56.9305305  70.2088318  66.5312424  56.4415474  70.9285660
  66.8591232  57.4139175  69.8159256   9.9010878  62.2575836  72.1204834
   9.6704359  61.9432716  72.9946899  10.6689186  62.8118210  72.2600937
  33.1210327  53.9757652  88.6245728  32.8536987  54.7776184  88.1753540
  32.3027000  53.5967369  88.9453583  19.2634869  54.4570160   1.3469645
  19.7108116  54.7112465   0.5398098  19.1457367  53.5104103   1.2675890
  70.6159286  40.2270241  38.4638481  71.4787369  40.6074753  38.2994156
  69.9987488  40.8984833  38.1732140  55.8001404  37.6982765  80.5293121
  56.2042694  37.4766541  79.6903839  56.1082916  38.5849075  80.7168121
   6.3973322  35.3346138  35.1939507   7.2500615  35.6831512  35.4539604
   5.7638011  35.8727150  35.6686249  24.3431511  24.0701408  87.5774765
  23.6131058  24.4820709  87.1153336  25.0982323  24.6214371  87.3721619
  56.7513962  36.8435822  25.3290577  56.4423523  36.8215675  26.2347279
  57.7021942  36.7574081  25.3982658  63.2240753  68.6003189  65.1164093
  62.6040726  69.2901993  64.8799896  63.3753090  68.7249908  66.0533218
  11.9136877  44.0159187  19.1827297  11.2622070  43.5396423  18.6679821
  12.7505159  43.7937202  18.7745914  48.2534370  34.0277672  58.6560402
  48.3645592  33.2807846  58.0679092  48.1417198  34.7778854  58.0720253
  26.4619465  56.1776085  22.8533440  26.2452183  55.4311256  23.4119339
  27.4171467  56.1625252  22.7933693   0.7619049  24.6994076  59.8225784
   0.1080275  24.0626793  59.5340424   1.5456356  24.1771431  59.9935684
  45.0936165  35.6647987   7.0065494  45.2070885  34.8317223   7.4640813
  45.9722366  35.8928680   6.7028341  74.9304581  58.7279892  66.1629486
  74.8418961  59.4923210  65.5935745  75.3245850  58.0577927  65.6046143
  49.2861671  56.7154160  87.5685425  48.8074722  56.0549316  88.0693893
  48.7943459  56.7995491  86.7516785  83.9458771  33.9193687  61.3665161
  83.2317429  33.9394379  60.7294579  84.0317230  32.9953232  61.6010475
  43.2148933  64.1399460  15.5837097  43.5560188  64.9779358  15.8961840
  42.4265404  63.9924583  16.1061840  71.1029816  31.9217300  51.3518867
  71.9076462  31.7475014  50.8636284  70.5425186  31.1682072  51.1666489
  58.2269821  33.7122917  20.8950081  57.5482216  34.2275085  21.3309784
  58.2747536  34.0777626  20.0116158  10.2769527   1.2574574  79.0297089
  10.0764933   1.8740453  78.3255310  11.0497561   1.6258399  79.4578476
  65.1958923  69.4451447  50.0117416  64.8425064  68.6318207  50.3721008
  66.1297226  69.4133530  50.2195511  63.1558800  13.0595932  60.0114861
  63.7990913  13.4053659  60.6303177  63.1628036  13.6832275  59.2853584
  65.6682892  24.2968159  75.5797272  66.0367584  24.9656105  76.1569366
  66.3963928  24.0419617  75.0130310   2.3649783  19.1569386  18.6619434
   2.1797242  20.0817394  18.4986839   2.5980139  18.8041191  17.8031979
  84.9683990  22.0350533  87.3119965  84.3517151  21.8797550  86.5965805
  84.5880585  21.5748825  88.0602036  82.9939804  55.9807892  17.4918041
  83.8290558  55.6893196  17.1258316  83.1144409  56.9176064  17.6470165
  63.4608574  64.7643738  82.2028427  63.8179398  63.8762932  82.2094650
  63.7489929  65.1321487  81.3674088  70.3438950  57.8440399  33.4107018
  69.7063522  57.1374435  33.3082657  69.8157730  58.6149178  33.6182404
  48.1459312  25.8032703   1.8069558  47.5755959  26.3330364   2.3639977
  47.5461464  25.3374958   1.2242529  56.9431801   5.0982814  13.4606285
  57.5138016   5.8280816  13.7014885  57.5417900   4.3682971  13.3024511
  83.8068695   8.1119843  48.3907852  84.5165634   7.5574131  48.0667229
  84.2480316   8.8879118  48.7365341  43.2887268   2.5052645  47.1717529
  42.3388252   2.6104360  47.2252312  43.6302681   3.3991988  47.1932907
  71.0419159   0.0233417  78.0731812  71.6706772  -0.2038787  78.7582016
  70.2941055   0.3885920  78.5460510  52.5937729  70.8509674  45.3140869
  52.5197372  70.3104553  44.5275803  52.8049011  70.2307587  46.0119362
  71.4992447  44.0600929  31.3653908  71.2349930  44.7221985  32.0041542
  70.7324371  43.9502716  30.8030949  79.1829910   9.7214041  35.2212486
  78.2548294   9.5151043  35.1108131  79.1911392  10.6209335  35.5483742
  82.0616989  50.3653259  83.0579758  81.9792786  49.5238724  83.5067520
  81.2167740  50.4900398  82.6257858  57.1300888  39.5076752  81.8860321
  57.2182503  38.5706596  82.0605621  57.2763176  39.9242897  82.7353134
  60.4953384  56.7013206  23.5105629  60.0727005  56.2956238  24.2675438
  59.7772446  57.1050453  23.0231457  48.9989662  57.4298897  23.2584934
  48.8859978  56.4794006  23.2516975  49.6254349  57.6016579  22.5554523
   1.4415179  27.8803883  73.2313919   1.8909175  28.6151447  73.6490097
   1.3680595  27.2210922  73.9214401  35.4625893  27.5662308   1.4865212
  36.1542091  28.2004108   1.2975497  34.7004471  28.1016502   1.7071921
  68.2287445   4.9618201  33.8855095  68.5645523   5.5340295  34.5754662
  68.8208466   5.1041546  33.1470032  76.8747940  48.4631042   7.5976028
  76.5727768  48.9157867   8.3850603  77.3294525  47.6876831   7.9266071
  84.9200211  54.5163689  81.4526596  84.6731415  55.4353638  81.3490601
  84.1809921  54.1204338  81.9145050  41.3610344   7.4650469  37.8744164
  40.9488220   7.4013176  38.7359581  40.7574272   8.0001497  37.3590927
   4.3616953  65.0227814  46.0222549   3.6521621  65.3290405  45.4574585
   3.9262655  64.7621765  46.8338699  85.3695908  36.0594826  52.3262634
  86.2530060  35.9319305  52.6719933  84.9247055  35.2285919  52.4933739
  33.0398216  40.1407433  82.7476730  32.6562843  40.5467911  81.9703369
  33.3706093  40.8760834  83.2635040  55.5256004  28.4764042  25.7437935
  55.3839226  28.4638062  24.7972202  54.6493225  28.3865223  26.1183472
   5.7766938  49.1268158   9.2592268   6.3537884  48.9917183   8.5075998
   5.0727401  48.4895935   9.1382885  46.1007423  52.3308754  52.9114227
  45.4998474  51.6926994  52.5268669  45.8348618  53.1687469  52.5325928
  21.9801292  36.9547119   8.9869595  22.3024101  36.2277641   9.5197935
  21.0609875  36.7430420   8.8238478  13.7116737  63.7155800  16.7480907
  12.8049374  63.7589073  17.0517082  14.0415602  64.6082535  16.8507996
  71.3417740  28.3797054  44.2120323  71.1901474  29.2247066  44.6353683
  72.2304535  28.4431648  43.8621025  22.2506905  52.0689240  33.9899940
  22.5001373  52.4941978  33.1695366  23.0827618  51.8323936  34.3998032
  32.0717926  56.7566757  56.3848457  31.5698147  57.3886337  56.8995094
  31.4415684  56.0694618  56.1685333  68.5316086  43.8384056  81.5028534
  68.7508469  44.7531357  81.6801376  67.6365128  43.8677940  81.1649551
  28.6903057  10.7876854  62.4816437  28.5936966  10.3051329  61.6606407
  28.1983109  11.5969934  62.3431015   5.3284516  49.2154694  44.6805458
   5.3035464  49.4992027  43.7667007   4.7955565  49.8600883  45.1460838
   4.5583005  65.8759384  39.2166100   4.1613383  65.0060577  39.1723328
   3.9165931  66.4533768  38.8030815  13.7090340  29.7223549  77.7170563
  14.3458948  29.0279064  77.8855209  14.0381813  30.4739304  78.2100372
  17.9799690  54.2852402  51.4844818  17.9676189  53.4929771  50.9474564
  18.7618427  54.1933517  52.0289650  59.7436447  46.1055489   2.3163786
  60.5736313  46.4069710   2.6858358  59.3303566  45.6134453   3.0257864
  36.1608315  62.0542336  26.4497223  36.4755249  61.2508583  26.0352497
  36.4910889  62.7574501  25.8905716  69.4869232  54.4349213  31.0364017
  70.3958817  54.2903671  31.2993298  69.1567535  55.0807762  31.6609745
   1.2746953  36.4915543  10.6933479   1.8742409  36.6432419   9.9627542
   0.4104107  36.7063675  10.3424921  53.6398888  35.8680840  65.5783691
  53.8557091  35.1474457  64.9864807  53.2358017  36.5279884  65.0149231
  45.2333794  42.7078171  22.3941936  44.8729477  43.1388550  23.1691303
  44.8734360  41.8213730  22.4239979   7.5645504  69.5150452  28.3287907
   7.3265848  70.4421921  28.3292332   7.6696153  69.2951813  27.4031277
  77.2389221  54.3652878  59.6005440  77.5611725  54.7151527  58.7698898
  76.2872009  54.4497261  59.5428925  31.4393139  60.6186028  30.2718964
  31.6529121  60.3726006  31.1719456  31.7371998  61.5249481  30.1942043
  85.3970184  45.8551025  42.6215858  85.5842438  45.3181076  43.3915329
  86.2341537  46.2669334  42.4074898  64.9645538  44.1881218  59.7948914
  64.2953644  44.3404770  59.1276550  65.4195557  43.3985977  59.5018806
  81.7422485   0.1832117   8.4677877  81.9771194   0.8874761   7.8635669
  81.5572586  -0.5662236   7.9017878  24.3845024  10.2970695  49.7401009
  24.6685066  10.7282534  50.5461121  23.7100945   9.6797581  50.0235329
  28.2770329  63.8497543  71.2035904  27.9291267  63.4780350  70.3930283
  28.2728329  63.1199379  71.8229294  62.8587265   8.0763807  83.7668381
  63.0214233   8.9953098  83.9797440  62.7532234   7.6486807  84.6166458
  25.2296124  30.0120392  85.2804565  24.7358723  29.2087708  85.4454193
  26.0945358  29.8424835  85.6538086  14.5796556  11.1634760  80.7849045
  14.5118961  11.2109747  79.8312912  13.8235359  10.6413450  81.0530319
  78.4282379  25.6384716   5.5008140  78.2215271  24.7287369   5.7150178
  78.5041428  25.6485748   4.5466814  25.7380180  62.6685715  54.9968948
  26.1362514  62.2917442  55.7815208  26.4746685  62.8254395  54.4061546
  29.1029358  62.8414268  86.3692551  28.3689938  62.9780807  86.9683228
  29.8511028  62.6720810  86.9417877  63.8896980  59.1394730  28.1411114
  64.0288315  58.2499733  27.8160534  63.6063957  59.6339455  27.3720417
   2.0655749  65.7203674  77.6987000   1.6406605  65.7694397  76.8423843
   1.4434528  65.2431946  78.2477875  81.0514832  20.1068287  60.7032776
  80.2451248  19.6838531  60.9984131  81.3829041  20.5585556  61.4793777
  37.6388817  43.4630356  10.1643906  37.5844345  44.1195831  10.8588037
  37.0360909  43.7768288   9.4902916  59.1850548  30.1449604  81.0222931
  59.2166748  29.1924801  81.1118164  60.0760155  30.4337959  81.2197647
  56.0203133  61.6580124  19.1455021  56.0902901  62.4747124  19.6398087
  56.7666321  61.1355629  19.4392490   1.7911676  65.5788956  13.6484480
   2.3130054  66.3641815  13.8134861   0.9740552  65.9085388  13.2744255
  23.7458668   3.9249346  65.0244980  24.2326164   4.6435857  64.6209564
  22.9765224   4.3437257  65.4104462  47.9138985  39.6249161   7.1063857
  48.7635422  39.9874001   7.3572803  47.6243629  40.1749420   6.3784609
  85.1131973  19.8331394  68.1052246  84.7128754  19.4864368  68.9025726
  85.8895493  19.2895222  67.9710999  74.6272888  11.8201618  34.0064964
  74.3437958  12.0371933  33.1183739  74.6849594  12.6650372  34.4526939
  69.8451462  35.8300056  61.6636353  69.1279831  35.3398438  61.2615852
  69.4699631  36.6895142  61.8552399  63.0681152  66.4659805  45.9489555
  62.5996284  66.1529770  45.1751442  62.7719193  65.8930969  46.6562805
  80.2227020  31.4378700  39.0614929  80.1780930  32.0712585  38.3452110
  80.2797775  31.9741974  39.8522682  64.6031570   6.6673384  76.8901138
  64.6301804   6.1091642  77.6672516  63.8174553   6.3867497  76.4208908
  73.1087723  17.6464863  49.8959770  73.9425964  17.4821968  50.3364143
  73.3467865  17.7976646  48.9812508  19.7146244  41.7484093   4.1853628
  20.4429512  41.3756104   4.6821437  19.3170242  40.9980316   3.7436833
   8.0304918  58.4463310  87.1013947   7.2271757  58.0088654  86.8193741
   8.0908623  58.2560272  88.0375443  54.9062996  68.6186600  34.6210747
  55.5998650  68.8545837  34.0050049  54.3454590  69.3934402  34.6585159
  71.4864502  63.7094116  55.7312393  70.6864777  64.1803894  55.9645920
  72.1395569  64.0216904  56.3574677  60.4720955  48.5732307  19.8658867
  59.9180450  47.8537025  19.5633335  61.0507507  48.1733093  20.5150795
  24.4002151   9.7274284  85.8931656  24.2692451  10.6180830  85.5678711
  24.6844807   9.2314272  85.1254349  52.3663635  32.6279449   0.2255753
  53.2150307  32.2012672   0.1075027  51.7946625  31.9360695   0.5582957
   7.4516830   3.1599758  14.0394888   7.5673270   3.6111631  14.8757229
   7.5717683   3.8433022  13.3800373  27.5305061  56.0680389  81.2329102
  27.1132126  55.6267509  80.4930725  28.4442577  55.7853203  81.1960373
  85.5140686  52.5790443  79.7059860  85.4305649  53.1585388  80.4632416
  86.0735779  51.8649635  80.0113831  68.1607132  55.2808571  77.2754669
  68.5919800  56.0552063  77.6368790  68.5161972  54.5504646  77.7818069
  57.4590836  12.9530525  85.1899338  57.5500641  12.0495996  84.8870697
  58.0355453  13.4573307  84.6158066  72.7199554  20.7711563  67.8996811
  72.0493393  20.1101093  68.0715027  72.7420425  21.3024445  68.6955872
   1.4157169  35.7680244  65.3555145   0.5295497  35.7098389  64.9983673
   1.9680407  35.9552422  64.5964890  72.0269623  17.0196877  79.6366730
  72.3284836  17.8995972  79.4106750  72.7463531  16.4452724  79.3744507
  18.2027512  47.8786392  66.6906128  18.2932224  48.3242760  67.5328979
  18.4297104  46.9674339  66.8761444  19.7459812   9.2634821  67.2426682
  20.4457531   9.6399193  67.7763748  19.1714287   8.8288975  67.8729477
  46.5803795  38.0118790   0.8009332  46.6425133  38.9362984   1.0413852
  45.8428421  37.9718056   0.1921125  19.5142574  20.2445946  71.6305847
  18.9660225  19.7817135  70.9970093  19.0380421  21.0547218  71.8126373
  84.2148056  34.9280853   2.3531296  83.8344879  35.1079445   1.4933383
  85.0451813  35.4042206   2.3520739   7.1319017  39.8081970  29.4044151
   7.4688287  39.9815025  28.5253944   6.7308507  38.9414101  29.3406143
  39.7031326  56.8808136   5.4637651  40.0213890  56.2738609   6.1320100
  39.2220345  56.3281631   4.8478508  51.8044891  52.3638115  74.2718277
  51.4588585  51.7198906  73.6536560  51.4782486  52.0763283  75.1245651
   0.8205239  23.9126358  77.3936005   1.4906905  24.5936127  77.4517365
   0.0848109  24.3376389  76.9527740  39.4902954   5.7646842  36.4703407
  39.7696686   6.1523480  37.2997398  39.9926987   4.9526153  36.4042587
  81.5688324  29.9343052   0.8887573  81.1115189  30.0328026   0.0536539
  82.4716873  30.1893654   0.6989580  82.7027588  45.9323463  69.1692734
  82.4948425  46.3077126  68.3136444  82.1303253  45.1685600  69.2412415
  69.5235443   9.8382263  72.2233505  68.9789352  10.1918068  71.5200653
  69.0171509   9.1049690  72.5728302   7.6749153  54.5217094  83.2106323
   8.5858088  54.2941284  83.0243225   7.7017641  54.9269791  84.0773926
  85.1752853  49.3872414  39.6289825  85.6842041  48.5778542  39.6751175
  84.2636337  49.0961533  39.6092873   9.7904263  35.5647736  50.4872246
  10.1062717  36.3481445  50.0368919   8.8443336  35.5700340  50.3419151
  83.8030624  49.2029953  45.1143723  84.6469421  49.3261337  44.6797028
  83.8574295  48.3284187  45.4995880  41.4583435  66.5721664  55.2214584
  42.1167297  66.1229782  54.6913757  41.2159386  67.3392944  54.7028198
  33.3928566  57.1265717  83.6462555  33.7152710  57.9383774  83.2547913
  33.5419807  57.2377205  84.5852127   0.6758769  62.9804344  28.8894978
   0.1861103  63.0053596  28.0674648   0.3690254  62.1863670  29.3271389
  22.1884441  12.7218390  35.3110733  21.3028889  12.5044594  35.0199203
  22.6964741  11.9274750  35.1463814  66.4818344  21.3949547  63.1301651
  66.2807693  21.5929909  62.2155151  66.3354034  20.4523048  63.2089119
  12.7674141  65.1180954  40.6898193  12.9257202  64.4202881  40.0540276
  13.6381273  65.3497162  41.0129929  23.6006107  66.4514694  59.6633720
  23.0829067  67.1205215  59.2155037  24.3257408  66.9349060  60.0592422
  34.9206734  52.4235229  71.6859665  34.8173294  52.0873489  70.7957230
  35.8424835  52.6753693  71.7413864   2.6508319  62.2937431  78.0730209
   3.1484439  62.9853249  77.6367493   3.2964411  61.6097183  78.2505798
   6.0526557  59.1392937   0.2692016   6.8223076  58.8714523   0.7713259
   5.3418579  58.5986519   0.6137393  40.0303802  16.2231045  45.1229553
  40.4393349  15.5301847  45.6414642  39.7610207  15.7891970  44.3133850
  33.6199570  57.1121902  30.7986469  33.9492531  57.9877472  30.5956821
  32.6859398  57.1540680  30.5934982  17.0358467  57.3525391  64.4332581
  16.1261978  57.5809402  64.6245728  17.1787605  56.5282898  64.8984680
  52.8910789  69.1941757   0.5227335  52.9751625  69.3220825  -0.4221483
  51.9596901  69.0204391   0.6589683   2.6477227  20.8443928  28.3971729
   1.8932306  21.3666687  28.1247749   2.5931938  20.8249798  29.3526211
  86.0300064  33.2358932  31.8452568  86.6903534  33.6637917  31.3002148
  86.3108902  32.3218613  31.8886108   3.6908576  44.6797523   7.7894244
   3.4070249  45.4932518   7.3724256   3.2833180  43.9883499   7.2677860
  50.2075195  68.6587601  28.7629604  50.5471687  67.7671356  28.6862698
  49.9271660  68.7306137  29.6753578  38.3811455  10.9469252  18.6014652
  37.8806152  11.7128649  18.3203335  38.5466423  11.0973625  19.5321712
  42.9664230  60.5842628  27.8994083  42.0366783  60.3754578  27.9899654
  43.2094498  60.2292747  27.0443325  77.4681168  19.7088604  38.6637955
  78.1437912  19.6254463  37.9909325  77.2925720  20.6486034  38.7117424
  84.8084488  51.0973206  73.5352859  84.5981293  50.2802391  73.0832062
  84.8043823  51.7607231  72.8452759  46.6268120  56.5185814  72.3857574
  47.2322083  56.6140785  71.6504974  47.1930542  56.4364891  73.1531372
  50.3803329  44.2236519  27.8155823  50.8783913  45.0319901  27.9370461
  49.7916222  44.4125710  27.0848560  64.1695099   4.2048306  78.0749588
  64.5613174   3.7303717  78.8081741  64.2633438   3.6125524  77.3288803
  70.5001984  24.0182209  27.4690437  71.3851318  23.7812080  27.1916561
  70.5328674  23.9884262  28.4252224  18.5696125  54.5130386  63.1673355
  18.4974766  54.6343231  62.2205925  18.7247467  53.5749397  63.2774963
   2.8828101  38.1426544  65.2502441   2.0568755  38.5950966  65.0788956
   3.3246479  38.6887589  65.9004593  17.6010685  24.1797886   9.0544024
  16.7227249  24.5182705   9.2281055  17.6353378  23.3485031   9.5277119
   5.6906896  45.9344025  67.5207825   5.8342152  45.0227165  67.7746658
   6.4055581  46.1296959  66.9149246  62.6673431  29.9876366   7.5299988
  63.0759888  29.9032001   6.6685386  61.7322807  29.8674450   7.3643513
  31.4168873   3.7545240   0.6666912  31.7768116   3.3712347  -0.1331687
  31.3086758   3.0116861   1.2605884  38.1270065  58.9698830  19.9335861
  37.8565979  58.0614281  19.8001060  37.4073792  59.3640137  20.4265671
  58.0760803  64.3590393  14.0233898  57.2427406  63.9451714  13.7986946
  57.8543854  65.2780991  14.1731195  17.8222809  56.7795143  46.1141930
  16.9393177  57.0020676  46.4092827  18.1970367  56.2770271  46.8375854
  23.4127541  41.1396904  27.0548878  22.8348122  40.4444733  26.7404194
  22.8290882  41.7521362  27.5026283  62.8383865  60.3922729  44.8162575
  61.9736824  60.0416374  45.0297356  62.9815292  61.0854454  45.4606590
  67.2686920  29.2180939  10.0633106  67.4959259  30.0323315  10.5123272
  66.3460236  29.3222408   9.8308048  73.4463654  46.0096550  18.4321537
  73.9713974  46.3272057  17.6974869  73.2214813  46.7989998  18.9246883
  80.1761398   4.9181314  64.9017410  80.3075333   4.5271401  64.0379715
  79.9703598   4.1769133  65.4713745  20.5574913  66.0541382  16.0907021
  21.5074921  65.9370575  16.0957184  20.3295288  66.1228561  15.1635876
   1.7956626  13.4452581  33.8007317   1.0504084  13.5760517  33.2144547
   2.4481213  14.0796328  33.5039177  59.0492096   4.7948880  55.4258499
  59.4799385   4.9853930  56.2591629  59.7021446   5.0176444  54.7623100
  19.0112286  26.5207691   1.6226771  18.1621666  26.4570141   2.0600109
  18.8355408  27.0303211   0.8316504  42.2462807  64.9503860  43.8377113
  42.6540451  64.5589218  43.0652390  42.8786659  65.6034851  44.1373444
  23.2995052  31.3172989  55.5585403  22.7803917  32.0667534  55.2668686
  23.1669579  31.2883453  56.5060768  35.8211174  70.7263412  18.9909573
  35.6302261  71.3319092  19.7072544  36.6312408  71.0595551  18.6050854
  79.8124695  40.0787506  68.7315369  79.5668640  40.6569633  69.4537354
  80.5711060  39.5955353  69.0589600   7.9520187  41.2695274  43.4751358
   7.3955517  40.8592644  42.8131218   8.6103621  41.7481728  42.9714394
  45.0333099  64.5096436  74.7453842  44.9581337  63.5690651  74.5844955
  44.6172600  64.9166336  73.9854584  23.2521439  38.2158356  26.3491554
  22.4910526  38.2260208  25.7687511  23.5262680  37.2989349  26.3686047
  61.6496315  32.2779388   5.4964972  61.3395882  32.7106628   6.2920208
  61.6098328  32.9572411   4.8232961  30.2266197  35.8463669  84.4622421
  30.8276482  35.2037010  84.0854340  29.6480293  35.3319588  85.0251389
  57.7366943  14.5603857  69.5840912  58.2285843  13.7404432  69.6284943
  56.9794769  14.4164686  70.1516647  36.4198799   3.7913334  42.1579971
  36.9195175   4.5490003  42.4621925  36.3110313   3.2473483  42.9380379
   1.5252458  69.8798447  52.1826973   1.6372039  70.6082993  51.5719185
   0.9827731  69.2502670  51.7077370  85.5104294  49.7596855  59.2520638
  84.7443771  49.1953087  59.3563614  85.5003204  50.0088425  58.3279152
  72.8170242  31.1341133   8.8176594  72.7302094  32.0521507   8.5609436
  72.0957336  30.6911850   8.3706894  49.7262421  19.2968960  80.3890076
  49.0918655  18.5806770  80.3601608  49.3656921  19.9105644  81.0290451
  82.1248474  38.2927780  19.5956783  82.9421158  37.9221077  19.9287014
  81.5060654  37.5626869  19.6131725   5.6608419  42.0015831  53.5640640
   4.8008862  41.6839256  53.8393822   5.8449731  41.5238609  52.7552948
   0.8211474  23.6546249  45.2337379   1.4612039  24.2474861  45.6275330
   0.6757611  22.9825668  45.8996468  54.9736443  47.1710205   1.6084433
  54.7437248  47.5945168   2.4354985  55.0799713  47.8942375   0.9904766
  81.8153534  20.4301662  82.4189453  81.8868179  19.7193356  81.7818832
  81.2714081  21.0872326  81.9846420  10.3046837  38.0149651  49.5423164
  10.6559029  38.5471649  48.8284264   9.9328690  38.6502876  50.1541595
  66.7779007  46.8862877  56.1849136  66.4806366  47.3635254  56.9595833
  67.1912231  47.5532532  55.6366920  70.2202759   4.3512368  55.0947266
  69.9859390   5.2570419  55.2968025  69.4824905   3.8348801  55.4191895
  30.2460155  32.6255951  14.8271303  30.2008305  32.4343796  13.8903131
  29.3383198  32.5729485  15.1263790  15.3492870   2.9118228  80.5760956
  14.8079453   3.5183265  80.0707932  15.9221725   3.4769754  81.0943985
  10.5424709  67.5275192  19.8217926  11.2147808  66.9936752  20.2451649
  10.9764977  68.3616867  19.6428871  55.1944046  59.6132660  87.8391342
  55.2209969  58.6710129  87.6727371  54.8134766  59.9862175  87.0441284
  70.8423309  70.8742981  86.3839569  70.2667923  70.2156143  85.9952164
  70.2463684  71.5366821  86.7336884  59.7819328  42.5306664  75.7442551
  59.7429237  43.3754158  76.1927032  59.2044334  41.9621620  76.2536926
  70.6564713  16.7804108  69.6144028  70.6476288  17.1647911  70.4909897
  71.1619797  15.9734373  69.7118225  76.7177353   6.9344621  49.8728294
  76.7874298   6.0470676  49.5208282  75.8571014   7.2392526  49.5853500
  53.6359329  63.7253609  37.5818825  53.4423332  63.6739731  36.6458778
  53.0644302  64.4210739  37.9068336  67.0108109  47.6234550   9.9941473
  67.9085922  47.3787498   9.7697906  66.7247238  48.1769562   9.2674952
  42.0628395  62.2395668  39.4604187  43.0192108  62.2505379  39.4987411
  41.7994919  61.6986046  40.2048912  41.6771469  55.7436790  70.5834503
  40.9070969  55.2632065  70.2794724  42.3541222  55.5451431  69.9365158
   7.9823813  63.1725464  20.1565609   8.3413620  64.0458374  19.9993057
   7.7153759  62.8638649  19.2907333  28.9145241  65.6340485   3.8609338
  29.3714771  65.8494797   4.6739612  28.5002937  64.7890015   4.0356817
  56.3504257   6.3038726  56.3580360  56.6051369   6.2288837  57.2776718
  57.0365105   5.8373413  55.8806763   9.7628870   5.4179721  37.3878136
   9.2935572   4.6012387  37.5578384  10.4931602   5.1617670  36.8245239
  69.0270615  48.4347725  87.0042191  69.2869110  49.3548813  86.9582977
  68.0756836  48.4594002  87.1066971  18.3399601  48.8897324  18.3597813
  19.2774143  49.0562172  18.2613297  17.9237309  49.4913597  17.7425079
  16.5347748  61.8197136  11.2512760  16.8239326  60.9407272  11.0063143
  17.1215019  62.0751686  11.9631224  72.8893585  61.8275833  14.3330688
  73.5528641  62.3388672  14.7962923  72.0563126  62.2083054  14.6111431
  86.3360748  13.4871445  87.5164413  86.7946320  14.2846117  87.2518692
  86.9107971  13.0853214  88.1679459  36.4731445  30.3429756  13.4068708
  37.3557816  30.3704605  13.7762280  35.9933929  29.7424088  13.9773016
  11.2382612  14.0210867  43.6794434  12.0112085  13.4838238  43.5058556
  11.5592184  14.9220448  43.6408081  29.0154819   3.3214667  60.0644150
  28.1446228   3.7010074  60.1818237  29.1623573   3.3469210  59.1188927
   2.7313623  44.1798096  16.1361828   3.5824981  44.3945084  15.7544718
   2.3662119  43.5171471  15.5498571  68.2909317  44.5940437  61.9014015
  67.7007675  43.8741798  62.1244164  68.8142700  44.2580528  61.1737671
  48.4197388  14.9437342  53.6051979  47.9011536  15.6874847  53.9120178
  47.8166008  14.4406643  53.0580444  79.0261765  69.4894104  22.7201347
  78.3878403  69.1407471  23.3423882  79.0993271  68.8124084  22.0474110
  62.7347565  56.0755577  87.5741272  62.7822990  56.9586487  87.9403458
  62.4483032  55.5281677  88.3052521  31.2953110   1.1579862   2.0172224
  30.6110172   0.4972059   1.9107133  31.4658642   1.1765281   2.9589226
  68.0856628  66.8605499  52.0282516  68.2150803  66.1183243  51.4378433
  68.2718658  66.5092697  52.8989792  60.7136917  35.4150009  51.9573822
  59.7837563  35.2979317  52.1516685  60.7408371  35.5996399  51.0185509
  83.7352448  22.3186703  11.5469971  84.5344620  21.8700447  11.2709236
  83.7404861  23.1407566  11.0567141  36.7233849  21.8824654  12.7753925
  36.7800941  22.3169384  11.9243641  35.9884834  22.3107014  13.2144394
  83.9450760  71.7358093  14.4412909  84.1005173  70.9043579  13.9932384
  83.0595474  71.6550522  14.7956295  20.1126022  59.9321480  15.6276073
  20.5305672  60.5793877  16.1955986  19.3704624  59.6088867  16.1384525
  42.6037254  33.0503082  83.2009048  42.5241318  33.9760246  83.4309998
  42.8621063  33.0539474  82.2792435  18.3442898  58.9792442  79.0481720
  18.8668785  59.1201630  78.2586975  17.7107353  58.3063431  78.7990799
  36.1035881  46.8042908  27.5568218  35.5764542  46.0576172  27.2725067
  36.4856300  47.1489601  26.7496796   9.4332981  65.5900574  13.0483103
  10.1884375  65.9111252  12.5554457   8.8195467  65.2901917  12.3777723
  40.1915970  36.1393623  80.7305450  39.3491974  35.6911964  80.8063431
  40.2512169  36.3825836  79.8066788  49.1357651   7.5464740  65.9622192
  49.4168434   7.4105091  65.0573807  49.4882736   6.7944655  66.4380951
  82.2975464  32.6953888  85.9637146  83.0716095  32.2437668  86.3000107
  82.6295090  33.2411957  85.2508850  48.8936882  13.0223389  41.2276917
  49.3745728  12.6662436  40.4805756  49.5737152  13.3523846  41.8149452
  42.8201942  58.0968781  78.3527451  42.6891861  57.9935608  79.2952881
  43.5688248  58.6887093  78.2784348  69.5954361  34.7301445  79.6191864
  70.1952362  35.2370720  79.0719223  69.9728851  33.8506889  79.6371613
  59.7484856  46.0909157  74.7590332  60.6754036  46.0626984  74.5218430
  59.7223549  45.7725220  75.6613541  44.5331535  36.4524269  79.4668045
  43.9048843  35.7305374  79.4471741  44.0340919  37.1951027  79.8068085
  71.8797150  13.8525562  65.6726913  71.8133469  14.2783613  64.8179855
  71.5802078  12.9566984  65.5178757  11.7826748  32.1907806  45.6622200
  11.6420631  31.8657570  46.5514984  11.8890085  31.4006748  45.1324501
  75.6110687  36.5436630  72.4590759  75.4103317  35.9437332  71.7407303
  75.4419785  36.0337715  73.2513199  67.7867355  65.0022583  34.3962593
  68.2897949  64.3280258  34.8529701  67.7540741  65.7347412  35.0115929
  25.2000790  41.0049362  70.0848083  26.0311604  40.5716133  70.2791519
  24.6088238  40.2918587  69.8436279  11.3568697   6.5272775  75.2781219
  11.5187712   6.6157746  76.2173691  11.2310400   7.4251370  74.9711227
  61.7904816  55.2794037  32.5414886  61.7633667  55.9008217  31.8139343
  61.1119881  54.6371155  32.3332977  34.1366272  61.2166519  84.7339554
  34.1586876  60.6290283  83.9786758  34.5736504  62.0125656  84.4310226
  19.1162853  66.1507339  43.7168961  20.0104408  66.1513214  43.3752594
  19.1751194  66.6310501  44.5427666  57.5226860  34.1022224  73.2898331
  58.3286476  33.8981247  73.7641754  57.6567497  34.9912033  72.9612350
  66.5032578  21.5473194  72.4663620  66.9547272  22.0297642  73.1589355
  67.1192169  20.8599739  72.2126160  39.0724068  71.5304642  23.1895294
  39.0223389  72.0862579  22.4118252  39.2576294  70.6558990  22.8473873
   8.3324404   8.9242296  87.6529236   8.8035755   9.0934200  86.8370590
   8.2827110   9.7782688  88.0823212  32.4067764  18.4194717  14.9821701
  32.4431686  17.4786339  15.1545963  33.2649345  18.7459316  15.2527609
  10.6336784  46.3520470   9.2318926  10.5669022  45.5067101   8.7878437
  10.7424974  46.9866943   8.5236464   7.3959122  13.7044268  13.2221842
   6.7451992  13.0033579  13.2583370   7.4104338  14.0637102  14.1092787
  51.1244354   6.4012413  27.8715267  51.6114388   5.7178030  27.4111271
  50.7989006   5.9717965  28.6626263  72.4850464  28.9193764  28.5997658
  71.9637222  28.1244164  28.7115269  72.4376221  29.1070805  27.6623497
   0.6693351   6.0717978  80.5502625   0.5465832   6.2744718  79.6228485
   0.6532387   5.1155849  80.5906296  44.0195465  25.8625393  21.9381638
  43.5933876  25.0989094  22.3273811  43.5654488  26.6122456  22.3228264
  45.0748405   4.9347167  35.3203239  45.4579468   5.7828207  35.0963173
  45.4443321   4.3280272  34.6787338   2.2556660  46.0565567  37.5294151
   2.4485693  45.5962944  38.3462257   3.0906787  46.4470863  37.2715950
  18.1204624   0.9297656  64.7948456  17.1710854   0.8407364  64.8784409
  18.3532085   1.6131200  65.4234085  18.1383362  34.4252129  87.1279144
  18.6804352  35.2119370  87.0693741  17.9482460  34.1970787  86.2179413
  86.2497330  45.1458931   5.7257433  86.8675613  45.6306534   5.1784534
  86.2223969  45.6357307   6.5476580  75.1763840  50.6000748   6.5132456
  75.9656448  50.0724335   6.6352749  74.5492401  50.2417374   7.1413479
  69.1463547  13.9925642  62.7162743  69.3966141  13.0719681  62.6381226
  68.5182724  14.1310444  62.0073509  79.4133606  16.2833443   8.8274555
  79.1633301  17.0855541   9.2859039  78.5823822  15.8505697   8.6314573
  62.7683372  34.8877792  41.5963211  62.7146950  35.8013802  41.3158112
  62.5877533  34.3827972  40.8034706  67.8325729  69.7104111  36.6299553
  68.0759659  69.9905396  37.5122948  68.4750900  70.1317673  36.0591087
   4.0142636  13.2749929  66.2170639   4.7065940  13.8785210  65.9474945
   3.2971461  13.4449415  65.6062469  56.9884872  32.8980598  58.3213310
  56.2790565  33.0287170  58.9505119  57.7849960  33.0957413  58.8140030
  40.8504257  28.5393353  78.9833832  40.4900131  28.2807026  79.8315887
  40.9396629  29.4906178  79.0410767  30.0289059  13.9308538   6.3331861
  29.6499767  14.7259159   5.9583259  30.0301991  13.3026161   5.6110044
  85.1999130  12.2975836  37.4513969  84.3686676  12.5356445  37.0407944
  85.8638611  12.5388479  36.8054962  64.0851593   6.8541222  61.6088982
  64.3975143   7.0381050  60.7229996  63.1724205   7.1424522  61.6057434
  31.0725574  56.7780724  40.9347763  30.2886868  57.2136192  40.5999947
  30.7368374  56.0644646  41.4772568  52.8390007  68.9959183  47.1565971
  52.0425377  68.4688721  47.2205696  53.4891930  68.5099258  47.6638412
  26.3891563  60.1899109   2.6073630  25.4554806  59.9897995   2.5407498
  26.4861603  60.5963058   3.4685631  71.3679733  49.1101227   0.9007322
  70.5080795  48.7034073   0.7940155  71.8320465  48.5334206   1.5075947
  54.1213379   6.4423928  52.0322304  54.2531395   6.4609199  52.9801292
  53.2040367   6.6885653  51.9131012  78.5685883   5.8359938  38.4673958
  78.0358810   6.6162863  38.6210289  79.0588760   6.0340018  37.6694984
  48.1458778  49.6125946   7.8057208  47.7373428  49.1048851   7.1046071
  47.7181358  49.3048401   8.6048183  11.9331198   2.8776050  48.5899963
  12.0375681   2.0255725  49.0135117  11.1560574   3.2559299  49.0014305
  18.5168705  33.7083817   3.3759186  19.0328503  33.1825562   2.7647698
  18.9854031  33.6375160   4.2075953  71.2392197  37.8333244  73.7970657
  71.7800140  37.9988861  74.5693054  71.7143097  37.1585045  73.3121567
  58.3011017  43.6879654  14.2049313  58.8033600  43.6248932  13.3925343
  58.5864067  42.9346657  14.7220087  83.4181595  28.7971287  44.7501030
  84.1436539  28.4392891  45.2618141  82.8456573  28.0470676  44.5892448
  64.7042465   7.5424862  81.7806931  64.2246933   6.7795019  81.4580307
  64.2571411   7.7805052  82.5928955   3.3280773  65.4971161  56.0649643
   2.8349276  65.2950134  55.2698631   2.7125046  65.9864502  56.6107254
   6.0105567  30.5268764  32.2345963   5.3910375  31.2197056  32.4635429
   6.5597115  30.4299335  33.0125847  67.7494278  37.1578369   3.6639898
  68.5841217  36.9346695   3.2520158  67.8592987  38.0639648   3.9522414
  33.6704140   3.3817003  45.1775131  33.4373665   2.5911448  45.6642799
  33.4892693   3.1623511  44.2635612  10.1991453  26.5080128  23.2603092
  10.7786589  25.8609447  23.6624260  10.0009155  27.1234226  23.9661465
   6.0260377  16.3263245  35.2403488   6.2830620  15.7616005  34.5114784
   5.5501847  17.0474720  34.8283539  65.5671539  39.1056671  23.7264423
  64.8536835  38.5507355  24.0414772  65.1329803  39.7814713  23.2058544
  52.3976479  14.7850180  18.1585693  51.5257378  15.1537895  18.0170975
  52.7392426  14.6329508  17.2774239  86.0674438  41.0288162  41.9033279
  85.7102814  40.1444817  41.9846725  85.6283722  41.3947678  41.1355171
  16.1352615  70.0719986  57.6849823  16.2746944  70.8376846  58.2422180
  15.2396727  70.1708069  57.3618889   4.9622679  69.4499207  84.9685516
   4.9630356  69.3724213  84.0144958   5.1515608  68.5651321  85.2808838
  10.3091593   6.5459018  47.6281548  10.0810270   5.8639669  48.2599411
  10.5194931   6.0683088  46.8257217  62.3164444  64.1674805  40.3503342
  61.9109077  63.3105965  40.4827156  61.8521996  64.5388412  39.6001320
  38.6544380  62.8194542  69.8504868  39.5222206  62.8610954  69.4486847
  38.4901428  61.8839722  69.9692764  79.0894852  69.3430862  84.4041519
  78.6658630  70.1278458  84.7518921  78.6127625  69.1514740  83.5965271
  37.2659302  43.1712685  23.1759911  37.9373436  43.0015182  23.8367634
  36.5080452  42.6654129  23.4691696  78.1443787   9.9912958  21.5832386
  77.5656204  10.5302362  21.0439682  77.9858856  10.2912979  22.4782867
  14.4269724  40.5379753  64.0490265  14.9676304  41.1830139  63.5931244
  14.9638348  39.7457237  64.0676422  78.9705582  67.3167725  88.7926712
  79.0871582  66.3854828  88.9806747  78.1576462  67.3595047  88.2891006
   1.2944158  16.8601475   5.2618365   1.9082620  17.5472260   5.5213523
   1.3948978  16.7954140   4.3121285  85.0267258  70.5175247  52.1918335
  85.3118515  71.4304047  52.2317047  84.0718307  70.5665894  52.1470604
  59.3780365  69.7148209  61.1669731  58.7158241  69.6650543  60.4776039
  58.8758774  69.7154541  61.9818764  59.5522537  45.8699074  64.6623688
  59.0387039  46.6263657  64.3790512  60.0717545  46.1949196  65.3977051
  78.4838638   5.1127834   6.3637371  78.4779129   6.0609064   6.4951143
  78.9003143   4.9918342   5.5104065  69.2443619  30.9306622  21.6492157
  69.0228424  30.3870640  22.4053001  69.1251068  30.3527393  20.8955479
  73.5581589  33.1344643   6.6928744  73.7929153  33.4089928   5.8064461
  74.3768616  33.1904030   7.1856527  83.2704544  65.5841293  27.5460987
  84.1310196  65.9694672  27.3812809  83.4095306  64.9960938  28.2884617
   9.4422331  57.9402885  12.1039228  10.1530361  58.1157532  11.4873171
   9.8846769  57.6765671  12.9107237  34.5712357  52.0624886  19.1138592
  33.9908562  51.8035583  19.8296432  34.1584358  51.7027664  18.3287296
  83.5860901  35.5880661  76.6153641  83.2782974  34.8797684  76.0498505
  82.9997406  36.3198738  76.4233246  74.4515152  69.0687714  22.6771221
  73.8516769  69.3753204  21.9970837  75.3195114  69.3214874  22.3625412
  23.9166622  61.3829193  84.0273361  24.8023338  61.5509415  84.3491898
  24.0291500  61.2191048  83.0909882  86.0066833  14.8127060  55.7575531
  86.8964081  14.9071741  55.4174080  86.0541153  15.1542606  56.6504822
  67.8231430  46.5940933  79.9195557  67.6728973  45.7805634  79.4380722
  68.4566574  46.3578911  80.5971222  23.5986748   6.2946291  79.8910522
  22.6422462   6.3098092  79.9263840  23.8451576   7.1967435  79.6869278
  59.8180885  27.3640728  17.4560394  59.8009148  28.2456264  17.8285980
  59.4402237  27.4658241  16.5824871  38.2197380  30.3372192   6.1661439
  38.0705223  29.4267616   6.4211545  37.8384247  30.4063759   5.2909017
  84.1650162  59.0446167  48.8649712  84.2511368  59.5910530  49.6461372
  83.6575241  58.2874222  49.1570969  60.7077980  47.6855850  57.5918388
  61.1195259  47.4357262  58.4190521  60.5557175  46.8557091  57.1397247
  32.0095596  49.8314629  87.6695175  32.3231430  49.0355110  87.2401428
  32.8062439  50.3119812  87.8945312  13.6166382  35.2293167  18.5009518
  13.8862267  35.8824539  19.1466827  14.4011078  35.0748177  17.9746742
  51.9232788  12.7904539  77.0210037  52.4717178  13.5310326  76.7621841
  51.2919502  12.6990061  76.3073578  63.4709778  67.3518982   2.1481724
  64.3571167  67.3097153   1.7887093  62.9199562  67.5832520   1.4004530
   8.9731493  61.1124611  88.7208786   8.5552158  61.4275627  87.9194641
   8.3599510  60.4673462  89.0730820  16.4308109  69.9660492   3.3016019
  15.5123577  69.7005692   3.3484986  16.5853615  70.4393463   4.1191173
  52.5895767  57.4274139  11.0047493  51.8720894  57.7752380  11.5343399
  52.1857262  57.2172394  10.1627512   7.8742166  35.6341324  80.1809235
   7.3586397  34.8756752  79.9067841   7.7394876  36.2789917  79.4864960
  76.6176529   3.3104539  39.0967331  77.4923401   3.0838120  38.7808342
  76.3419495   4.0369821  38.5378304  72.4831009  57.9406509  52.3300896
  71.5527496  57.9489059  52.1051254  72.6720276  57.0247612  52.5342484
  52.0041847  35.7503815  80.0706177  52.7221603  35.7494431  80.7036591
  51.5134621  34.9515762  80.2638397  61.3564644  55.0364571  13.1178541
  61.0135040  54.2480354  12.6971397  60.6151390  55.3857841  13.6124630
  27.4762936  63.6431313  -0.1375984  27.7860603  64.4942474  -0.4472391
  27.0328865  63.8357048   0.6885597  15.4871006  59.1510963  74.8178024
  16.4373703  59.1301804  74.9308624  15.3579388  59.1200638  73.8698654
  35.6295204  16.3396149  47.9619637  35.2316322  16.9584045  48.5743484
  36.3980980  16.7986488  47.6231270  26.4176331  39.9378853   9.8845568
  26.1174793  40.2212830   9.0209446  26.3238373  38.9854050   9.8700628
  27.2575836   4.4359117   4.2591023  27.9021187   3.8291631   4.6233325
  27.7549534   5.2334762   4.0781422  66.4150314   6.1169319  74.5390015
  66.9445648   6.9115148  74.4722290  66.0626526   6.1380038  75.4287262
  75.1546402  49.4520378  51.8759422  76.0072021  49.0784836  52.0991669
  74.9171371  49.9794540  52.6386070  30.3305225  23.9863911   9.8846884
  29.7861977  23.3187923   9.4672508  31.0805206  23.5022678  10.2301741
   7.9637747  63.1305847  70.5052338   8.6314478  62.9720993  71.1725693
   7.1406126  62.8833504  70.9265594  74.9255676  67.0323257  35.5976448
  73.9805527  67.0139847  35.7487450  75.2658157  66.3061142  36.1202164
  70.2554016  32.8307457  44.9258194  70.7968445  33.5908928  45.1385345
  69.3650818  33.1782074  44.8725700  66.9573364  26.3333893  67.8127441
  66.1506882  25.9701099  67.4472656  67.5378189  25.5784321  67.9092712
   2.7571330  28.6268768  41.6388054   3.1418173  29.3383179  42.1507645
   1.9656463  29.0069332  41.2575722  70.8583298  24.5662041  74.9272995
  70.8905258  23.7194595  74.4820786  71.4671173  24.4747143  75.6602631
   8.8765030  35.4337502  14.8070240   9.7281790  35.1106911  14.5128946
   8.4795275  34.6876678  15.2564707   8.6416063  38.3212624  78.4219818
   8.0848789  39.0991020  78.4574356   8.9421043  38.2829819  77.5139847
  85.6121902  66.8214417  79.8970642  86.1140060  66.0686798  80.2097244
  86.1610489  67.5778503  80.1040268  26.1585999  13.2532701  77.3666153
  26.9822998  13.6772203  77.1257553  25.5526619  13.4910555  76.6648102
  19.4217377  64.0734787  32.0124130  18.7381611  63.7385941  31.4320641
  20.1766167  63.5096397  31.8436584  44.0491753   7.7623687  85.0729599
  44.7891045   7.3288841  84.6477203  43.7295189   7.1220598  85.7086105
  26.6868095   8.6337872  42.0430527  27.6309090   8.4917707  41.9742012
  26.3443680   7.8069754  42.3826828  73.3753357  31.3329563  36.3951607
  73.3099594  32.1552315  35.9095459  72.5659103  30.8665600  36.1865044
  36.4578934  13.6181612  42.6377449  36.2721214  13.6234674  43.5767288
  35.7803650  14.1765108  42.2563858  66.8727798  41.3012733  70.5790710
  67.5160446  41.2860489  69.8704071  67.1207199  40.5689354  71.1433716
   9.8515377  50.9123383  15.3114147   9.4145231  51.4608078  14.6599312
   9.8199759  51.4270592  16.1178246  36.4750862  64.1909103  65.1588821
  35.7341766  63.6400719  65.4115906  36.3159790  64.3987274  64.2381592
  65.6343079  24.8514652  88.6994553  65.2706223  24.9993591  89.5724411
  65.1572800  24.0911369  88.3669205  44.0150337   7.9488425  38.4108925
  43.1259918   7.7011237  38.1569748  44.2968102   7.2536159  39.0054436
  64.1691437   6.4598274  56.9323235  64.7436905   6.7792454  56.2365494
  64.5126648   6.8619976  57.7301216  10.6982803  60.1206894  63.7324905
  10.0216608  60.5442963  64.2606735  11.2488222  59.6649323  64.3692169
   7.4393992   3.3549597  78.5013580   8.1560574   3.1100028  77.9160156
   6.8091216   2.6390572  78.4209518  80.9413223  40.9426842   8.2491808
  80.0004959  40.7831306   8.3241177  81.3296814  40.0689087   8.2052393
   3.8462164  35.7347946  36.0379181   3.0652933  36.0184288  36.5132523
   4.2062984  35.0255394  36.5703926  11.1572590  19.5456409  16.7635212
  10.6852036  20.3779659  16.7886372  11.7193375  19.6122723  15.9916010
  37.6235046  64.2488556  21.8411160  38.4863853  64.2176895  21.4279633
  37.4361649  65.1829071  21.9342957  50.5782433  66.0182343  29.3615665
  51.4891739  65.7313690  29.2971344  50.0941353  65.2270508  29.5980034
  58.0124969  63.4709625  49.4421959  58.3551407  64.3411560  49.6461258
  58.0766068  63.4055519  48.4893875  26.4473667  50.8353615  10.3059406
  26.2315960  51.7042694  10.6445723  25.7408962  50.2725830  10.6228209
  53.6484108  12.8645267  54.2927628  53.0413170  12.1772099  54.5671043
  53.5728569  12.8840256  53.3387489  72.9777908  41.0843925  86.0095444
  73.6056976  40.5205688  85.5578079  72.8771896  41.8413811  85.4324112
  33.0246162  63.1281738  24.4919281  32.2212753  62.8670578  24.0417137
  33.7061958  63.0624733  23.8230762  64.9921799  52.2309189  54.5205688
  64.6295090  52.1950264  55.4056778  64.2383194  52.4148331  53.9601212
  71.7806244  43.2981262  57.3364868  71.1567612  43.2142029  56.6153870
  71.5571594  44.1315994  57.7507515  26.6397743  21.2312756  23.9137096
  27.0830765  21.8897476  23.3787994  27.2576942  21.0403442  24.6193657
  54.5100632  25.0271053  60.1378822  54.5108986  25.9243202  59.8043556
  53.7342415  24.9799786  60.6965485  62.4213333  33.1031761  57.3162117
  62.1753616  33.0589943  56.3922119  62.4918289  34.0397606  57.5007782
  14.0199289  15.7369356  49.1115837  14.6608458  16.1651115  49.6791420
  13.1712198  16.0031681  49.4651985  59.9795418   6.9123197   0.2199795
  59.8883743   7.2995181   1.0906099  59.2338715   6.3170662   0.1432980
  11.7706127  47.3990402  81.5151749  11.2891264  46.5774460  81.4182816
  12.3137646  47.4525108  80.7288132   3.0840719  31.4799156  42.6172981
   2.1298237  31.4401932  42.6810532   3.2508225  31.8645668  41.7567940
  31.6780014  64.1673508  84.5196228  32.0434761  64.4010773  85.3728714
  32.3699989  64.3846664  83.8950043  74.1801224  68.0010452  33.0801468
  74.6041183  67.5395813  33.8036842  73.2506943  67.7927475  33.1750946
  40.1604843  68.4463501  79.2646484  40.4155655  69.2738190  79.6726456
  40.9895515  68.0292587  79.0303040  77.9261627  27.5240459  12.8982744
  76.9998932  27.3140697  12.7792683  77.9994888  28.4414787  12.6352730
  67.5419922  63.1649246  17.6302776  68.1583099  63.7237320  18.1036835
  67.2113266  62.5581894  18.2926731  35.6297188  35.5664902  37.4611702
  35.0451469  36.1093864  36.9322357  35.5658875  34.6949348  37.0705910
  13.1544209   1.1530745  67.8025818  12.8369541   1.9030894  68.3054962
  13.9573851   0.8869218  68.2505112  77.5763168  11.4393368  27.7667961
  78.1705704  11.6151123  28.4963112  76.9409485  12.1545858  27.7977581
  12.3077679  31.5462799  75.5280609  12.4703112  31.0730896  76.3440857
  11.5556469  32.1058846  75.7214279  84.8190613   2.1629763  61.0518265
  84.9596176   1.3148379  61.4727020  85.0671234   2.0210617  60.1382828
  18.8421078  39.5191765  67.0667801  18.7492142  40.3205910  67.5818863
  18.2642956  38.8892517  67.4975433  51.4416313  16.5123539  31.1374359
  52.1931763  16.1492538  30.6688519  50.8182831  16.7426319  30.4484940
  67.6143341   8.4961147  44.2362289  66.7242050   8.2077751  44.0343552
  68.1705246   7.9871125  43.6464806  81.1886826  22.9078369  72.6697693
  82.1162033  23.1339874  72.6006088  80.7562180  23.7339191  72.8861008
  38.4171944  61.0441895   8.5099754  37.7645721  60.7948875   7.8556294
  38.4916840  60.2774773   9.0781603  84.1561356  44.4356079  55.0423088
  84.8034058  44.1641312  55.6931343  84.6762772  44.7077560  54.2862587
  59.9793510  28.0915775  36.0514793  59.4336929  27.3325253  35.8457336
  60.0640106  28.5581360  35.2199821  62.0561752   2.4833949  15.0987415
  61.9826889   1.7699163  14.4648800  62.0101814   2.0516095  15.9517822
  32.9518738  32.8626328  79.9799881  33.3255310  32.4920807  79.1804276
  33.5094070  33.6149139  80.1786346  66.1756516  38.4608574  36.9286613
  66.8748169  37.9451027  36.5269127  66.6028519  38.9223785  37.6502800
  62.4703903  66.4914551  67.5877991  62.9328575  67.3184052  67.7238464
  62.7813072  66.1801910  66.7376938  63.2403221  40.8343277   9.0287418
  62.8695068  41.0313950   9.8889122  63.9530182  40.2215500   9.2098417
  68.2750168  65.8014679  78.5351791  67.6962357  66.5598526  78.4571457
  67.9441147  65.3249741  79.2965622  60.0217896   5.2774377  11.8989897
  60.1677475   5.4069381  12.8360910  60.0361786   4.3273520  11.7833948
   0.6550467  37.0395355  33.1095123   0.5215515  37.5832634  33.8858986
   1.4411955  36.5300980  33.3061714  41.5141029  30.2733097  86.8524857
  41.5754242  30.9157276  87.5594330  41.2318382  29.4674072  87.2850189
  85.3699417  17.9671650  75.4408951  85.6605225  17.1963520  74.9534073
  84.9969254  17.6133461  76.2482986  44.8078003  56.6811714  36.1099510
  44.6678696  55.8703957  35.6207733  45.0313988  57.3287048  35.4414177
  84.3138428  54.1059875  57.0291214  84.9972382  54.3763313  57.6424103
  83.4948349  54.3495293  57.4605675  58.0703354   3.6945424  25.6956520
  58.9727020   3.4699712  25.4686470  57.9422798   3.3199291  26.5671444
  59.5560646  15.6366911   1.0731562  60.2376099  16.2950020   1.2086240
  59.7346382  15.2828531   0.2018685  78.7500687  66.7785950  46.0744095
  78.6539154  67.6289902  46.5031471  78.1661758  66.1973267  46.5616722
  61.9862480  33.7038193  39.2925224  61.1822586  33.4214859  38.8564911
  62.1242599  34.5993500  38.9839668   7.5887074   3.1439066  51.0511551
   7.3702402   2.2802207  51.4012260   6.8316836   3.6884024  51.2671890
  64.4680939  24.5160427  68.1261520  65.0087738  24.4899578  68.9155960
  64.4220581  23.6046734  67.8371582  15.1133795  45.7032242  23.1647835
  14.3623638  46.1623459  23.5408382  14.7332573  44.9438324  22.7231274
  75.5479813  40.1238785  53.5824203  74.8442535  40.7687874  53.5110703
  76.2103271  40.5512238  54.1254730  71.4400787   4.0121408   4.6837440
  71.1449661   3.2380338   4.2042685  70.6351929   4.4085970   5.0172267
  62.1873016  12.5659428   6.0472870  62.0922165  13.2263823   5.3609853
  61.3161087  12.4996634   6.4382596  18.4220753  16.0979500  61.9807472
  18.2992649  15.5392056  62.7481842  19.0755196  16.7413826  62.2550430
  73.9289093   7.7802458  78.0126572  74.8618011   7.9839773  78.0793152
  73.7846680   7.6205611  77.0799637  82.1111908   3.4560528  71.9059830
  82.4876633   3.2277825  71.0560455  82.7853241   3.9853303  72.3321762
  61.1900864   7.8994150  14.0429697  61.8714027   7.2521119  14.2247362
  60.3993950   7.5323830  14.4383554   5.3591290  56.3159523  67.1983719
   5.6050363  57.0268898  66.6064911   6.1495004  55.7809753  67.2714996
  82.8394852  55.0016899  32.5214272  83.2918701  54.3262329  33.0267410
  82.4720383  55.5890846  33.1818657  29.5109940  59.6487427  28.6014919
  29.1411076  59.2396355  29.3838272  30.2177086  60.2030525  28.9324436
  22.4646797  66.2136688  84.6274033  23.0974751  65.5742188  84.9543610
  22.8864040  66.5960693  83.8578949  17.1306362  20.6637478  35.5749664
  16.3122864  20.4330482  35.1352921  17.7934361  20.1215401  35.1472511
  38.1417809  44.1096611  27.0635242  37.1964912  44.1483650  26.9180603
  38.4415054  43.3949890  26.5017014  66.0834427  39.7771301  55.0768013
  65.3594742  40.2122726  54.6265221  66.3517990  39.0788269  54.4796524
  23.9988613  10.1191072  55.3071251  23.4992771  10.2169752  54.4965248
  23.7997074   9.2316904  55.6055527  64.6236191  49.4026527  77.8173828
  64.3371277  49.2398911  76.9186783  64.3162155  50.2884331  78.0100555
  65.8925018  17.1487198  14.3787889  66.2519760  16.6812592  15.1327715
  64.9438858  17.0632858  14.4740248  25.9199352  57.5293808  26.4869843
  25.1900768  57.1336250  26.9633389  25.5043354  58.0306511  25.7853889
  17.5602531  59.6938896  16.5939808  17.1649590  58.9749947  16.1008663
  16.8706284  59.9816780  17.1921692  61.3212814  33.8083496  35.8452072
  60.6912537  33.1521492  36.1430283  60.7872543  34.4729843  35.4101143
   1.6538745  25.9228210  83.6165390   2.5646009  25.9333363  83.3220901
   1.1565081  25.6461678  82.8469162  60.2517662  11.0805159  44.6644173
  59.8712120  11.6454420  43.9919052  61.1638222  11.3640928  44.7274246
  82.0834427  46.5379181  43.1854210  82.5400162  46.5003166  42.3449707
  82.7234039  46.2159653  43.8202667  34.6931953  13.5918131  25.3852329
  34.4497604  14.3214121  25.9550190  34.6820030  13.9628754  24.5029526
  61.2655487  29.0824013  39.1636734  60.7805824  28.4795475  39.7272377
  62.1751060  28.7912197  39.2280922  81.2185211  43.4789314  69.9028091
  80.6379700  43.9535370  70.4977341  80.7185211  43.4029846  69.0901184
   5.9642029   3.4952445   5.8796158   6.5274076   2.7417858   5.7026062
   6.5340567   4.2544122   5.7564783  66.2656326  11.7461205   8.3553429
  67.1289673  11.5940199   7.9709525  65.7328186  11.0140877   8.0447454
  58.1725044  17.0003910  51.8694191  58.7365265  17.7694931  51.9505959
  58.5167427  16.3818474  52.5137291  16.2941303  61.7159004  71.7633896
  16.7458763  62.3410187  72.3302994  16.8586559  61.6387177  70.9942398
  56.6493721  27.2811604  18.3654041  56.8420067  27.9802284  18.9902458
  57.0659485  27.5655556  17.5518856  18.5187206  27.3324146  15.2008896
  19.0119572  26.5127563  15.1675539  18.0363312  27.2882576  16.0264683
  55.3014221  69.0809937  71.3021393  55.5328178  68.8775787  72.2083969
  54.8166885  69.9045029  71.3577652  50.0967216  13.2231302  28.5719337
  49.6235771  13.8500309  29.1190701  49.7318954  12.3716564  28.8130264
   8.8264112  34.9375801  71.1044617   7.9238029  34.7025948  70.8892593
   9.0470362  34.3814888  71.8516617  43.0325775  14.0523958  27.0396652
  43.8966255  14.2020998  26.6559391  42.5152473  13.6784945  26.3263645
  28.6218014  14.2812662   8.8827019  29.2979145  14.5338192   8.2539568
  28.4265976  13.3684616   8.6707706  11.8343658   9.5441351  33.4209824
  11.7559175   9.0781565  34.2534142  11.9159317  10.4650955  33.6687927
  15.3752270  50.5880203  39.4026451  15.9396048  50.7767792  38.6529274
  15.9516592  50.6683083  40.1625862  14.5595284  52.6247673  57.6094627
  15.4578629  52.5907211  57.2807274  14.0591145  53.0243263  56.8980103
  76.2164078  16.1496944   1.2337023  76.3983994  15.6222048   2.0114329
  76.6080170  17.0018559   1.4252518  14.3987675   9.1207561  52.1809387
  15.1528931   9.4897156  51.7211609  14.5246944   9.3795977  53.0938339
  35.5505562   7.5436854  73.1144867  35.1839256   7.9527416  73.8983841
  36.0241661   8.2499256  72.6749954  43.0946465  14.5193615  50.9653816
  43.5314560  15.1374626  50.3793945  42.7210388  15.0670376  51.6558189
  36.1806984  17.9744301  19.7732677  36.5153656  17.0980129  19.5832081
  35.2411041  17.9146748  19.6005802  74.4305038  42.8394012  12.7501183
  75.2476959  43.1572647  12.3662033  74.6046524  41.9214058  12.9579248
  71.7361603  17.5309353  62.1776695  71.2013626  18.2196255  62.5725441
  71.5701752  17.6078568  61.2381172   3.4200950  14.5181293  46.8976593
   3.6216481  14.0661306  46.0783272   4.1131043  15.1723309  46.9870491
  79.5609283  70.1066589  57.7237778  78.9293671  70.5495224  57.1569939
  79.3079071  70.3631134  58.6105919  47.4556389   5.9799843  81.2603226
  48.0966949   6.2165709  80.5900192  47.3038406   6.7920456  81.7437973
  70.9287262  48.0590935  55.4826584  71.2895737  47.7629204  56.3183022
  71.3929520  47.5418243  54.8245087   5.2905765  15.2878771  53.7861137
   5.4122348  14.4873295  54.2965584   5.0682945  15.9547415  54.4358177
  54.0074921  31.7248764  12.4471273  54.2428284  31.7949905  11.5219622
  54.2825661  30.8430672  12.6980772  20.1359348  20.8239822  79.7118225
  19.6735210  21.6274300  79.4733276  20.4576225  20.4768162  78.8798218
  11.6050377  39.6066437  32.0256767  12.1456814  40.1386795  31.4418316
  11.5754356  38.7463722  31.6070023  10.1703653  23.8203850  88.6664200
  10.1767311  23.6440601  89.6072235   9.2437906  23.9192905  88.4475403
  35.8375854   2.9703240  28.0197563  35.8517990   2.2919934  28.6949577
  34.9289055   3.2706230  28.0010262  82.0743484  37.6854172  75.6486969
  81.1589737  37.9268913  75.5072250  82.3864136  37.4133453  74.7856598
  58.1750565  34.8991699  18.2616806  57.5122108  35.5895119  18.2786789
  58.8337440  35.2147560  17.6429977  44.0541306  35.2058487  23.9174385
  43.2246284  35.1448441  23.4436932  44.4624252  36.0046501  23.5836086
   7.9060373  68.2570801  25.8080559   7.6023841  67.3849792  26.0599880
   8.8463192  68.2441940  25.9867630  60.8561668  24.3556786  27.5635071
  60.4103851  24.1843853  26.7339478  60.2259941  24.8647137  28.0734024
  54.3254700  51.7094536  63.3601418  53.9556580  52.1850433  64.1039734
  53.9436722  50.8338737  63.4219322  51.3593102  50.2541008  28.3414536
  50.9797058  50.9877586  27.8578415  52.1225662  50.6272087  28.7824326
  18.1994286  10.8252192  65.6629639  18.6880322  10.6626644  66.4698563
  18.8698635  10.8653975  64.9809570  27.8419628   9.9397984   6.5353484
  28.4978523  10.4177732   6.0278239  28.0621738  10.1269226   7.4478855
   2.8749361  60.0017166  20.9786110   2.1446133  60.0785332  21.5925808
   2.6044605  59.3147163  20.3694248  57.4001122  20.3150158  45.2182350
  57.1573906  19.4441166  44.9038277  57.0259514  20.3649845  46.0978584
  53.4542007  67.9472275  19.0542889  52.7777634  67.3015671  19.2587147
  54.2787056  67.4744110  19.1677475  66.8112488  14.5864363  35.2384720
  67.1741486  13.7013683  35.2729797  67.3939514  15.0612841  34.6458397
  52.4834099   8.4451618  58.4903793  52.4048271   8.0038662  59.3361435
  51.9265060   7.9356732  57.9017296  32.7562981   4.5244222  14.2320080
  32.0360069   4.0377831  14.6327562  33.2328529   3.8697917  13.7215328
   4.8143339  36.9248085  11.8446636   5.5392470  37.2057152  12.4030752
   4.2190585  37.6742477  11.8298693  15.8297825   4.2077546  58.7171516
  15.8596725   3.4760821  58.1007156  15.4108143   4.9159689  58.2281418
  76.7206879  17.0786781  29.7772198  76.5632477  16.2441044  30.2187271
  76.2966690  16.9822617  28.9244919  64.8605728  52.6260834  26.6133842
  64.4143143  51.8448486  26.2866497  64.9549561  53.1874657  25.8438568
  56.3791122  14.6063118  82.2647095  57.2264099  14.3736572  82.6444321
  55.7359581  14.2290907  82.8649521  77.8709335   4.7512650  27.2869492
  78.1566238   5.6342182  27.5214787  77.2385864   4.5158763  27.9658928
  54.1716080  65.1009979  14.8176842  53.6312065  65.4142303  14.0923710
  54.0973129  65.7840652  15.4841166  70.8212509  51.9238052  23.8639946
  70.6291656  52.7841873  23.4910660  70.0792236  51.3784599  23.6027966
  26.8476582   9.5205097  22.2748127  26.6836414  10.4634008  22.2578583
  26.0918179   9.1541376  22.7338409   7.2870579  11.5156612  23.8315659
   7.7221899  12.2723169  23.4386749   6.3559723  11.6608791  23.6635685
   0.8443473   4.6878924  66.5807114   0.8667190   5.1544547  65.7452164
   1.0243518   5.3617682  67.2362442  84.8972168   1.9199660  32.7770958
  85.6880112   1.5193733  32.4159813  84.7151184   1.4171531  33.5709801
  72.5644989  66.7748718  29.7304554  73.4368591  66.3837891  29.7780151
  72.7104950  67.6403122  29.3484440  35.7956886  25.8420048  80.6732330
  35.0639305  26.3296032  80.2950668  36.5666313  26.3722057  80.4713287
   3.7292335  26.2174511  27.8636017   4.3564687  25.6936512  28.3620396
   3.8627882  27.1123295  28.1759911  57.4260483  66.1428833  43.9040604
  57.4616966  66.7162170  43.1383934  57.4867096  65.2581406  43.5438080
  38.6060638  17.1606884  12.9859095  38.0378304  16.4184837  13.1920071
  38.1864929  17.9087906  13.4108009  42.9356804  19.5763283   2.7124617
  43.5124779  19.3749886   3.4493463  42.8952789  18.7622814   2.2105405
  18.0824699  59.2015572  74.9151459  18.6796913  58.8094902  75.5522003
  18.6372490  59.7786446  74.3903351  64.4656372  21.3736382  22.9418697
  65.2567444  21.9123859  22.9301338  63.9792290  21.6453876  22.1635456
  12.8015823  26.9011974   8.5465479  12.1358728  27.4694405   8.9340544
  12.6951017  27.0168819   7.6023493  47.1457863   3.1907229  27.2927284
  46.5314827   2.4572937  27.3234386  47.4063644   3.3232214  28.2041969
  17.9525089  69.2711182  37.6928368  17.2710705  69.9338913  37.8051376
  17.5469189  68.6015167  37.1420555  29.6499977  36.1890450  76.7739029
  29.8295765  35.3916168  77.2719879  29.7100430  36.8932686  77.4194260
  78.2492218   8.3763351  16.0418701  79.1330566   8.0151796  16.1099606
  77.7063217   7.7796726  16.5571232  60.9211807  33.4704132  72.7545166
  61.8426743  33.4239120  73.0093079  60.9329300  33.8712502  71.8853683
  14.9439325  25.2890129  14.7099304  14.3802032  24.9128628  15.3859129
  14.8823938  26.2345486  14.8456020  78.6392059   8.6999454  44.7327652
  78.1396866   8.0922709  45.2781487  77.9829102   9.3022203  44.3823662
  80.4739914  57.5489197  40.1614799  80.0157700  57.1444511  39.4248161
  79.7807236  57.9585075  40.6790314  81.4278030  24.9268532   8.0733366
  80.9219818  24.1526661   7.8263378  82.2284546  24.8661137   7.5522752
  70.6256485   9.6564674  48.2275581  71.1425247   8.9130259  48.5379868
  69.8986588   9.2591991  47.7480812  57.6234589  67.3204956  77.2180481
  58.4132042  67.8201981  77.4250183  57.7877617  66.4509277  77.5828629
   4.1475191  16.0555820  87.5574799   4.9925961  16.3294411  87.2009964
   3.5619299  16.0400448  86.8004608  74.0067749  18.6239624  78.3672638
  74.5944824  18.8217564  77.6380844  74.5489349  18.7337894  79.1484375
  84.0246429  20.4894180  14.9640846  84.4402771  20.1793861  14.1594982
  83.4556580  21.2046146  14.6795130  40.9359932  63.2892609  48.8019295
  41.3027725  63.9489822  48.2133064  41.2562408  62.4558334  48.4568672
  59.7143593  60.6717262   7.6775799  59.5672760  59.9873314   8.3304234
  60.2921219  60.2659721   7.0312152  16.3244705  68.3542480  35.2958298
  16.1887589  67.4116592  35.1992111  16.8526688  68.5993042  34.5361023
  70.4710693  70.6318130  51.0455742  70.8957367  69.9773636  50.4909668
  70.9767685  71.4317780  50.9021950  15.3471155  34.7338104   5.4919233
  15.8886423  35.0178528   4.7555137  15.8375301  34.0121384   5.8855162
   2.4167659  19.4671364   2.1204312   2.2434435  19.2911263   1.1956547
   2.4545143  18.6009808   2.5261188  59.4937210  18.1993904  42.8118019
  59.0399933  19.0413933  42.8491173  58.8539314  17.5993290  42.4286194
   6.7082710  18.3289242  13.5620871   6.2174096  17.5986347  13.9388666
   6.1866012  18.6046314  12.8083773   6.3748274   7.4946785  36.8338318
   6.1783738   8.3239384  37.2696838   6.2524166   6.8319516  37.5135689
  20.6466656  61.2931747  58.9563560  19.9512444  60.7626953  58.5674973
  20.6203537  62.1168175  58.4693718  43.0382805  40.8846703  16.7387905
  43.4352989  40.4751320  17.5074825  42.1047745  40.9282532  16.9459038
  36.5107117  61.3445702  49.9900475  37.0900154  60.5904732  49.8806114
  37.0979385  62.0677986  50.2098923  23.3316898  27.9348526  16.9651470
  24.1134758  27.4099007  16.7934856  23.6626568  28.8247681  17.0865707
  58.7513390  12.8525639  77.9288559  58.2656593  12.4370766  78.6414032
  59.6711578  12.7416925  78.1694183  13.9320583  58.7488594  49.6369286
  13.0212851  58.7417564  49.3425255  13.8831396  58.9932899  50.5611000
  19.3383484  49.6399460  72.3079605  18.8056297  49.8187828  73.0828552
  19.0226974  50.2611923  71.6517181   6.8212919   3.9705408  36.0983582
   5.9391880   4.3358326  36.1668129   7.1454835   4.2840095  35.2540436
  23.7198067  67.7353745  34.5605240  24.5306129  68.2343292  34.6598434
  23.8586407  67.2066956  33.7747383  41.7561340  19.8392410  75.9862900
  42.4223862  20.0417252  75.3295212  41.4738770  20.6937389  76.3124771
  76.0933380  19.6739635  26.7074680  76.0296707  18.8424454  26.2376232
  76.9899673  19.9698658  26.5502300  85.0538025   6.2570710   5.6504130
  85.3441696   6.9166393   6.2804031  85.7036514   6.2937627   4.9485683
  45.4174004   5.8049693  65.6191406  44.7367973   5.5708356  66.2501678
  45.7974854   4.9671454  65.3549118  28.0026169  39.6003876  76.8090134
  27.3504887  38.9494743  76.5496368  28.6425533  39.1070023  77.3221207
   2.8941455  32.6405983  73.7623444   2.8969631  33.4851799  74.2127914
   2.0541174  32.6163521  73.3040924  41.1903381  57.3486404  15.6522274
  40.3192139  57.2682991  15.2637434  41.6070557  58.0569572  15.1614475
  15.5476713   8.5049191  58.3148727  16.0090885   9.2991018  58.5843163
  15.5557289   8.5361280  57.3582153  70.3489532  68.0600357  56.1216850
  69.9675674  67.7352676  56.9373436  69.6401825  68.5493622  55.7040367
  25.0651989  63.8929672  33.2447433  24.2861462  63.4469414  32.9125214
  25.2148781  63.5037766  34.1063423  72.3332901  50.6261063  73.1432037
  72.8746796  51.3964920  73.3153687  71.4992828  50.8188782  73.5715714
  14.9484358  69.6647263  65.7314377  14.8457642  70.4173126  65.1489334
  14.1357374  69.6401901  66.2365570  60.0204773  35.2325249   1.1403797
  60.8151588  35.7556915   1.2452958  59.4713173  35.4792366   1.8845484
  55.8163185   0.2236966  13.7918196  55.0083199   0.7249438  13.9019194
  56.3640480   0.4867893  14.5314178  73.8803711  37.3687286  78.7771988
  74.4794006  37.1091309  79.4772034  73.1332016  37.7564507  79.2328720
  25.7298050  29.8041286  72.7197800  26.6119976  30.1363621  72.5536804
  25.4704781  29.3909321  71.8962173  45.6422806  31.5781612  26.3678493
  45.5924225  32.1489525  25.6010723  46.5009232  31.1605682  26.3001480
  73.0954666  69.3692551  39.2208672  73.5097885  69.7417526  39.9992104
  73.2552414  68.4281464  39.2916565  14.0809746  54.6648331  38.0705147
  15.0257759  54.6869507  38.2224731  13.7464170  54.0574112  38.7303200
   1.2150524  41.9986000  81.0718460   0.3100528  42.2356224  81.2743988
   1.4213960  41.2941895  81.6862259  41.8526993  12.7552633  81.2986908
  42.2702026  12.9589348  82.1356201  40.9234734  12.6655235  81.5101547
  83.1366730  18.3507996  59.7480087  82.5110855  17.6265659  59.7670364
  82.6060410  19.1300564  59.9136124  65.0303497   4.0849781  52.5658188
  64.6744461   4.8488607  53.0197449  65.9309540   4.0161586  52.8826942
  59.7494354  35.8867416  87.4127579  59.8303986  36.8042717  87.1523438
  59.9892998  35.8787079  88.3393860   5.0655961  60.9404221  16.6372585
   5.1510701  61.8927231  16.5919743   4.2314167  60.7957878  17.0838642
  19.3607044   1.4181150  73.0320511  18.5441952   1.8291743  73.3159103
  19.1750507   0.4792620  73.0499344  -0.1532730  17.7278538  22.6215019
   0.6277286  17.6964607  22.0689774   0.1742966  17.9787426  23.4852066
  82.9225311  36.4740028  79.1789856  82.5102615  37.3361702  79.2331390
  83.4776459  36.5224190  78.4006882  57.1919403  60.5197792  14.0101576
  57.3070717  59.5806770  14.1552773  56.5158424  60.7778358  14.6366816
  40.4125595  42.6153908  76.2360992  39.8265533  43.3067551  75.9281387
  40.0613365  41.8135796  75.8488312  69.2585220   1.2299651  79.5911713
  68.4003677   0.8356792  79.4351425  69.1115341   1.8479835  80.3071899
  57.7749710  48.0675812  53.5848808  58.0784264  47.1761208  53.4132843
  58.0073929  48.2278175  54.4995041   1.3556617  39.2278290  61.2662392
   0.9313449  38.6392021  61.8905029   0.8054608  40.0110931  61.2635612
  60.6089363  67.6202545  81.8516388  61.2809982  67.9193954  81.2391968
  60.8137054  66.6970139  81.9997330   6.4656687  34.1360664  66.2353745
   5.9147549  33.5377502  65.7306519   5.9245124  34.9164734  66.3551636
  38.4052010  15.4836454  42.8163223  37.7987785  16.1862354  43.0505219
  37.8409462  14.7674532  42.5249176  63.5335655  44.1261673  20.7975388
  62.8811760  43.4298439  20.7216778  64.2449799  43.8519325  20.2188129
  52.3811226   9.1213884   3.9621460  53.0267105   9.2198410   3.2623222
  51.5812035   8.8476849   3.5133133  65.8976517  53.1841469  40.9243622
  65.1015625  52.7088318  41.1621590  66.1438675  53.6530190  41.7217140
  77.9148026   4.6064491  46.6624298  78.8477478   4.6970334  46.4684219
  77.6361771   5.4866090  46.9152565  37.4358444  10.2331038   0.5985119
  36.6893616   9.6541042   0.7526376  37.3871956  10.8793097   1.3029860
  26.6607895  55.0900154   7.7482281  26.6374683  54.3693390   8.3777609
  25.7825317  55.1042824   7.3678465  36.6681366   4.1798387  15.2435904
  37.5889397   4.3775048  15.0724630  36.3287392   3.8731225  14.4027777
  74.5824356   7.4659996  44.9831314  74.4514389   6.6049428  45.3801880
  74.9085999   7.2769213  44.1033058  82.8266678   1.9742121   6.9250460
  83.0162048   1.8192152   5.9996896  83.5056992   2.5860085   7.2094040
  24.0473919  70.8498993  24.5525894  23.2579918  70.4182281  24.2258854
  23.9629631  70.8142776  25.5053940  12.0272217  11.7138758  13.5561571
  12.8660240  12.0937510  13.2947435  12.2532873  10.8522320  13.9064388
  61.4451065  46.0327263  66.7372055  62.2614555  46.4553490  66.4703751
  61.6213608  45.7070923  67.6198883  21.7221813  12.5161972  86.1611023
  21.4600773  13.4131403  86.3685303  22.3783283  12.2991734  86.8233719
  45.3627815   0.5575594  15.3967943  45.8535233   1.3655821  15.2467833
  45.6448441  -0.0279451  14.6940451  49.8431244  56.7517319   5.0414948
  50.1361923  56.0704346   5.6466198  50.0753555  57.5730209   5.4748335
  35.2568245  10.0997295  10.3731604  36.1564751   9.7731619  10.3877649
  34.7203712   9.3328876  10.5741634   9.7616978  26.0457172  82.3853378
   9.5810499  26.9261589  82.0560608  10.5502119  26.1465225  82.9185486
  57.3115311  62.2953949  32.9772415  57.6834259  61.5073509  33.3733711
  57.5783691  63.0056152  33.5608635  79.3975754  50.9989433   7.9143939
  78.6701889  51.3132935   8.4513559  78.9825211  50.4612617   7.2399611
   9.7757330  14.4293976  33.4083252   9.6547184  15.2100849  33.9487991
   9.1977444  13.7747784  33.8002892  15.2647448  66.9964905   4.5666642
  14.7091618  67.7718201   4.4865232  15.1459608  66.7092590   5.4719920
   2.7092669  28.9308414  83.7962036   3.4790931  28.4355030  83.5164948
   2.0216687  28.2716713  83.8907394   0.6057292  69.1742020  12.0954323
   1.0757085  69.4367371  12.8869038   0.4981599  69.9862823  11.6002722
  46.1471939  55.0657005   2.3188407  46.3415718  55.3172874   3.2216995
  45.2413254  54.7576256   2.3457851  51.0330353   9.4407825  63.9852409
  51.0965614   9.8935966  64.8261642  50.5535812  10.0481367  63.4217873
   1.3933927  15.5039711   8.5621014   2.0708752  14.8533640   8.3778200
   1.7893068  16.3391361   8.3131380  56.5915451  30.7415714  56.9299202
  57.2464256  30.8941422  56.2486839  56.7975998  31.3844452  57.6085129
  36.8692513   4.1935029  85.6669312  37.3617439   4.3420582  86.4741592
  36.4295044   5.0267324  85.4978714  41.1955452  58.8464165  83.2896118
  40.6806831  58.0444717  83.2000122  40.6662216  59.5198669  82.8623962
  30.3669586  54.1199379  37.8252792  30.1830521  54.8757706  37.2674904
  30.8330326  53.5088959  37.2546349  55.0245819  47.6314659  60.5155487
  54.9526939  48.1450768  59.7110176  54.2680855  47.0453949  60.4939575
  54.9502716  70.7858505  38.1594086  55.8956108  70.9332581  38.1883240
  54.5907326  71.4133148  38.7865067  44.4273300  15.2135086  36.9456367
  44.8040466  15.9076195  37.4864960  43.4981918  15.2082491  37.1756592
  56.8726273  30.6014748  73.9674835  55.9654655  30.3080978  73.8824768
  56.9934311  31.2184982  73.2457352  12.7195969  16.8297558  60.7845840
  12.8500357  16.1092110  60.1681137  13.1722422  16.5493355  61.5800133
  52.4250107  52.4391823  65.5792923  52.8872986  52.8945885  66.2829437
  52.0727158  51.6519279  65.9944458  30.6442566  11.5305490  51.0006752
  30.8812866  12.3341703  50.5378151  30.1692181  11.0115633  50.3516579
  41.4089317   0.4604594  16.2342625  40.8915825   1.0808926  16.7477245
  40.7888680  -0.2285997  15.9956179  54.6645927  58.6175537  27.7974796
  54.7154198  58.3743515  26.8730869  53.9013977  58.1438332  28.1281624
  13.2090998  60.4954376  32.1609039  12.4380884  60.1288681  32.5937996
  13.5792322  61.1009293  32.8032570  66.3678665  26.2875214  77.5075684
  67.2669754  26.0627003  77.7469177  65.9882202  26.6440048  78.3106995
  10.5819006  24.1664467  38.0771484  10.0676241  24.2623596  38.8787422
  11.4921732  24.2108631  38.3698311  41.8113747  57.7117615  56.8556671
  42.4557343  57.2915497  57.4252777  42.3306923  58.0968552  56.1498032
  59.2230873  17.2637539  81.9870071  60.0889664  16.9041843  82.1798630
  59.0815201  17.0641022  81.0616302  17.5979443  32.6135635  19.7334309
  17.4321461  32.1820221  20.5715904  17.2748089  33.5062523  19.8555984
  34.7242165  24.7753754  83.1008835  35.1990776  25.4159565  82.5713654
  34.1275978  25.3005981  83.6341934  27.9242554  15.0765257  27.4351196
  27.9971809  15.3758326  28.3413906  27.7149563  14.1452246  27.5065632
  51.6342278  53.6422386  86.5230331  52.3877258  54.2325363  86.5276642
  51.4851952  53.4368477  87.4459763   2.6745064  68.8334503  87.3638000
   1.9148231  68.9794083  87.9275513   2.7990873  67.8844147  87.3707275
   4.7410817  20.6271534  73.1187973   5.5489688  20.2227535  72.8025436
   4.2123613  20.7538910  72.3309937  69.8140564  39.2433701  32.8229942
  69.6101074  39.3702049  31.8964138  69.0046692  39.4721947  33.2798958
  79.2754822   1.5334028  44.0259895  79.8692017   2.2718699  43.8903580
  78.8130112   1.4417669  43.1929474  28.6856976  28.2565060   8.0179129
  29.1302109  27.6711540   7.4047222  28.6318932  27.7550545   8.8314753
  85.2470322  42.3912964  81.4591141  84.4141388  42.8612938  81.4188461
  85.2436600  41.8310356  80.6830139  55.3840485  45.7991524  56.6907234
  55.1904602  46.0114403  55.7776566  55.8804893  46.5520248  57.0115967
  58.5811195  52.0936317  16.8477764  59.4392204  51.6901855  16.7169285
  58.2018776  52.1399117  15.9701271  61.1168861  58.0847778  80.3179245
  61.1181679  57.1556473  80.0878220  61.7977371  58.1670876  80.9856796
  59.0680161  45.8867950   7.5184860  58.1117706  45.9288254   7.5107536
  59.3170547  46.2541161   8.3665934  43.3229370  51.1885033   1.8757896
  42.7694283  51.4227867   1.1308277  43.8673439  50.4703293   1.5531809
  49.8158913  18.9961224   7.1163888  50.6508141  18.5297794   7.0755863
  49.1581078  18.3264561   6.9290462   7.6860399  64.0077896  11.3433342
   7.4833832  64.6507797  10.6638269   8.0299826  63.2536659  10.8645544
  30.2159595  43.5198174  72.1234436  30.7448711  43.5912476  71.3288498
  29.5788059  44.2305374  72.0517502   8.2516298  47.9815292   6.4210005
   7.3600907  47.7607269   6.1514883   8.2066813  48.9067039   6.6623802
  61.7892799  54.9285049  19.3260880  61.3225174  54.2844925  19.8586388
  61.4218864  54.8249016  18.4482956  50.4053116  13.2397070  25.7605419
  50.6550331  13.4877186  26.6506882  50.1059189  14.0557108  25.3596249
  10.3164806  43.3122940  32.8839493  10.0967093  43.9174385  32.1756210
  10.1201496  42.4456482  32.5281296   7.2488451  65.3335419  82.8854294
   7.5057764  64.6721420  82.2429581   7.5198088  66.1645126  82.4951859
  74.9457474   9.3275709  74.1700745  74.6504440   9.9984016  73.5544357
  75.8610992   9.5475998  74.3431549  27.4694252  10.7278233  57.8146095
  27.1291428   9.9039278  57.4658470  26.7438889  11.3451920  57.7214279
  65.1599884  53.4882278  31.1121082  65.0042038  54.4110794  30.9113464
  64.5059280  53.2741241  31.7773876  56.2317390   7.9353924  60.6458626
  56.2265320   8.8195801  60.2792320  55.3084984   7.7338934  60.7983513
  45.5895691  48.7781258  59.2273102  44.7552795  49.2184563  59.3894844
  46.2118454  49.4905128  59.0806465  71.2245178  16.6399651  82.2840958
  71.6340179  17.0766888  81.5372238  71.9477921  16.1989326  82.7297363
  49.7758141  66.0739670   8.7836275  49.4214859  66.8268661   8.3105249
  49.8744125  65.3958817   8.1152639  38.4756203  59.6400452  51.2099495
  38.5965385  60.2949181  51.8975182  38.9636230  59.9849396  50.4621964
  14.3683643  62.0825691  74.5133820  14.6864948  61.1993980  74.3262100
  15.1541290  62.5748329  74.7510452  52.3973694  61.8773766  43.1506081
  53.0741348  61.5103455  42.5818291  51.5823326  61.7525864  42.6644287
  55.9094315  11.1555433  25.3206577  55.4006424  11.3414793  24.5314846
  55.5027924  11.6934061  26.0000553  67.0657043  34.6264648  11.0231791
  66.7207870  34.4768906  11.9034595  66.9394913  35.5632591  10.8724623
  59.9453354  11.5023909  29.3035717  60.3599701  11.3699665  28.4510612
  59.1040611  11.9110308  29.0998497  14.5452099  64.8594055  69.1258774
  14.8547955  64.6822739  68.2376099  14.5936508  65.8115845  69.2109833
  59.5692253  51.8947296  69.2325134  59.7063255  52.7620583  69.6135406
  59.5198936  52.0523911  68.2896805  33.6411934   6.3195300  44.4002686
  33.3674164   6.1449385  43.4998283  33.5339203   5.4813986  44.8500023
  43.3669128  46.3256569  77.6087341  42.4121971  46.3107300  77.5414276
  43.5908585  45.4924088  78.0231857  21.8371429  51.9224815  65.6556015
  21.0271130  52.1304741  65.1899643  21.7323570  51.0091705  65.9222794
  85.5687790  65.1701584  51.9609489  85.8080215  66.0293121  52.3085823
  85.1649628  65.3585358  51.1137924  28.0165386   7.3367167  33.5895119
  28.4896946   6.5244403  33.4090614  28.1736660   7.5040493  34.5187798
   1.6070852  30.3178596  54.0574684   2.2509081  29.6758614  54.3567390
   2.1130183  31.1189785  53.9215508  43.2418823  20.1167793  80.1701965
  42.7806473  19.7078819  79.4378738  42.6694374  19.9734173  80.9238434
  42.2351418  55.0093536   0.6446683  41.3230171  54.7270203   0.5772564
  42.5548210  55.0040169  -0.2575560  12.0501137  57.2173843  29.6313343
  12.2010269  57.6085968  30.4918060  12.0222254  56.2752419  29.7981339
   9.1466160  52.7405434   5.4623795   8.5567579  52.0499229   5.1601510
   8.5659914  53.4103470   5.8235898  33.8870659  35.0383873  77.6395187
  34.6652756  34.5529594  77.3656845  34.2174149  35.9033737  77.8822021
  17.0326443  12.7275105  27.4753761  16.4832649  13.0174408  28.2036304
  17.0266743  13.4632845  26.8631401  73.5275955   9.4542456  85.5103531
  73.5710754   8.9166174  86.3011093  74.3373489   9.9645185  85.5228348
  -0.2443104  19.3372917  32.8457870   0.5898197  19.7748718  32.6755409
  -0.0271163  18.6401196  33.4646606  24.3757668  47.9927139  65.1503677
  24.4241638  47.3592186  65.8663101  25.2873631  48.2261734  64.9750977
  34.3153343  38.9968796   8.2604666  34.4417877  39.6153488   7.5409274
  35.0684929  38.4086609   8.2058544  24.1241894  68.2103729  29.6162529
  23.6821861  68.5219650  30.4060478  23.5692749  67.4992294  29.2959824
  40.2137146   9.3703108  59.0504875  39.8573608   8.4824114  59.0801201
  39.7776718   9.7785597  58.3025360  76.5314941   3.0685780   9.4693737
  75.6808243   3.4913406   9.5870857  76.5181961   2.7509181   8.5665178
  26.1902122   9.5804148  76.0451279  25.5981331   8.9330750  75.6622162
  26.9893169   9.0898647  76.2375488  20.3228474  53.5041313  44.5625267
  20.5235233  52.5906143  44.7661247  20.9138641  54.0093536  45.1208115
   0.8605677  35.2021179  53.6898727   1.1700433  34.8812141  54.5369110
   1.4427760  35.9333420  53.4835243  63.4827690  21.2557774  37.0991707
  62.9248543  21.8197079  37.6348419  64.2879028  21.7594376  36.9795227
  81.1205673  45.0151367  88.5850677  81.8858185  45.5377388  88.8248749
  81.0330505  44.3789024  89.2948380  36.8841019  59.6201897  25.5109539
  36.3739738  58.8890800  25.8594913  37.5031281  59.2129669  24.9049797
   5.4924364  66.2448654  15.5012417   6.1092563  66.5631256  16.1603870
   5.8579340  66.5419617  14.6679487  69.2578201  17.6163292  80.6149063
  69.7808151  16.9935417  81.1197281  68.4087143  17.1869221  80.5106888
  52.1460037  54.4835548  27.1290169  53.0425835  54.5891991  26.8108768
  51.6002502  54.6057739  26.3521976  12.1570053  49.4658585   1.6677639
  11.8408985  50.3458138   1.4628538  11.3875618  49.0076065   2.0056858
  39.5840187  59.4700012   5.1635032  39.6957245  58.5792618   4.8313298
  40.4764824  59.7933998   5.2866092  18.0331078  70.4145279  14.9895487
  18.6971283  70.5680618  15.6616621  17.8844910  69.4691849  15.0112162
  25.1002750  53.7829552  19.7669716  25.3813457  53.1455688  20.4234505
  24.4152794  54.2897415  20.2030697  74.6124649  58.6254845  12.6266012
  75.0195847  59.4700127  12.8196106  74.3020248  58.7097130  11.7250671
  35.5573730  10.2447605  56.3220596  36.0639572  11.0251026  56.0969582
  34.7524567  10.5859423  56.7118492   0.9238591   2.1277096   4.2644877
   0.2509924   2.2725313   4.9297013   1.7032496   2.5595584   4.6141863
   7.4224062  56.2677765  50.8225136   6.5263515  56.3169785  50.4895020
   7.3207293  56.1163559  51.7621765  12.4112511  38.3348579  11.1255293
  12.0969534  37.9376068  11.9377117  12.5514479  39.2553024  11.3477077
  18.1640377  40.7631836  72.1088104  18.5384121  41.6441078  72.1021500
  17.3171597  40.8595428  71.6732178  69.1531143  67.3434219   1.5130835
  69.1968460  67.0844803   0.5926129  68.5107956  68.0528564   1.5320570
  75.6180801   9.0635519  82.5338135  74.7896271   8.7892323  82.9270630
  75.4915771   9.9903975  82.3308716  66.9687653  55.0055923  16.6871109
  66.3731308  55.3815079  17.3352928  67.6010361  55.7021942  16.5104275
  60.4424820  31.2486591  52.7959900  60.0022888  31.0496254  51.9696426
  60.9334335  32.0509987  52.6186523  57.1827507  71.1110153   8.5678463
  56.9817619  71.4901657   9.4234629  56.3347969  70.8267593   8.2266703
  31.7420082   6.9833159  22.1822433  31.2962799   7.5471616  22.8144112
  32.4667168   6.5976968  22.6745090  77.9890823  57.6465569  83.4590607
  77.1018677  57.3441658  83.6530609  77.9514084  57.9290085  82.5452652
  68.0189972  18.4944096   7.6294546  67.7849579  19.3359127   8.0210285
  67.2607574  17.9341087   7.7948785  84.8935547  37.3260002  87.7136230
  84.8664627  37.8203201  88.5328522  84.4480667  37.8881912  87.0798111
  72.7058487  23.0542030  44.5921898  71.7761078  22.8996506  44.7593002
  72.7770996  24.0037746  44.4948807   6.8136072  70.4343109  12.9326019
   6.3741345  71.2481766  12.6861935   7.5521603  70.7150192  13.4729481
  54.4013672  35.2082863  34.8645859  54.1779022  34.7968750  34.0297012
  55.2851105  35.5518150  34.7333603  78.5460205  32.0358353   0.0849417
  78.2591248  31.4282970   0.7667187  79.1791763  31.5359802  -0.4303133
   7.0487423  14.6362963  48.2427368   6.4589396  15.0164318  47.5916939
   6.6121764  14.7906227  49.0804901  17.5173092  24.3333988  14.2152443
  17.6508427  24.1875172  15.1517906  16.6354465  24.7004395  14.1533594
  40.7628555  26.3977184  84.4741821  41.4555511  26.7182941  83.8965683
  40.6718330  25.4720440  84.2481842  44.7516937  62.4055710  39.7664680
  45.0931740  63.0370750  40.3995743  45.3557091  62.4584694  39.0257950
  19.5415154  63.3835335  34.9557343  19.3256378  63.8989716  35.7328796
  19.0958538  63.8338852  34.2382393  69.7527466  37.2501030  51.9744453
  70.4626770  37.3637428  52.6063652  70.0361786  36.5196457  51.4245949
  32.1771774   1.0748613  72.0247421  32.3919449   0.1527838  72.1657333
  32.4246368   1.2420712  71.1153259  46.6814232   5.3306584  41.8806076
  47.1722298   4.8415174  41.2202454  47.3513908   5.6716876  42.4731216
  18.4252224  13.2189512  11.9551907  18.8639183  14.0602341  12.0817652
  19.0550594  12.5706167  12.2701492   8.2354202  69.1003723  71.8879776
   8.0746050  69.2862473  72.8130875   9.0781689  68.6466064  71.8778305
  45.3964539   2.0267301  88.8529358  44.7801323   2.7095671  89.1177292
  44.8547173   1.3740097  88.4094162  41.2354126  69.2829437  30.9675140
  41.4358368  69.8554840  31.7079563  41.9892807  69.3725815  30.3845196
  51.1638870  49.7063103   9.4405260  52.0284538  49.6278038   9.0373039
  50.5864067  49.9617729   8.7211590  18.0380058  67.6693649  30.2482491
  18.0916862  68.6123505  30.0928822  18.0381432  67.2820206  29.3729248
  83.8121719  46.9059753  18.7597866  83.1824646  47.2504578  19.3930550
  83.5025635  47.2296219  17.9138374  68.6047058  15.0849638  10.5083237
  68.9004517  14.7126026   9.6775942  67.7446060  14.6911840  10.6545992
  75.8726654  19.3822346  83.1622696  75.2296219  19.0359612  83.7809906
  76.0804443  20.2549419  83.4961014  82.8817902   7.5146823   3.8863430
  82.4875870   6.7294645   4.2661724  83.7715759   7.5304685   4.2388458
  21.4308491  30.6155605  73.8679962  21.9022388  30.3634930  73.0739594
  20.8149128  29.8985195  74.0186920  54.3325768   8.9547510  19.0110321
  54.0594177   8.6457586  19.8748264  53.7854805   8.4646215  18.3972836
  52.4513855  57.3998260  32.0852928  51.8456726  57.7157822  31.4148312
  53.1686363  58.0336456  32.0779419  63.7495956  28.2781506  82.0433960
  62.9928169  27.9348316  81.5683594  63.5589142  29.2092819  82.1568298
   8.2669172  13.0615396  74.9373093   8.5374756  12.1523256  74.8094025
   9.0484867  13.4987154  75.2753296  60.0150108  11.1080809  19.4737511
  60.7975159  11.6579123  19.5137806  59.5300102  11.4364691  18.7166710
  81.9125366  61.5718575  38.8150864  81.2064514  61.7927818  39.4224243
  82.6457291  62.1225471  39.0896912  48.3224068  66.4798126  70.3638306
  48.4629402  66.4327469  69.4181747  49.1758003  66.2705307  70.7435074
  84.5149841   4.6759391  11.2728195  84.3720322   3.8675053  11.7649889
  83.6657715   4.8673763  10.8747978  11.7529230  59.9162560  72.0524902
  11.1342516  60.5617294  72.3943100  12.2944946  60.4073524  71.4346313
  15.6760397  24.2420502  78.7414780  14.8990250  24.7094746  78.4348907
  15.4538937  23.9653950  79.6304932  54.9805679   6.8415079  48.1967506
  54.2418098   6.6759162  47.6110458  55.0558662   6.0428696  48.7189941
  65.5196915  28.7720776  20.6093655  64.7610779  28.3615437  21.0243416
  66.2708511  28.2853012  20.9485264  27.5162849   2.1148736  16.4523487
  26.9865398   2.8141768  16.8352032  27.6544209   1.4981136  17.1712055
  60.5808983   0.1775409  27.0625954  59.8241425  -0.2921759  26.7119961
  60.4635735   1.0788033  26.7622738   0.7289982  59.4824142  85.3669662
   0.0221601  58.8879852  85.6184921   0.9779214  59.9172134  86.1825714
  38.3936844  18.3006191  25.1543617  37.5972214  18.7648792  24.8967896
  39.1029053  18.7966385  24.7454586  64.7060318  63.2522240   7.0491638
  64.5573425  62.5646172   6.4000688  64.3637238  64.0466003   6.6392660
  67.6836929  42.8259735  36.1450615  67.1562424  43.2578773  36.8169899
  67.1350174  42.8449783  35.3609505  20.4464607  67.4061890  22.4370499
  20.1909924  66.6941833  21.8505230  20.0216713  68.1820145  22.0711517
  80.3374939  65.0462875  50.6870995  80.0836563  64.7549133  49.8113708
  81.1022263  64.5132675  50.9045830  72.6183395  26.0500889  62.3613625
  73.3056793  26.5545158  61.9262199  72.2638702  25.4858208  61.6742058
  10.3520937   2.4363875  13.2809582  10.7100525   2.2361977  12.4160757
   9.4326420   2.6460235  13.1169672  18.1689396   8.7523909  84.9985428
  18.7741680   9.4939613  84.9973297  17.4957142   8.9937258  85.6347504
  55.7807655   3.4954224  53.6552963  55.3753624   2.9244921  53.0026741
  56.5587959   3.8429427  53.2192650  72.2033997  44.4311447  70.3115311
  72.0536118  44.6857834  69.4010620  71.3876724  44.0078201  70.5791473
  75.1409607   7.3770175  55.4633293  75.5068665   6.9225459  54.7045135
  75.8237076   7.3156958  56.1314087  52.7806511   7.2791371  42.2888031
  51.9386978   6.8663344  42.4809952  52.8617439   7.2257671  41.3365402
  82.9847260  37.3201752  39.7309341  82.4084854  37.5897217  39.0157242
  83.1971970  38.1343918  40.1871567  38.1519012  11.3631010  31.9465961
  38.6012077  11.0577164  31.1585007  37.8810768  12.2568874  31.7367611
  83.5567093  52.6934204  26.4053020  84.0199738  53.4925613  26.6562881
  82.6520233  52.8451042  26.6787395  74.5999298   4.5593405  15.3935194
  74.8199158   5.1699638  14.6899748  75.3816376   4.0157814  15.4920483
  51.4329910   1.3347362  52.5889893  51.6861763   1.2986486  51.6665878
  50.5473633   0.9720973  52.6086311  34.9135094  54.9005928  76.4884033
  34.7739830  55.5901527  77.1374588  35.8143158  55.0297699  76.1915894
  68.9982147  56.6643944  15.2763071  69.8714981  56.4854164  15.6249886
  69.1288147  57.3874893  14.6628685  12.0691175  23.3095016  82.8193207
  11.9873629  24.1361408  83.2949448  13.0084801  23.1255779  82.8184280
  69.9814835  59.8726387  23.8370819  70.0349655  58.9296455  23.9924450
  70.3730087  60.2664185  24.6167431  17.5674419  61.2022934  51.7304993
  16.6692047  61.5330162  51.7256470  17.5552330  60.4852219  52.3644485
  16.7480888  27.7011852  30.1744289  15.9257870  27.7430267  30.6625919
  16.6439743  28.3454323  29.4741898  38.3357697  25.4920540  81.8683701
  38.7738686  24.6410637  81.8792038  37.4176178  25.2910938  82.0495987
  39.7246552  62.4630890  58.1554108  40.4115906  62.3427811  57.4997597
  40.1946335  62.5173569  58.9875221   1.8832909  10.7640982  28.5864525
   2.7282877  10.3255987  28.4868011   1.8240429  11.3451061  27.8280640
  63.7657623   5.8319106  37.7991638  63.4110146   6.7175694  37.7217407
  63.0802307   5.3377647  38.2487221  63.8166351  35.5544624  13.3273916
  64.6860657  35.5735779  13.7273321  63.4916039  34.6714172  13.5029421
   8.3647633   5.0622649  12.1268816   8.4928646   5.7629223  11.4874277
   8.4635410   4.2555351  11.6212521  69.5361023  53.4071579  53.1889305
  68.6236954  53.6259346  52.9995079  69.6571884  52.5363960  52.8103180
  12.0446081  50.3806305  10.5270300  11.3220625  50.8935585  10.8890581
  12.2265615  50.7877731   9.6800594  10.5357676  36.8027039  12.5042257
  10.8701372  35.9257584  12.6923695  10.7639732  37.3172493  13.2784328
  75.2947769  26.0677032  51.9560776  75.1878891  26.3955021  52.8490219
  76.0460281  26.5508137  51.6119080  52.6156654  45.3156700   0.7362416
  53.3544884  45.6758080   0.2456560  52.7261009  45.6598740   1.6225587
  44.3720551  60.3382721  77.7900848  45.0261307  60.4310074  77.0974045
  43.5984306  60.7884293  77.4508209  61.0068016  47.4153748  42.4128227
  60.6592522  47.6124306  43.2826538  61.9207916  47.1773376  42.5683746
  37.9293938   9.0900097  34.8655434  38.2555275   8.2102575  34.6760559
  37.6540489   9.4317541  34.0148811  68.3541718   1.2218592  61.7739449
  67.8163376   2.0091810  61.6897354  69.2312164   1.5017644  61.5118752
  31.5837364  52.9425812  52.3399315  32.1575737  53.6938629  52.1898651
  32.1804047  52.1993484  52.4283676  81.1043015  17.8066559  81.2446671
  80.3440170  18.3708057  81.3858337  80.8456497  17.2319622  80.5242157
  79.3103027  15.5520868  37.3191261  79.0066147  15.9295492  38.1446724
  80.2532959  15.7162971  37.3132362  58.9995651  38.3269768  58.5861855
  59.2472382  37.4359970  58.8332596  59.5962524  38.8876534  59.0820084
  82.1342087  24.8410435  19.0725899  81.2434616  24.5855579  18.8327579
  82.1880417  24.6683388  20.0125408  11.7390985   1.1389426  41.8619156
  12.4886599   1.7342068  41.8548317  12.1258039   0.2679250  41.9514656
   1.8731455  69.4104614  33.7682953   2.7547572  69.7724915  33.8573341
   1.9616665  68.4957657  34.0361061  62.6503983   0.9993235  23.7947617
  63.3495636   1.2644846  24.3923283  63.0493774   0.3268099  23.2427025
  77.3770905   5.3192964  56.2296143  78.0820770   5.5668411  55.6313171
  77.4910736   5.8954115  56.9854774  32.7780495  70.0496826  73.2979889
  32.4281082  69.1588669  73.2833557  32.6369934  70.3476944  74.1966171
  16.2216396  33.5775604  77.0709076  16.8393631  32.8620758  76.9201508
  15.4554749  33.1547737  77.4588242  59.5620117  28.0556183  44.9675903
  60.3203926  27.4916210  45.1192245  58.8504295  27.4496956  44.7608414
  75.0068436  60.8556671  21.0470695  75.1713257  60.6021843  21.9553204
  75.2758942  61.7731667  21.0019855   8.2817316  14.8656588  40.2169685
   7.6293402  15.1231623  39.5655785   8.9875345  14.4699507  39.7056084
  69.4883728  66.9164886  38.3810768  70.1989822  67.5549469  38.4414520
  69.7191467  66.2403183  39.0180779  31.7784996  15.1445255  75.3185730
  31.9587727  15.0239019  76.2508774  32.6288490  15.3613014  74.9362869
  23.0184994  67.8038177   2.7044482  22.1632462  67.5220871   3.0291033
  23.2238369  67.1858215   2.0029185  40.3784409  36.3021393  77.9064713
  39.5263939  35.8672562  77.9400558  40.3276062  36.8695107  77.1372299
  54.2821274   6.5552158  54.6077499  53.6149902   6.9583983  55.1632729
  55.0643654   6.5221953  55.1584282  11.2253838  16.0748444  14.2132568
  11.2501526  16.1312790  13.2580433  10.3524399  16.3887615  14.4491768
  84.9490204  12.5330420  68.6676559  85.2474518  12.1174555  67.8586731
  85.0574570  13.4708052  68.5093079  55.1163445  66.0750427  45.5917168
  55.9569664  66.3066330  45.1968040  54.6600800  65.5804214  44.9109764
  26.3449612  69.4979782  49.3630981  25.4189663  69.2739944  49.4558029
  26.4068413  70.3980560  49.6828766  43.2541351   9.9958506  69.7736359
  43.5542870  10.8532000  70.0754547  42.4755783   9.8155432  70.3004837
  63.1144829   6.9256463  52.0750580  63.8382835   6.9264741  52.7014313
  62.4047928   6.4719353  52.5297203  85.1624069   9.6601982  49.8411674
  85.6725769   8.9465971  50.2242241  84.4985580   9.8609972  50.5008774
  33.9246635  69.6009521  42.1904106  34.3912697  70.2101898  41.6182747
  34.5501709  68.8937988  42.3482323  83.6288300  53.9023247  66.6774521
  84.5162659  54.0418510  67.0079346  83.0603027  54.2605209  67.3591461
  48.2905807  61.7144890  43.8408775  48.8676720  62.4677429  43.9666138
  47.4995499  61.9339905  44.3331413   2.4642854  36.6123390  46.3354225
   2.7959061  37.0093956  47.1407814   1.9379715  35.8703766  46.6332779
  31.7353992  50.7571297  80.4178543  31.3570671  50.8657303  81.2903824
  31.1155319  51.1918907  79.8322067  12.7103672  18.4757175  85.8020706
  12.2060146  19.2377014  85.5170441  13.3310537  18.8249111  86.4416351
  14.8556356  27.3406944  80.1446152  14.7081709  26.6457329  80.7861099
  15.7087078  27.7060604  80.3791504  42.0351257  39.6886253   7.4700232
  42.4726830  39.2336426   8.1895819  41.7221527  40.5056343   7.8583274
   3.4349573  55.6213913  79.1163025   3.4788105  56.2920532  79.7978668
   3.8473337  56.0274200  78.3538589  24.7163486  53.9557037  35.9135857
  23.8698063  53.5272903  36.0403175  25.3540287  53.2430458  35.9550285
  61.1776085  23.1697102  10.9851370  61.5011482  22.4881821  11.5742683
  60.2251205  23.0796051  11.0148354  46.4130478  69.1240845  47.8535728
  46.0620689  68.7652740  47.0385284  46.5552673  70.0517349  47.6652298
  60.8399162  58.8642769  46.6043625  60.8838387  59.1450958  47.5183868
  60.0752220  58.2897682  46.5667915  30.3434238   6.6625371  19.7961636
  30.7817574   6.6173482  20.6459007  29.6454754   7.3056684  19.9205971
  23.5531883  26.7370186   3.6361520  24.1030903  26.0998573   4.0920730
  23.9306507  26.7945290   2.7584012  64.8143997  29.1073265  56.8404808
  65.2890015  28.7906723  56.0718994  64.8742447  30.0609150  56.7828445
  75.5900879  68.9692307  48.9213066  75.9610062  68.5531082  49.6994400
  74.6999359  69.2088089  49.1791115  57.7182693   2.6473930  72.0156326
  57.0760536   3.1535168  71.5180054  58.5574760   3.0615311  71.8145065
   4.1659412  63.7177391  81.8632965   3.3487215  63.3281708  81.5524673
   4.6723557  63.8790894  81.0672226  80.3506775  30.7299309  87.6374435
  79.8228836  29.9704113  87.3908691  80.7267303  31.0381298  86.8129196
  56.5420456  57.3853798  78.8641357  55.6865311  57.8111992  78.9189529
  57.1414948  57.9961395  79.2929230  28.3431511  16.2533569  48.1981812
  27.5030327  16.2547321  47.7394524  28.3727379  17.0986614  48.6463051
  86.6576385  36.4096947  36.0941963  85.8351364  36.8247490  36.3539238
  87.2375183  37.1405029  35.8799934  68.7956467  49.9774818  31.4049473
  68.4182129  49.4714165  32.1244431  68.4739838  50.8682137  31.5440788
  48.6734810  69.2971191   8.9020853  48.9939690  69.8201828   8.1672888
  47.7301025  69.2297668   8.7546825  46.2700195  40.9656219   1.4440007
  45.3212776  41.0566406   1.5325606  46.5925560  40.9325104   2.3446140
  51.8697739   9.1293898  46.3910522  52.1956215   9.1116476  45.4911957
  52.6261253   9.3943110  46.9144859  77.9340286  27.1229343  56.3365936
  78.0261078  26.5550842  55.5715485  77.3824997  26.6246567  56.9397278
  81.3164291  10.7123108  49.4339752  82.0391159  10.9030752  48.8360100
  81.1781921  11.5304079  49.9113007  19.6966438  30.8697224   5.2292228
  20.0800781  30.5067291   4.4308200  19.5831490  30.1139050   5.8054962
   8.5610189  38.2265167  24.5998936   7.8311667  37.6996841  24.2743206
   8.9832211  37.6715469  25.2556286   7.8607974  39.5999298  13.6602373
   7.5836868  38.7523613  14.0081835   8.7696848  39.4634666  13.3927813
  43.0721245  43.3304024  15.2488213  43.4141502  42.5585136  15.6998625
  42.2210808  43.0524292  14.9101677  10.4340601  10.8722553  76.7075424
  10.8956871  10.8148851  77.5441055  10.8655472  11.5904312  76.2446442
  15.2277269  23.1913109  28.8395443  14.5896540  22.5068836  29.0411720
  16.0769596  22.7553673  28.9101696  78.8223267  47.0765381  37.1514435
  78.3379059  46.7690163  36.3852882  79.5876160  46.5033798  37.1968613
  11.2159710  68.0574951  11.0422115  11.5301886  68.3391113  10.1830311
  10.5329332  68.6894989  11.2664032  20.7529259   7.0063939  40.9158096
  21.1379452   7.4516315  41.6706314  20.6551933   7.6935272  40.2566223
  26.7083549   3.7806373  27.8566704  26.4474564   4.3455734  28.5840015
  26.0593338   3.0770738  27.8551311  17.3766632  65.6517334  87.4354630
  17.9515839  65.7810822  88.1897583  16.4934521  65.7733917  87.7838364
  69.5908585  28.1026363  26.7367802  70.1563034  27.4683666  27.1774673
  69.8850327  28.9530602  27.0630817  37.6193390  45.7208290  11.9808311
  38.0282974  45.2426186  12.7021475  38.3491173  46.1484871  11.5327635
   9.2998981  27.4827061  18.8055496   9.9304094  28.0231400  19.2815933
   9.8024778  26.7169209  18.5276661  27.2405300   8.1815577  86.4021072
  26.7004280   7.4050231  86.5487976  27.4596596   8.4904423  87.2812042
  50.8087997  46.4588242  22.0478020  51.0814705  47.3366661  22.3147793
  50.4841652  46.5702515  21.1542530  58.3707466  66.4486084  38.8429413
  58.3003006  67.0160294  38.0752792  57.5176239  66.0185852  38.9020271
  61.0211105  12.0583315  76.2099152  60.2541847  12.1327648  75.6420059
  60.7307014  11.5023069  76.9329147  75.8206558  28.1656094  77.2023544
  76.2108459  27.3927917  76.7940216  76.2011490  28.1904755  78.0803299
  20.9326420  47.2979927  37.3274384  21.6871243  47.8271637  37.0686646
  21.0568848  46.4650841  36.8724060  56.3163872   8.9278431  82.6666870
  56.0724716   8.9096575  81.7412643  55.4835472   8.8708839  83.1350555
  17.8566475   8.0369568   0.0684930  18.1550922   7.3792653   0.6966690
  16.9258423   7.8486538  -0.0513975  49.6697845  42.5154114  25.3578892
  49.5178375  41.7397346  25.8977661  49.2211800  42.3253822  24.5339489
  38.6460609  64.5831757  54.3475533  39.5223656  64.7234039  53.9888611
  38.1196327  65.2919159  53.9777031  50.8356895  61.8191071  13.4749298
  50.3087616  61.0475426  13.2669287  50.8790741  61.8288498  14.4310961
   8.4791937  36.3975754  60.9350281   8.7656174  37.2959480  61.0997124
   7.5276475  36.4275208  61.0345039  42.1918678  11.8755426   9.7228603
  43.0167809  12.2353678   9.3968582  41.5192680  12.2923889   9.1842661
  65.9995041  52.9314308   5.7594380  66.9486542  52.8189087   5.8112001
  65.8777390  53.8667374   5.5963125  35.3402405   1.9154173   5.5799212
  36.2899780   2.0283484   5.6184015  35.1523590   1.2424629   6.2341871
  53.7628250  40.9375076  21.8244247  53.8729515  41.6636887  21.2106152
  53.3869858  40.2328186  21.2967987  80.9130936  48.5545578   4.3483181
  81.0712051  48.0963707   3.5229130  81.6430206  48.2944832   4.9102716
  85.7486877  45.5547333  88.5450668  86.0895920  45.1989594  89.3656998
  86.3679047  46.2450066  88.3077240  44.6855202  57.9494781  12.6901178
  45.5050240  57.8284378  13.1696930  44.1956177  57.1419449  12.8454075
  36.0815430  25.9877548  41.7927742  36.8122368  26.0784874  41.1811447
  36.2896156  26.5915699  42.5057564  30.7310543  51.4184608  41.9960594
  30.2361221  52.1076202  41.5529633  30.0863380  50.7314224  42.1650314
  44.9150925  15.7373180  73.1053619  44.2221909  16.0021820  73.7103119
  45.6651573  15.5470982  73.6687851  46.3418312   6.5491009  27.5965691
  46.7551117   5.7713933  27.2215996  47.0688934   7.1476388  27.7679272
  75.7663269  41.8770866  80.7207336  74.8401566  42.0027199  80.5141907
  76.1660614  42.7314491  80.5579300  41.2399864  25.1258297  12.9353285
  40.8779831  25.2092915  13.8174963  40.5367241  24.7245350  12.4248228
  62.5173721  68.9146347  56.7474937  62.5260506  69.5862961  56.0655708
  62.6149178  69.4023590  57.5653229  70.7581482  38.1668205   5.5056977
  71.0152969  37.4733086   4.8981237  70.8085403  38.9700546   4.9875164
  37.5234566   9.8449841  60.9664536  37.3820381   9.5602894  60.0635796
  37.9201126   9.0876913  61.3970375  78.1918106  47.9122314  62.9663162
  78.0120926  48.6077461  62.3337059  77.3344040  47.6925507  63.3307686
  86.1526718  25.7257481  75.5566101  85.4976349  25.5108204  74.8925552
  85.7065353  26.3351288  76.1446991  45.2612686  45.4017563  69.3722992
  45.8759041  44.6726112  69.2898026  45.6110535  46.0768242  68.7907791
  28.9141941  39.6768608   1.0534986  29.0405407  40.4797058   1.5591762
  28.3951817  39.1122284   1.6262516   0.6698321  63.6595840  54.3745956
  -0.0340844  63.6796265  53.7262650   1.3261929  64.2675858  54.0343742
  54.0786819  53.1475296  20.9399490  54.7463036  53.8304100  21.0046577
  53.9576378  52.8448601  21.8399334   2.5987942  24.5301342  29.9171352
   3.3433073  24.4405251  29.3222370   1.8717417  24.1123333  29.4555416
  16.6873531   3.5923507  63.4461861  16.6725140   4.5367475  63.6015129
  17.6176357   3.3720641  63.3984261  60.1228142   3.5820498  17.2381229
  59.9714432   2.7071524  16.8805294  61.0148697   3.5485523  17.5835896
   1.4525878  40.8909988  65.4145050   2.1051142  41.0838318  64.7412643
   1.9497290  40.8751030  66.2323303  40.0918312  55.5226212  68.1766281
  39.4744301  56.1497231  68.5531769  40.0794182  55.7085762  67.2377472
  28.0997658   8.0052118  76.8819885  28.4362030   8.1269169  77.7698135
  27.5540142   7.2208400  76.9380951  24.9305115   9.4616032   6.8694615
  24.7289658   8.6605825   7.3531747  25.8589802   9.6181927   7.0416708
  85.1310730  10.0790453  79.8025970  86.0428009   9.8342876  79.9609604
  85.0507278  10.0994139  78.8489914  42.4956970  35.5386200   2.9997022
  41.6716423  35.2543068   2.6043172  42.4372559  36.4939194   3.0144074
   2.0946443  32.0408707   9.2053881   2.4954054  31.5563011   9.9270620
   1.3491818  31.5022621   8.9400272  43.0940819  51.5519791  85.3851166
  42.1766815  51.2829170  85.4321365  43.4283905  51.1262321  84.5956802
  33.3397675  70.5522919  17.5906582  32.6979866  71.2110443  17.8559685
  34.1336441  70.7834778  18.0728874  20.8241215  54.6962700   3.7338133
  20.1165943  54.7408257   3.0906553  20.5168781  54.0650902   4.3845406
  30.9776897   1.1769382  39.2148781  31.5722733   1.8744467  38.9388618
  30.8971653   0.6126084  38.4459343  44.6081238  59.6385193  10.6782598
  44.6329498  58.9517441  11.3445587  43.7109528  59.9706535  10.7099485
   8.1422997  10.2412481  14.7461338   7.8433509   9.6903715  15.4695950
   7.9251428  11.1328440  15.0184078  81.4999008  62.3381233  11.1521330
  80.7986145  62.1851234  11.7853899  82.1651001  61.6848640  11.3689280
  43.6930885   7.3319278   8.7543402  44.6365776   7.4643416   8.6620073
  43.6041412   6.7721825   9.5257053  50.5372543  37.9630356  10.6848125
  51.1785889  37.2555161  10.6189594  50.0148506  37.7417755  11.4557686
  12.8380966  46.4860344  55.5630684  12.5941019  45.5630341  55.6321106
  13.3970957  46.6435623  56.3239479  74.9952545  49.0011063  63.0926437
  75.3978882  49.8209152  62.8062363  74.3146286  48.8284645  62.4421310
  59.5476494  67.5691681  15.3501501  59.9290886  67.2947083  16.1840591
  58.8143082  68.1329880  15.5962334  40.1283073  69.6451721  38.8232880
  39.3444176  69.0967636  38.7917938  40.7181206  69.1858292  39.4210777
  64.0961990  45.0710487  77.2582932  63.3997307  44.4353409  77.0938568
  63.8459587  45.8387909  76.7443008  78.2009125  50.0228577  43.9153328
  78.2776947  49.0700607  43.8651619  77.2579498  50.1872635  43.9196472
  81.0333405  43.1623993  79.1547928  81.3088760  43.6027870  78.3508224
  80.4178467  42.4907303  78.8610992  46.8577919  15.4173784  20.6651688
  47.6847878  15.8674402  20.8376713  46.7759171  15.4239521  19.7115002
  80.7526932  15.9867878  14.1625948  80.6477661  16.2081642  15.0879135
  80.0171967  16.4186516  13.7281113  28.9859600  56.8246078  76.4913559
  29.5428696  57.2827187  77.1208115  28.1703701  56.6636734  76.9658508
  70.7554398   1.7992574  24.8577118  70.6221237   1.8629905  25.8034382
  71.6770859   1.5594237  24.7613754  11.8983288  52.3348465   4.1003008
  12.3477879  52.8846817   4.7420950  10.9842978  52.3333054   4.3845139
  38.8177223  25.0157452  75.7787628  39.3621101  25.6766357  76.2066574
  37.9231300  25.2396374  76.0353012  62.9022255  32.6893082  51.6082268
  63.5746193  32.0106163  51.6673393  63.3690948  33.5053177  51.7882156
  21.2926025  26.1593513  17.3644085  21.1351051  25.8909016  16.4592228
  22.0862980  26.6926727  17.3214188   2.7410870  51.5570831  25.3253918
   1.8219560  51.3730927  25.1315441   3.2297111  51.0116119  24.7089996
  81.4515762   2.0846810  26.5279808  80.8598480   1.6033684  25.9496765
  81.5566406   2.9378204  26.1068554  40.9497147   3.2178147  44.3120728
  40.8109970   2.8755164  45.1951485  41.6037140   3.9079444  44.4226952
  83.4967880  15.3510962  30.2560005  83.0856476  15.2625303  31.1158562
  82.9948425  16.0399113  29.8203182  -0.0647135  41.4622955  30.1360264
   0.0067116  42.1647949  30.7822666   0.7826364  41.0183754  30.1701775
   5.2153344  11.3729124  61.7696342   4.5271258  11.4461260  62.4308739
   5.9140573  11.9451313  62.0867805  10.1853962  32.9815712  67.5262222
  11.0442371  32.5591087  67.5140381  10.0530682  33.2811813  66.6268082
  52.1419563   8.1639566  76.3573380  51.6943665   8.6261053  77.0660782
  51.8157578   7.2658081  76.4135208  63.1323280  44.5347099  29.6608143
  62.6535759  45.1549835  30.2106266  63.5167160  45.0742340  28.9698792
  72.7690125  69.7182922  24.7369537  71.8741074  69.4956131  24.4804554
  73.3120346  69.3921814  24.0193138  55.3983574  71.2259293  42.0439262
  54.9195671  70.6007843  41.4996910  56.2830887  70.8651047  42.1012955
  36.3524513  26.6069107  75.3234406  37.0076866  27.2424660  75.0354004
  35.5750465  26.8122997  74.8041229   7.1289196  38.6329002   3.5026805
   6.8625288  39.4020233   4.0063887   7.9760919  38.8737488   3.1278162
  37.4371071   0.6267194  88.8101959  36.6363335   0.5669711  88.2892075
  38.0303879   1.1564294  88.2776031  64.7342148  23.3310165  71.1556854
  65.4385300  22.7850037  71.5050354  65.0128403  24.2280769  71.3397522
  75.5754166  15.8962831  70.3171616  74.8239822  16.4873009  70.2694092
  75.6038208  15.4750757  69.4580841  33.6248894  49.2097588   2.6482913
  32.7876587  49.1347923   2.1904085  34.1103554  48.4264183   2.3895750
  56.4730034  54.0990944  27.2101898  56.8568649  53.4712486  26.5980663
  55.7012863  54.4361115  26.7551079  40.5886803  59.2655754  42.3133430
  40.0446587  59.8755302  42.8115692  40.7804680  58.5580254  42.9288254
  40.0978355   2.1933489  78.0292358  40.4063072   2.8743961  77.4315338
  40.3826103   2.4871726  78.8945694  26.0512905  61.6898308  66.6658249
  25.2592850  61.5951920  67.1949844  25.7304611  61.7802277  65.7685394
  78.4226532  19.6217117  87.9574127  79.0093079  19.7724819  88.6985855
  78.8793869  20.0050030  87.2086105  53.2140274   7.3847685  67.8874435
  52.5658913   8.0876760  67.8419724  53.0148315   6.9277949  68.7045898
  58.0698090  55.4317741  33.9062500  57.2898483  55.8113365  34.3110123
  58.8007622  55.9014473  34.3079300  50.2708054  64.3708725  17.5827274
  50.3261223  64.5097733  16.6372757  51.0640945  63.8811264  17.7996807
  27.8698235  16.5606194  70.4149780  27.7799931  16.6519108  71.3635712
  27.5605907  15.6739712  70.2293396  57.8758659  29.4980297  37.8621635
  57.4715157  28.8387642  37.2981606  58.8156738  29.4004250  37.7089653
   7.9741893  18.6916962  27.9323158   7.4542789  19.4900703  28.0246372
   7.3496027  17.9810181  28.0774364  29.9874210  15.1007385  87.8978577
  29.5698643  15.7675781  88.4430161  30.8586674  15.4522877  87.7146225
  77.6982803  45.5959969   8.7574434  78.1246948  45.2313080   7.9819427
  78.3941422  46.0699768   9.2128048  65.4256592  51.6011543   3.3375056
  65.8567352  52.1739502   2.7032287  65.7329178  51.9124680   4.1889205
  65.4976044  16.1610146  86.7176971  65.2360840  15.4765673  86.1017685
  66.4324417  16.2858868  86.5542145  77.4238510  32.5844917  38.2251892
  77.7214203  32.4809303  39.1290474  78.0894318  32.1386147  37.7013321
  53.3853073  18.3079929  85.6992722  52.6655083  18.2229557  85.0740585
  53.7154617  17.4160366  85.8071823  20.0227680  29.7772217   2.4391243
  19.1501408  29.9065361   2.0675983  20.3609867  29.0014954   1.9918094
  75.2860565  12.6028643  75.1472244  74.4033890  12.4062920  74.8333893
  75.2915192  13.5524511  75.2675858  79.8712234  30.7449646  50.6157951
  79.0569992  30.5515785  50.1511726  80.4852600  30.0767918  50.3112717
  52.8709068  57.6440125  64.5319366  53.2327118  57.6981087  65.4164658
  52.0494041  58.1330566  64.5788574  23.6126099  61.7597084  16.7774258
  24.3876686  62.2537003  16.5100555  23.8228970  60.8504715  16.5645828
  19.0894699  20.2679138   8.2148018  18.7257080  19.7848186   7.4728260
  19.9454250  19.8667717   8.3653278   0.9610937  14.3371944  24.6069660
   1.7720585  14.7013836  24.2520943   0.5139818  15.0865898  25.0003223
  66.7866821  49.2346115  45.3925552  66.8260422  50.1755295  45.5638847
  66.0577927  48.9236832  45.9294624  31.4615250  20.1588631  17.5277786
  32.0962524  19.4542713  17.3977680  30.7751732  19.7663918  18.0673313
  73.3639526  26.2748146  21.2577229  73.1156464  26.7247505  22.0652714
  73.6019974  25.3914471  21.5391998  79.1030655  39.0082130  50.0554924
  79.3330688  38.7418861  49.1653252  78.8578720  39.9298744  49.9739380
  62.2078972  29.0584164  74.8665009  61.2551460  29.1424541  74.9043579
  62.3606529  28.3371429  74.2560425  21.3202095  10.3551712  60.3600006
  22.2743950  10.4295006  60.3753738  21.0923176  10.0171375  61.2260437
  83.2140808   9.6032629  59.8689690  83.3930588   8.7264891  60.2087746
  82.3384476   9.5382814  59.4878235  67.5017624  44.6158409  27.2239990
  67.8750229  44.2974205  28.0458984  68.2048874  45.1275482  26.8239861
  76.4524689  46.4458656  35.2945213  75.7284698  45.8442650  35.4681129
  77.0299530  45.9616814  34.7043495   7.0052781  55.3829231  88.2468185
   7.2561674  55.2782402  89.1646042   6.0482063  55.3918724  88.2596664
  48.6687889  57.6112709  19.0493031  47.9303818  57.2859230  19.5642185
  48.7259331  57.0104256  18.3063679  10.9260654  62.2089844  50.6719208
  10.4251480  61.4337120  50.9254341  11.8244514  61.8928642  50.5759811
  74.3041916  51.7328987  65.5304565  74.2256317  51.0782585  66.2243576
  74.3390961  52.5698547  65.9936142  33.4148903  24.6665363  23.4080944
  33.2825699  25.0417271  22.5374889  34.1995201  24.1255589  23.3190422
  37.2571220  52.6122208  69.6209946  37.7542953  51.9595680  70.1140366
  37.6746063  52.6309700  68.7598343  30.8983917  66.5288315  50.7286682
  31.1843300  65.6404648  50.5159035  31.1775837  67.0560455  49.9801140
  69.6871796  25.5366077   5.1092839  70.3956909  25.1837196   4.5710340
  69.8642731  25.2012959   5.9881678  76.6553116  70.2983246  60.0207367
  76.7198105  69.4001846  59.6960678  76.7904587  70.2218628  60.9652596
  81.0924225  48.5937881  18.5787029  80.4963074  49.1819420  18.1150780
  81.8333893  49.1480598  18.8236332  86.1145554   1.5719364  77.0205765
  85.1709137   1.6762851  76.8986130  86.4769363   1.6178166  76.1358185
  79.2211914  44.0276566  46.5010414  79.2405624  44.0435028  47.4579124
  78.3004227  44.1639938  46.2778244  13.8369589  69.1542969   4.1893520
  13.5273771  69.1547775   5.0951061  13.5299129  69.9870148   3.8308437
  27.6139603   1.3452455   7.6996651  27.4939194   1.9398596   6.9592218
  28.0370598   1.8808047   8.3707800  15.7272711  46.2355461  36.3216515
  16.2915211  46.9672279  36.0716591  16.2969284  45.6555595  36.8269577
  51.8002434  56.2011566   2.8661492  51.6372223  55.7211800   3.6781113
  51.3649559  57.0439262   2.9945867   0.3983095  24.4956703  17.0692959
   0.1830148  24.6059875  17.9954224   0.3275973  23.5532207  16.9175720
  21.1838665  14.9268045  66.4981384  21.5229664  15.7036247  66.9428787
  20.2808304  14.8496008  66.8060379   9.8217506  41.7172356  25.2681446
  10.5477180  42.3125687  25.0816479   9.1025934  42.0387650  24.7243938
  17.5048485  68.6692352  44.7956276  18.2113285  68.9926300  44.2365799
  16.7097187  68.8077621  44.2810326  53.5282173  65.3635254   2.7339642
  53.7220840  65.5297852   1.8114650  52.8665771  66.0168533   2.9611843
  55.6529465  57.0014534  76.2022400  56.0153999  57.2337494  77.0571671
  55.3670731  56.0934029  76.3020096  56.9993858   5.9505043  58.8547211
  57.2931366   5.1201167  59.2294197  56.7404289   6.4764276  59.6114082
   5.4071937  25.7780991  50.6579971   4.8333392  25.4364815  51.3437233
   5.1382699  26.6907578  50.5532875  33.3054581  55.9947624  36.2665672
  32.3655701  55.9027405  36.1104507  33.7069397  55.3253021  35.7126122
  57.9834099  11.2698135  61.0378799  58.2351036  11.0680799  61.9390907
  57.5426903  12.1175060  61.0963287  76.2473679  15.1150560  78.5514374
  75.4800568  14.5476561  78.4771271  76.5484009  14.9940739  79.4519730
  36.9118538  57.6655502  40.0033455  36.2367706  58.2800636  39.7154732
  36.6822929  57.4653816  40.9107971  38.6671448  23.9158878  78.8329544
  38.0669403  23.2774658  79.2181778  38.0965424  24.5992393  78.4812775
  60.8182487  29.8088474  77.6529388  60.1185684  30.1373024  77.0883179
  61.0638809  30.5607281  78.1919861  41.6851463   8.8621035  26.5332108
  41.7594185   9.7414761  26.9039116  42.5904884   8.5730705  26.4190025
  11.1697826  37.9658966  64.3749619  11.5639362  37.7666893  63.5257301
  11.4673023  38.8534622  64.5748138   1.3835227  44.0090904  62.5607948
   2.0391424  43.3258476  62.7006989   1.8431654  44.8256836  62.7560768
  79.2985687  13.8732929  20.5503540  78.7324829  14.1970968  19.8496914
  78.6946259  13.5057726  21.1956577  13.9793434  37.2988663  16.7177200
  13.5047054  36.8753204  16.0024872  14.1913490  36.5856667  17.3199120
   6.7869477  51.1167336   4.4331145   6.0554156  51.7311096   4.3728280
   6.7989531  50.6745720   3.5842438  48.1916466  47.2006187  28.9830208
  47.7577744  46.7706947  28.2460308  48.0432587  46.6132431  29.7241020
   5.4849658  11.9453115   0.0267522   4.8029237  11.2904148   0.1756154
   6.0461164  11.8867378   0.7999989  64.3853912  64.1711426   3.0280917
  64.5795746  65.1010132   3.1458526  65.1655197  63.7206955   3.3517106
  57.5667191  17.8183899  59.0671349  56.8581848  17.1748142  59.0718155
  57.5870285  18.1457195  58.1678696  30.1998730  26.9035568  22.2019196
  30.5614128  26.9602432  21.3174381  30.5299416  27.6845779  22.6460972
  78.1701584  33.7626152  24.1543388  77.9316711  33.2746506  24.9425297
  77.5352478  33.4797401  23.4962311   7.0454941  38.9867287  49.6027603
   7.6753688  38.6843529  50.2570229   7.5834050  39.2490120  48.8557053
  38.7778740  59.6821365  32.4639969  39.0445099  59.0923195  33.1691551
  37.8212318  59.6770554  32.4963531  48.5524673   9.7546434  78.6044083
  48.0629578   9.7070141  77.7832260  48.4147072  10.6499319  78.9137878
  25.8599606  61.0622787   5.3144088  24.9883919  61.3741074   5.5580492
  26.2779427  60.8444099   6.1475091  69.5223770  61.6046104   6.0687809
  69.0823593  61.5022659   6.9126678  69.4242401  62.5332756   5.8585687
  49.4119949  48.7273941  63.2928276  50.2853851  49.0132790  63.0250702
  49.3682861  47.8091545  63.0260735   8.7596064  16.3575363  36.1839752
   9.1167803  16.8684978  35.4576302   7.8140554  16.4974422  36.1330643
  33.4327354  28.4820175  21.5679436  33.4686356  28.7714291  22.4796371
  34.0969658  29.0085335  21.1231823  17.8249664   3.3255270  36.8441582
  16.8939724   3.1555972  36.7006111  17.9650898   3.1252093  37.7696152
  15.1524429  10.2323990  19.1321278  16.0734673  10.4508324  18.9898834
  15.1471329   9.2826223  19.2509899  14.7539682  39.0592804  86.9239502
  14.8502302  39.3742294  86.0251923  14.8592386  38.1101952  86.8577271
  26.5477715  13.9974041  37.3543854  26.6783657  13.1213827  37.7173767
  26.7643280  14.5897532  38.0744247  14.4838533  42.0945396  72.7429199
  15.3606005  41.9537163  73.1002960  13.8930931  41.7735100  73.4242249
  28.6706848  69.4639206   7.6725593  29.2037621  69.3272476   8.4557467
  28.6020584  68.5958633   7.2750607   6.6782169  22.2178135  77.9984131
   7.5753145  22.3514671  78.3043289   6.7722230  21.9866276  77.0743256
  12.7254658  63.8211899   9.5097237  11.9359789  64.0589142   9.0234833
  13.0341282  63.0192528   9.0879898  75.9345703  46.5679817  27.2132740
  76.4477081  47.2891121  27.5778198  76.2680054  45.7883224  27.6573257
  79.5763855  62.9168015  32.9907532  79.5617371  62.7295151  32.0521660
  80.4858170  63.1527863  33.1737289   0.6711981  62.2600899  62.8300858
   0.4498726  62.7361794  63.6304550  -0.0132529  62.5063324  62.2078972
  28.7770386  52.6067352  19.9985104  28.3817921  51.9998016  20.6243210
  28.0417671  53.1234016  19.6688709  24.7628174  25.7588730  22.0167751
  24.3893070  26.0947437  22.8315830  25.4565563  26.3807220  21.7970886
  62.9822197  16.0012226  68.9417114  62.6302299  15.4079466  69.6053085
  62.2625046  16.6033497  68.7528000  59.3826218  21.5714264  29.6201210
  60.1335297  21.1165352  29.2387505  59.2041512  21.0990582  30.4332924
  20.0100365  13.5504427  18.9009266  19.7453899  14.3896742  18.5242519
  19.9239388  13.6743631  19.8461590   3.7306771  11.5670509  34.5287590
   2.8106759  11.7695522  34.6985321   3.8435435  11.7324266  33.5927315
  62.1453018  41.7077675  57.8429871  63.0778084  41.5033760  57.7730637
  61.8483047  41.2131271  58.6067657  80.9971619  42.2742195  58.6691742
  81.2108307  42.6324043  57.8076172  80.8486099  41.3419647  58.5108566
  46.5899963  11.4943905  84.3574524  46.2098923  11.7348299  85.2024078
  47.4748192  11.1966972  84.5688782  59.4717369  42.2406425  68.2828140
  59.0365143  42.6841011  69.0109329  60.1852493  41.7513962  68.6924057
  47.2312660   9.8192406  76.3050003  46.2979813  10.0217829  76.2402802
  47.6085281  10.1675396  75.4971695   0.9177046   1.2957913   8.2980537
   0.9013022   2.2440813   8.4273176   1.6269835   1.1516848   7.6716447
  38.8937569   4.1970477  18.6933041  37.9955750   4.4997845  18.8269119
  39.3752823   4.9827070  18.4342613  65.3441315  66.0288849  37.8128815
  64.5928040  66.2255249  37.2533531  66.0997849  66.3498383  37.3207321
  59.9322090  56.7350464  55.7007904  59.9954033  55.8354912  56.0217896
  59.6855583  56.6441422  54.7803917  62.7136459  35.5116425  76.5157852
  63.5553818  35.2434921  76.1472626  62.2092514  35.8186607  75.7624207
  78.3180389  19.9550343  17.4623489  78.3441925  20.8597069  17.7739849
  78.0372238  20.0240593  16.5498734  79.2180099  57.7246666  19.1502476
  79.8286972  57.5771904  19.8724251  78.4624710  57.1754913  19.3595448
  24.7656822  32.6274109  21.2943306  24.7335625  31.7193356  20.9933319
  25.6874905  32.8731728  21.2161999   5.3237171  45.3201523  63.3211937
   4.9560452  44.5938759  63.8247490   4.7137213  45.4399719  62.5933304
  57.8917236  36.8054810  72.5994720  57.8753471  37.3141785  73.4101486
  57.4422340  37.3585854  71.9605179  83.9971695  19.1424789  31.8909302
  84.0811005  18.3559265  31.3519287  84.8928375  19.3437347  32.1620522
  68.0493622  58.3881683  74.5172806  68.4695206  58.4145546  75.3769302
  67.6713638  57.5104866  74.4622803  40.7725983   8.8438692  82.4818344
  40.9501724   8.0739861  81.9414902  41.6371078   9.2096834  82.6690140
   5.9001851   3.1826768   9.0091715   5.7462640   2.2388694   9.0512199
   5.6067266   3.4344351   8.1335392  73.1791000  51.0667763  18.6903114
  73.3824387  50.4069138  19.3532352  73.7681580  51.7947769  18.8884335
   3.8200104  61.2341881  45.3565598   3.9384880  61.6256294  46.2219925
   4.0629954  60.3157921  45.4737854  65.0795135  32.5059853  29.7900410
  65.4382629  33.3844299  29.9160118  65.0664291  32.3865242  28.8404140
  53.9024010  33.6422844  28.8854046  54.7901764  33.3166046  29.0338001
  53.8887367  34.5012970  29.3074780  76.1024475  65.2732315  10.8203106
  75.9707336  66.1401215  11.2042265  76.3338852  65.4479294   9.9080877
  53.3939133  25.3885517  13.5269985  52.6397705  25.4685898  12.9429665
  53.2700539  26.0824738  14.1745825   2.6393540   5.7871852  18.9640675
   2.7340786   5.0997691  19.6233978   3.5065827   6.1887708  18.9104481
  40.6911621  13.1412735  33.3140602  39.8191223  13.4574232  33.0777855
  40.6198807  12.9119883  34.2406578  50.7897339  18.7637100   2.5080607
  50.0923157  19.3776302   2.2779765  50.8452454  18.8110294   3.4624774
  73.1337967  38.0170364  66.5535889  73.9402542  37.5396423  66.7484055
  73.3840103  38.9396896  66.6019440   5.2870579  11.7854710  38.2447929
   5.6148038  11.8378954  39.1426048   5.1003160  12.6930351  38.0046158
  34.8774872   6.4277349  50.6065941  35.5366592   5.8524842  50.9949417
  35.0653839   7.2907166  50.9756317  30.8836403  55.2732506  10.1076069
  30.2498169  55.7431412  10.6495485  31.7319622  55.6366234  10.3616562
  38.9122925   1.2528285  72.2042236  37.9709511   1.3656801  72.3360443
  38.9937401   0.9614526  71.2960968  31.3227406  44.1637535   4.4546852
  30.7989845  44.9536285   4.3204870  31.4688663  43.8206253   3.5731289
  58.3983879  11.2604389  63.7463493  59.2307701  10.8625259  64.0013733
  57.7452049  10.8172121  64.2877655  24.5475025  50.2967262  69.4384460
  24.8266544  49.5082817  68.9729843  23.6885986  50.0721321  69.7963181
   3.4423587   3.0881069  78.1329269   2.5337989   3.3311787  77.9549789
   3.9563336   3.8260696  77.8050995  69.0462646  34.8285980  42.2759590
  68.5515823  35.4176750  41.7062988  68.4262695  34.1341705  42.4987030
  75.9156036  32.1385498   1.9249033  75.8587570  32.2235107   0.9731777
  75.4662323  31.3160248   2.1192048  74.5726013  42.1088562  27.4905205
  75.2695160  41.9673882  26.8497944  74.9738007  42.6590614  28.1632347
  73.9665070  23.8194218  22.4650612  73.0579453  23.5258751  22.5326672
  74.4431305  23.2681637  23.0856895  15.9133396  10.2900763  34.2369270
  15.1277542  10.3800888  34.7763557  16.1406136   9.3622389  34.2977295
   3.9107318  23.1528835  65.5469284   3.8382061  23.4707775  66.4468842
   3.6410816  23.8964329  65.0078049  83.5457840  19.9306011  53.1972160
  83.1010361  20.3218422  52.4453087  83.7068253  19.0241508  52.9352150
  43.0353279  40.2018967  82.5893936  43.2393188  39.9306793  83.4844131
  42.1587486  40.5818787  82.6481781  80.5661011  45.9995956  74.3248825
  79.8978729  45.3153648  74.3639450  80.5695953  46.2789764  73.4093704
  24.1775074  45.3224792  85.2144241  24.7452641  44.8806953  84.5829926
  23.8386040  44.6174393  85.7660599  51.3692474  45.9655838  80.4536285
  51.3796349  46.7060051  81.0601730  50.4778175  45.6216087  80.5108032
  80.0291901  48.0739746  27.9968452  79.2814713  48.6658173  27.9139843
  80.6995468  48.4540176  27.4290199  30.8599873  68.0645447   9.1085892
  30.9992256  67.1956100   9.4851551  31.3980656  68.0715485   8.3169746
  75.0491180  44.9043503   7.3911157  75.0428391  44.1199188   6.8426085
  75.5169525  45.5570793   6.8702450   3.1269333  18.9406376  16.0858116
   2.7417550  18.4425030  15.3648863   3.6082370  19.6485538  15.6575222
  25.0972481  47.3085785  18.3276749  25.4796200  47.0965691  17.4761600
  25.3702335  46.5902214  18.8983536  82.7296066   3.5759664  69.1359634
  82.8549500   4.3614655  68.6035080  83.1688538   2.8813622  68.6452332
   0.7714291  63.9552956   9.1128035   1.0602151  64.7014999   8.5874300
  -0.0058629  64.2725754   9.5725651  30.3529778  43.2487068  88.0226974
  30.3116150  43.4057007  87.0793686  31.2491913  42.9498444  88.1766968
  86.3323288  11.9417953  23.4732952  86.9041824  11.3643265  22.9675846
  86.8865967  12.6882086  23.7010765  75.0881958  39.7754517  46.2251015
  75.2368927  40.3852844  46.9477539  74.6746368  40.3066711  45.5446587
  24.1969318   1.7557248  28.9148026  23.9867077   0.9311727  28.4764519
  24.5261211   1.4928944  29.7743282  45.1773033  12.3610201  37.8539352
  45.2085762  13.0712242  37.2129478  44.2568817  12.0992279  37.8766403
  26.4080658  57.6314392  15.0261726  26.7318497  56.7818832  14.7267590
  26.8315716  57.7637863  15.8743219  16.8948803   6.3380628  63.0642204
  17.4582253   6.3145604  62.2907066  17.2849388   7.0091825  63.6242943
  39.4560814  71.0543594  65.6702881  39.6854935  70.5701752  66.4634857
  40.2838058  71.4313278  65.3719635  81.2460022  32.1128998  28.9061737
  81.5646896  33.0036278  28.7603321  82.0243454  31.5626850  28.8185501
  63.6540642  52.0845871  78.0817871  62.6985626  52.1002731  78.1365814
  63.9435577  51.9505615  78.9842606   8.5442400  31.2258778   3.6613576
   8.3034267  30.9003735   4.5287023   7.7895732  31.0192833   3.1099703
   8.8584728   8.8962545  48.1606445   9.6339445   8.5618591  47.7100296
   8.9045267   8.5100546  49.0352669  32.6029816  51.4169502   7.6083164
  31.6577435  51.4966202   7.4802032  32.8684807  50.7215805   7.0064831
  32.6641769  49.3506203  74.1909027  31.9577560  49.5438004  74.8072433
  33.2137299  50.1342468  74.2031937  76.3307877  35.8849068  53.2538223
  75.7892990  36.2280159  52.5429726  76.7578735  35.1145401  52.8791733
  45.8511810  29.2265949   8.5838728  46.2651100  30.0801563   8.7116632
  45.4499741  29.2824059   7.7166071  30.3989086   2.5437262  30.3418903
  31.2941360   2.5913920  30.0064354  30.0609531   3.4345546  30.2500038
   9.3707151  41.9492989  50.9717522  10.0870466  41.9393349  50.3369255
   8.6260777  42.3054161  50.4870567  73.1184845   1.5348511  53.2603683
  73.4557800   2.4290462  53.3140602  72.6094360   1.4222721  54.0631294
  71.3843842  56.4717331  84.1973877  71.3164520  57.3878021  84.4665298
  71.8500671  56.0447388  84.9164429  51.4015961  51.7179718  69.1129684
  52.0926018  51.5277290  68.4785004  51.8569756  52.1318130  69.8461838
  60.7348366   2.1168261  60.2956543  60.3817329   1.9754936  61.1740494
  60.9799271   3.0420165  60.2820396  76.3019028  14.5135517  72.3213272
  76.2512131  15.1793995  71.6355362  75.7234039  14.8366623  73.0121002
  52.2679291  65.8154755  55.3632355  52.4110641  64.9139481  55.6513214
  53.1208839  66.2377548  55.4651184  42.4772453   8.7087650  19.9263706
  43.0667419   8.3974075  19.2395077  41.8649673   7.9856901  20.0624409
  57.8812866  58.2051010  22.2148666  57.5006065  57.5511627  22.8011055
  57.7426682  59.0389709  22.6639481  73.2685471  32.5431442  58.9608383
  72.5166168  32.2605972  59.4814186  73.0582733  33.4409561  58.7040176
  86.2419586   4.0017495  74.5324860  86.8131943   3.3261611  74.8978653
  86.0095978   3.6746256  73.6634521  37.0217209   2.4961193  57.1381607
  36.4075089   2.0693283  56.5408134  36.9707870   3.4245715  56.9109726
  30.6766415   0.8333743  60.6581917  30.3005638  -0.0374685  60.5300140
  29.9187603   1.4146129  60.7215080  65.7101669  13.6967764  76.7294006
  66.6202316  13.9474220  76.8880997  65.6151962  13.7296305  75.7774887
  33.0582695  65.1689758  56.7968521  33.1340408  65.6187134  55.9552879
  33.9195518  64.7753677  56.9364738  82.0494003  67.4268799  69.5428543
  81.6859818  67.3409042  70.4241943  81.3665085  67.8763504  69.0449905
  77.2804337  33.3967590  84.4138641  77.3033524  32.4481735  84.5399246
  78.0662079  33.7163620  84.8573151  31.7571545  69.8003006  67.0018234
  31.2040691  70.3551559  66.4518509  31.7780037  68.9578781  66.5478210
   8.9468870   6.6894040  39.6753044   9.2917166   7.5399261  39.4033890
   9.2891417   6.0738530  39.0270844  49.6285095  40.3751526   9.5540304
  49.7261810  39.4704742   9.8511086  50.1471291  40.4207954   8.7507973
  70.2738571  66.1063309  59.9879494  70.5442352  65.2097244  59.7898979
  71.0415573  66.5024643  60.4002113  36.6021194  19.9985065   1.0992806
  35.9813156  20.6077080   1.4989108  36.5306854  20.1658478   0.1595327
  31.1907616  52.1902351  74.3361206  31.1188374  51.3034935  74.6893158
  30.6888390  52.1650085  73.5214615  80.1729736  48.9229965  23.2305126
  80.8093719  49.3963127  22.6945992  80.5753403  48.8797951  24.0979614
  43.4535332  51.8130913  48.5155754  44.0085411  51.3949242  49.1738586
  42.6337891  51.3197556  48.5450554  55.9478264  20.5188465  73.8601608
  56.0742188  20.5738449  74.8073883  55.2775002  19.8450394  73.7466965
  43.9180527  67.0227890  46.6955910  42.9824486  66.8315964  46.7613869
  44.0878220  67.0673218  45.7546234  76.2008438  10.9042778  86.1707077
  76.7873993  10.5192919  85.5195770  76.4852600  10.5259552  87.0027008
  45.0738144  54.3673592  66.9437637  45.3556671  53.5050926  66.6383362
  44.1595688  54.2439728  67.1990433  36.3063889  64.6423111  12.4379377
  35.9803658  64.8694000  13.3087826  36.6896973  65.4543457  12.1064205
   8.7829628  66.0998993  39.1034660   9.3201933  66.8643341  39.3114548
   7.9966283  66.2069931  39.6386681  37.5750771   6.7263346  68.4784241
  37.6223488   6.5168819  67.5456161  36.8298798   6.2191000  68.8003311
   7.0123806  44.6600304   7.5459452   7.1101952  45.0501709   8.4145384
   7.6658101  43.9609528   7.5224175  81.4254532  48.4765358  13.9782362
  80.8170090  49.1806259  14.2024879  81.6912003  48.6670952  13.0786266
  44.5090904  18.4875946  14.3342085  44.5038300  17.9891186  15.1513529
  43.9341469  17.9943657  13.7490625   4.8121862  70.2037582  10.9562531
   4.2678838  70.5945587  11.6398020   5.5190830  69.7683716  11.4326687
  76.0116348   7.0024238  21.0545483  75.7057419   7.4719419  21.8305721
  75.7488327   6.0943737  21.2049255  32.8292160  10.0469522  50.9700317
  32.6771507   9.3435993  51.6012230  32.0348930  10.5796442  51.0090408
  17.0618324  71.6149826  12.9448853  16.5206642  70.9768448  12.4799747
  17.4183788  71.1297836  13.6889839  60.5982552  56.6359138  48.8598366
  61.1797142  57.3196831  48.5272789  60.2028008  56.2554665  48.0755539
  70.1118851   7.6232023   5.8971782  71.0038147   7.8712440   5.6539364
  69.5523682   8.1717463   5.3473887   0.8409033   0.6041687  34.0828934
   0.5256749   0.8226399  34.9598961   0.9549643  -0.3460715  34.0991936
  43.1123543  12.6593828  54.2429619  42.6983261  12.0000820  54.7998581
  42.8072701  13.4957399  54.5946159  46.0718956  10.3366795   1.9509236
  45.8121567   9.4392242   1.7427368  45.7232552  10.4892969   2.8292122
  13.6409731  23.5828762  87.3565445  13.8680134  23.6727734  88.2820740
  13.7708874  24.4583263  86.9919357  25.6643562  67.4447403  61.1265793
  26.6104603  67.2996445  61.1346436  25.5565910  68.3399506  61.4478645
  34.1687584  51.7625046  87.4779587  33.9396553  52.6264954  87.8203964
  33.9232483  51.7984619  86.5534821  35.7195778  56.7428169  14.8651047
  35.6940575  56.2141609  14.0675440  35.1203804  56.2994423  15.4656162
  78.0849533  67.9059677  59.5234489  78.0021057  67.4884796  58.6660843
  79.0244293  67.8930588  59.7063522  70.8884354  71.0394440   0.7370265
  70.6937256  70.4314041   0.0238571  71.8270874  70.9340134   0.8921103
  29.0377598  13.4259424  48.5177116  29.8679447  13.5360422  48.9812889
  28.5823784  14.2588263  48.6408615  56.7226524   3.3648615  37.1858788
  55.9373245   3.9064801  37.2642517  56.6990547   2.7960160  37.9553528
  70.5220795  43.1622429  37.9745255  69.5901566  43.0693741  38.1723137
  70.5437317  43.5776939  37.1124573  50.2519417  57.4900208  40.8404694
  50.8240547  58.1535110  40.4548492  49.8379822  57.9322014  41.5816460
  64.4270630  29.4902992  38.8402977  64.1840363  30.3787651  38.5799103
  64.0321503  28.9287472  38.1732635  62.2602730  34.7383385  64.7352524
  61.3140640  34.5952568  64.7564392  62.6285515  33.8764381  64.5410156
  82.8856812  14.3104420  79.4275665  82.2745514  13.5739098  79.4439774
  82.8357697  14.6827402  80.3079834  26.8705196  25.4504948   6.6366119
  27.8019428  25.6711330   6.6380205  26.8023052  24.6956539   7.2212429
  79.4927444  55.7959671  84.5705109  78.8065567  56.4402275  84.3964233
  80.1481857  56.2751923  85.0774384  64.6940842  11.3677816  34.1001015
  65.0781708  10.5092268  33.9223633  63.7536659  11.2398729  33.9756317
  76.0528717   9.3125353  29.9145222  75.3328400   9.8616219  29.6042213
  75.8768005   8.4507475  29.5369606  78.0754776  13.4027824  51.8013268
  78.4811707  14.1021194  51.2889099  78.0044327  12.6689062  51.1909103
  25.1324921  10.7436619  63.1120682  25.7204456  10.0117025  63.2985535
  25.6144619  11.5180082  63.4024544  68.0202332  54.0782280  26.1208076
  68.2599487  53.1642036  25.9680882  67.3031693  54.2432861  25.5085907
   2.9312496  69.8364334  46.5211449   2.7442596  69.5664902  47.4202538
   3.7938533  69.4659653  46.3343315  69.3365173   8.5007334  89.1524887
  68.3881607   8.5483074  89.2732620  69.5030365   9.0117865  88.3604507
  63.3176079  30.3585377  83.8667908  63.0842514  29.6694031  84.4887772
  63.9905853  30.8693695  84.3166580  32.2356987  38.5242500  11.5625019
  32.8172646  39.2728195  11.4296131  32.4796410  37.9061546  10.8735285
  50.2202148  39.4456673  23.8631592  49.8148270  39.6726646  23.0262814
  49.5242310  39.0115585  24.3564987  39.1703224  52.0805855   5.1722279
  39.5455208  52.0032043   4.2950335  39.1209602  51.1797104   5.4919410
  11.7733192   3.1476214   2.5125597  11.3520384   3.9832385   2.3113165
  11.8560514   2.7108183   1.6648626  69.8194504  20.3426342  84.1234055
  70.7385635  20.5614624  83.9698181  69.4574661  21.1173038  84.5536270
  18.1111851  11.2809401   4.8109207  18.1124458  11.0347643   3.8859191
  18.6180191  10.5931301   5.2425108  76.7281647   7.1301026  41.9953003
  77.5473633   6.6375523  42.0456772  76.0602951   6.4669375  41.8209686
  19.7187958  28.9670277  54.0917015  20.5037537  28.5573902  53.7280159
  19.0449810  28.8259716  53.4266396  15.6214476   1.7566736  52.3462257
  15.3972883   1.6250381  51.4249992  16.4822865   1.3496479  52.4437866
  76.6431961  42.0364876  69.3608093  75.7032089  42.0606689  69.5399017
  76.7714767  41.2290459  68.8630066  78.9106598  62.3997231  75.9846954
  78.7109833  61.5915909  75.5121613  78.1379929  62.9497833  75.8556442
  71.0796661   6.4028740  68.5289841  70.7354507   5.8255086  67.8475189
  70.5228119   6.2347097  69.2891617  51.8186264  63.6548080  32.9780273
  50.8622551  63.6298027  33.0090523  52.0693207  62.8001060  32.6275024
  59.0427094   9.1273518  75.8350677  58.6183891   9.0198040  76.6863174
  59.7498016   8.4821787  75.8367004   8.0082397  40.9188385  78.8087082
   7.5785356  41.6776619  78.4140167   8.9357758  41.1541290  78.8321075
  70.2418671  13.4273596  13.1830282  70.7317810  12.9987459  12.4812384
  69.4249802  12.9319286  13.2420311  72.5354614  26.6547127  53.8240204
  73.4257355  26.5885582  54.1693726  72.1734543  25.7743530  53.9247551
  16.4065914  31.3721752  86.8504562  15.9288483  31.4828148  86.0284119
  16.1824112  32.1481705  87.3640747  73.3293686  64.6419830  57.2930870
  73.8700638  65.2679672  56.8113976  73.9557037  64.0212250  57.6653748
  13.2764654  29.2778015  22.9839554  12.6122684  29.9500122  23.1362934
  12.7940292  28.5481529  22.5952396  33.0830498  17.7143002  24.2763443
  32.7227898  18.1165714  25.0666752  33.7044487  18.3603764  23.9406681
  77.4933395  18.9632359  33.1916161  77.1704407  19.6481113  33.7772064
  77.6055450  19.4022923  32.3484840  81.0978699  11.2162914  77.7709732
  80.8834152  11.7852106  78.5102768  82.0469589  11.1033688  77.8230820
  57.6450424  11.5478868  74.7248611  57.8415108  10.6373653  74.9452744
  58.4763374  11.9028034  74.4098816  16.0589237  64.4400024  66.1155701
  16.0268764  65.2281113  65.5732651  16.9555359  64.1190872  66.0189667
  34.2316246   5.5482087  88.6777802  33.4710770   5.6451254  88.1047058
  33.8805618   5.1565051  89.4775009  57.7039680  55.2718506   6.0864606
  56.7483749  55.3162346   6.1196713  57.9008675  54.3352280   6.1004829
  53.2406120  65.2136078  25.1696529  52.7077217  65.9221802  25.5304623
  53.1798859  64.5134659  25.8195305  34.5406685  27.9879742  10.9156437
  34.8445473  27.7274742  11.7851439  33.5945358  27.8448639  10.9397602
  32.7095718  69.6719055  52.8437576  32.2734528  69.7094803  51.9925079
  32.2881012  70.3594742  53.3593597  10.2158518  47.6449394  62.3392639
  10.7187881  48.0986900  61.6629524   9.3130875  47.6671982  62.0218468
  75.3086624  22.8784542  56.4023705  74.7048264  22.8231525  57.1430130
  76.1780701  22.8915348  56.8026199  20.5914326  37.7426453  79.0466232
  20.7880516  38.4209518  79.6927414  20.5539608  38.2102814  78.2122726
  79.0972672  30.8690338  55.1019058  78.5811691  30.4406090  54.4190254
  78.9856186  31.8049088  54.9348640  71.0009308  56.0945435  74.7035980
  71.1642303  56.7572708  75.3746872  71.4546509  56.4228668  73.9273376
   5.0906711  54.5166168  28.4496918   4.6586828  54.3621216  27.6096020
   5.5166469  53.6847534  28.6565285  12.5600786  51.7438126  85.9542847
  12.9638376  50.9594612  86.3257751  12.3987522  52.3103905  86.7087402
  77.6655350   9.2599792  26.3407536  77.7308044  10.0966902  26.8010654
  78.2271881   8.6673384  26.8403034  76.1868515   9.6968517  35.7135048
  75.6998520  10.0721569  34.9798775  75.6776962   9.9379826  36.4873581
   8.9143562  31.9440861  63.1502190   8.8119755  32.8897095  63.0427780
   9.3760061  31.8462448  63.9830093  86.6004562  59.8827095  80.8435287
  86.8125076  59.0107346  80.5104828  86.7218170  60.4623680  80.0915298
  49.8132973  65.3831024  61.4874268  49.3586540  64.5752182  61.7258759
  49.1170311  66.0350266  61.4071846  15.8963728  67.2617493   0.8167379
  16.6912384  66.7376556   0.9154310  15.3550339  67.0196686   1.5681244
   8.2674093   9.0232916  50.8258057   7.6380019   9.1328983  51.5385933
   8.7733612   9.8358459  50.8259850  32.2061310  10.9370251  48.2619095
  32.5362473  10.3287697  48.9231834  32.4263268  11.8039684  48.6027260
  23.4416656  16.2194424   3.5608566  23.0020084  16.4831982   2.7525463
  23.1903515  16.8871136   4.1990466  46.3204422  68.5243530  11.1793232
  47.2259254  68.2277603  11.0878496  45.9535828  68.4490128  10.2984314
  73.9527893  12.8942242  16.9981384  74.6856384  13.0397654  16.3998280
  73.1777802  12.9133253  16.4366817  73.4882507  13.2682114  31.7011070
  72.7130661  12.9661436  31.2277451  73.2448959  14.1326885  32.0323029
  11.3277550  45.1533203  78.9948044  12.2024574  45.4738617  78.7748489
  11.3092985  45.1451416  79.9517899  18.4454460  40.7250900  25.1563663
  17.7579060  41.3888512  25.2106190  18.9198627  40.9368172  24.3524170
  73.8613052  54.6396980  13.7995338  74.2503967  54.1519623  14.5254459
  72.9172516  54.5587234  13.9353228  37.4949379  10.2435045  52.3544769
  38.1296082  10.5220699  51.6943054  38.0069046   9.7249498  52.9751396
  73.8393936  54.9416809  16.8433247  74.0544434  54.2970772  17.5174675
  74.6872253  55.2091064  16.4885006   1.1964338  36.0444260  28.8034210
   1.6081121  36.6624794  29.4073772   1.9074515  35.7620392  28.2281437
  83.6835938  17.2994385  18.1103115  83.5500488  16.3516560  18.1204815
  82.7994156  17.6657448  18.0939121  37.9704208  52.4233894  58.6846313
  38.9248505  52.3677673  58.6377373  37.7999535  52.9786491  59.4454613
  10.8244190  38.2659531  69.0299683  10.0368328  38.1749763  68.4936218
  11.1850023  37.3805733  69.0781021  73.2529602  55.2653809   3.3507006
  72.6683884  54.7447052   2.7998834  73.9856110  55.4899368   2.7770939
   6.1680799  17.3417625  86.3522339   6.5897393  17.4066486  85.4953690
   5.6668696  18.1530800  86.4345856  23.9418678   6.6625590  45.1304855
  24.2506638   5.7991447  44.8559113  24.6999092   7.0641527  45.5551376
  82.5155869  59.4745712  26.0974369  83.1922836  60.0690994  25.7736359
  83.0017014  58.7523537  26.4953308  50.6477013   2.5198457  12.1476498
  51.3210678   1.8568189  11.9953079  51.1310654   3.3443303  12.2007217
  78.0702667   5.4020114  34.6553993  78.2632675   4.8826256  33.8748703
  78.9036102   5.8161459  34.8796043  23.4683800  59.0530357  22.0002251
  23.5243378  58.1062431  21.8710651  23.6120052  59.4225235  21.1289711
  66.6298752  16.4526711  31.2898731  66.0539169  17.0803204  30.8533382
  66.0540314  15.7274332  31.5320721  59.9020004  20.8758354   8.2291975
  60.4217300  21.5538464   8.6609564  59.2674561  20.6022968   8.8915863
  22.7465172   3.0640416  69.0317154  23.4001808   2.3866212  68.8583374
  22.0919704   2.6306975  69.5794449  24.5949135  52.4543495   0.2349304
  24.1297913  52.8958855   0.9455210  24.5934277  51.5304947   0.4853758
  35.9415932  67.8551712  69.7685013  35.3150101  67.1451340  69.6289749
  36.0317574  67.9115601  70.7197723  62.6052017  70.0279846  82.9757233
  63.0591507  70.8495865  82.7882767  62.8233948  69.4598312  82.2369232
  72.4036102  25.9759655  47.6319160  72.1522598  26.4218159  48.4407883
  72.9218674  25.2257175  47.9230652  20.2789421  61.6352959  85.1269836
  19.5968876  62.2172966  85.4621048  21.0525417  61.8471718  85.6493607
  61.9525566  63.6427040  47.7007942  61.9332771  64.2455063  48.4440918
  61.0388870  63.3854179  47.5773125  22.3683681  59.1325989  59.4503250
  21.8512764  59.9111824  59.2437973  22.6309052  58.7862701  58.5974693
  57.3590431  67.4840927  41.5786285  57.6681747  68.3890381  41.5368423
  56.7109680  67.4197388  40.8771362  54.1969604  26.6653843  83.2782516
  55.0315247  26.7907982  83.7299271  54.4419518  26.4286175  82.3837433
  28.9914513  54.8915634  74.7325211  29.6249046  54.2680283  75.0877228
  29.0117741  55.6280174  75.3436279  62.3751602  21.5407467  48.1800041
  63.2973328  21.3152027  48.0577126  62.3216286  22.4666824  47.9433365
  39.6734009   6.7153077  15.6190205  39.2401695   7.2192678  14.9301319
  39.4927254   7.2032895  16.4224262  36.8214645   4.4576969  74.5362473
  37.1797638   4.6175594  75.4093475  37.1958542   5.1512299  73.9930420
  83.1270065  39.0291748  64.8874435  83.9867630  39.4222145  65.0376434
  82.8848953  38.6522331  65.7333298  38.3340607  25.9068317  25.2332993
  38.8276176  25.8292828  26.0497665  38.1575584  26.8437595  25.1481915
  14.7419806  19.7140617  69.0432358  14.2176847  20.4847946  69.2607574
  14.2715416  19.3009300  68.3191910  68.4553909  22.9512711  12.0009069
  67.5576553  22.6336327  12.0979385  68.7957382  22.9842243  12.8949461
  51.4209862  40.3930969  79.0273743  52.1673813  39.9128494  78.6689301
  51.7285957  40.7165794  79.8741150  76.3073730  70.2506485   9.8262959
  75.9140778  69.4532547  10.1808624  76.7174149  69.9718475   9.0075340
  83.6516724  42.1147804  64.3313293  84.5969925  42.1964531  64.2051392
  83.4868088  41.1723099  64.3030930   6.9384909  37.2537956  56.4986992
   6.4865260  38.0887299  56.6205368   6.2944903  36.5933189  56.7541771
  38.3735695   5.9663119  88.3532333  37.9934921   5.2530274  88.8660660
  38.7655907   6.5474548  89.0050278  34.8878746   6.1340780  14.0478392
  35.5514565   5.7783732  14.6389084  34.0869026   5.6617551  14.2749605
   7.4565525  67.2043228  80.5986176   6.8709292  67.3923645  79.8651886
   8.3352385  67.2530899  80.2220993  84.3179398  34.9670181  39.1452522
  83.8625336  35.8027916  39.2468109  84.1757202  34.7264633  38.2297516
  13.8157921  12.9374619  12.0881710  14.5432072  13.2223225  12.6413031
  14.2053528  12.8203344  11.2217093  20.3537807  58.3257370  21.0574303
  19.6611462  57.8162994  21.4781017  20.2328911  59.2150078  21.3903122
  17.3302689  53.3295898  18.3344345  16.6523571  52.9787178  17.7568932
  17.0286694  53.1133652  19.2167702  72.2111053  63.4466324  31.0051270
  72.0168152  62.9068146  31.7713356  72.4655685  64.2949905  31.3681335
  62.0830307  34.3657761  17.2805882  61.7769203  33.7665787  17.9613876
  63.0372162  34.3433685  17.3531494  56.1012344  64.9420319  38.7801437
  55.6854858  64.4452057  39.4848061  55.4357529  64.9865875  38.0935745
  16.0995522  65.9399948  13.5900269  15.3610344  65.4385300  13.2445374
  16.8736267  65.4936981  13.2467213  20.1159248  52.1857185  17.5281849
  19.1592560  52.1801720  17.5595913  20.3853073  51.8150330  18.3685780
  13.6821985   5.7346821  56.5744247  13.2064056   5.9146314  57.3852692
  13.6654291   6.5645375  56.0976753  29.2732754  31.3119507   4.9543362
  29.1785793  31.1861782   5.8985004  28.7842617  32.1137314   4.7692766
  75.5905228  48.0043221  44.8353081  76.2005615  48.2864151  45.5168571
  75.0198517  47.3716736  45.2715683  48.7168159  38.7657738  78.4640808
  49.6609421  38.9212723  78.4380951  48.5786095  38.2648506  79.2679520
  32.7152138  36.9558487   7.0223613  31.7824936  37.0928307   6.8565230
  32.9254913  37.5678711   7.7276568  20.5722008   9.5598087  88.7575989
  19.7817326   9.0407782  88.6092834  21.1354027   8.9931345  89.2847748
  78.1907806   3.7932408  69.0650253  78.7384796   4.5664225  68.9292145
  78.8103943   3.0949311  69.2763824   9.9132786  49.3058014  39.8409920
  10.0204849  48.4078445  40.1547012  10.2389050  49.2856102  38.9411087
  77.6592636   6.1025486   2.2225480  77.5896072   5.6282582   1.3940380
  77.4102859   7.0010376   2.0058434  18.0512123  10.1312599  42.7971191
  18.9217033  10.3039455  43.1558037  17.6567020   9.5135517  43.4127693
  47.9854050  37.6616516   4.1204042  48.4579163  38.4249458   3.7882297
  47.0644608  37.9216309   4.0979576  20.9302540  58.7405014  81.2278214
  20.0012264  58.5911903  81.4034500  21.3850460  58.2591782  81.9189987
  44.8497543  58.1554947  63.5161057  44.1806908  57.5951424  63.1229248
  44.3655128  58.9141197  63.8420372   9.0797834  38.8603249  54.1451530
   9.6346750  38.4577217  54.8131599   8.6600800  39.5947189  54.5931969
  30.0541439  64.8717194  27.6360760  30.4601440  65.0679855  28.4803963
  30.7228889  65.0991592  26.9901028  33.4783745  64.7714233  82.0920715
  32.9790573  64.1333694  81.5823593  33.0684624  65.6125870  81.8904419
  77.3357315  18.1326027  70.6261063  76.7383347  18.8683052  70.7605896
  76.7704620  17.3602028  70.6357727  73.7258072   0.2242440  79.4534760
  74.2308655   0.7727165  78.8532104  74.3685226  -0.0892010  80.0897980
  82.8333054  53.3079758  37.1368790  82.9573135  53.6276817  38.0305443
  81.9739304  52.8866425  37.1503220  53.9311409  35.8560028   3.7795358
  53.7831039  35.4443016   2.9281733  54.3983345  36.6662178   3.5757821
  68.1522217  54.3272018  13.1636314  67.9557953  55.0916367  13.7051954
  67.6726837  53.6101570  13.5785093  58.3930664  69.6970291   2.3357971
  57.5309334  69.7002106   1.9199226  58.7993317  68.8828583   2.0386405
  57.8554802  40.9043388  15.1948071  57.8826141  39.9499168  15.2624149
  56.9933090  41.0938187  14.8246794  35.2783737  51.1742935   1.0363035
  34.6028748  51.1634064   0.3582072  34.8735275  51.6364899   1.7702711
  80.9166260  22.7856445   6.0560584  80.3785019  21.9941769   6.0713668
  81.7913132  22.4760551   5.8208952  31.2610264  48.8258247   1.3890772
  30.5036602  49.3722649   1.5989201  31.6221790  49.2130508   0.5916708
  34.0457687  28.3697662  17.9269295  34.6135788  27.7669392  18.4069576
  33.3116493  27.8280430  17.6373901  45.4333382  55.0329132  87.2406845
  44.5353813  54.7237778  87.1209335  45.8986702  54.7239914  86.4633408
  71.1765594  41.2167130  78.8528214  70.5766449  41.8965836  79.1596069
  71.8302689  41.6889915  78.3372269  15.0384722  21.9098949  85.6861191
  14.4206991  22.2951508  86.3075409  15.8880444  22.2726192  85.9368973
  86.4237747  30.5803566  31.6054974  87.2977066  30.2063522  31.7177181
  85.9369736  30.2869339  32.3756638  20.5214844  45.1689529  46.9500847
  21.1158867  45.8049927  47.3480453  19.6646690  45.5950851  46.9726906
  18.3245716  63.8610916  55.3084335  17.9259968  64.7123108  55.4895210
  17.7136688  63.2261467  55.6824303  21.8149395   2.9828229  58.8714333
  20.8971081   3.2541168  58.8567390  21.9116325   2.5096610  59.6978722
  72.8984222  64.5286560  75.8029785  73.1439362  65.4038086  76.1030884
  72.0878372  64.6625290  75.3117905  71.3141479  26.4267101  19.0184078
  71.1150436  25.8322868  18.2950459  72.0182648  25.9915562  19.4991283
  70.7290726  32.1197739  59.8722534  70.3992004  31.5203705  59.2028313
  69.9419174  32.5002480  60.2619438  58.8864746  38.3028984  36.3132935
  58.6949348  38.5120239  37.2275200  59.8402405  38.2294273  36.2791557
   5.3988886  17.1445179  25.9002876   5.0197334  17.6476002  26.6209679
   4.7201586  17.1441574  25.2253380  82.9954605  11.8823919  31.3613720
  83.4265137  12.6685686  31.0261860  82.9797974  11.2816992  30.6162853
  55.5121346  38.8413162  87.1159134  56.2900009  38.6914330  86.5786133
  55.8017044  39.4556198  87.7904587  77.2702332   7.5316901  81.0949020
  76.4848404   8.0176754  81.3462982  77.5781784   7.1358604  81.9102097
  47.6473923  29.2534714  87.2763977  47.8071175  28.5515633  87.9073105
  47.6458626  28.8149643  86.4255524  20.4264297  19.9615841  74.3145370
  20.1596870  20.4117298  73.5130081  21.3163452  20.2731915  74.4794083
   7.9288049  14.1008472  30.1174564   8.8671207  14.0756559  30.3049660
   7.8129349  14.8843107  29.5798779  41.1146736  45.1766548  30.9204464
  41.7944946  45.4342957  30.2977962  40.4609833  45.8735466  30.8632984
  79.7954407  41.0815773  77.5061111  78.8871918  40.9202080  77.2506027
  80.3132477  40.5633965  76.8899994  59.3577423  58.7666702  35.4007874
  58.4936790  58.6071014  35.0211029  59.5193939  58.0046082  35.9569931
  67.7400055  40.3130569   8.4013767  68.4825516  39.8041534   8.7267733
  68.1170197  40.8875809   7.7350292  58.0579796  47.6992645  63.4485664
  58.0125656  48.6233482  63.2031326  57.1562462  47.3869896  63.3737602
  25.9410725   6.8199358  16.0635529  25.2225704   6.5125146  15.5108509
  25.5117817   7.3165593  16.7601929   6.0625148  52.4438972  82.8995743
   5.2604809  52.7342606  82.4652252   6.4743643  53.2515068  83.2067947
  80.6965942  31.1198254  84.0676804  81.6022263  31.3717384  84.2482300
  80.3110352  31.8922176  83.6541748  67.8274231  70.3784409   9.4110823
  67.9340286  69.9355621  10.2529383  68.5666275  70.0737000   8.8848333
  16.1501770  45.3367043  72.2171860  16.1595078  44.6541710  72.8882294
  15.4029140  45.8887901  72.4474716  79.7716446   3.0941412  55.3909569
  80.1354904   3.9791503  55.3662910  79.3997345   3.0124695  56.2691650
  68.0563126  42.6807899  11.7520876  68.3951569  43.5618515  11.9106627
  67.1723862  42.8215790  11.4128580  28.2160473   1.2319657  13.4470348
  27.4785824   1.5220940  13.9838800  27.8654118   0.5064363  12.9304161
  25.4851437  38.6268272  14.8708267  25.3322563  38.1096153  14.0800371
  26.3966103  38.9102402  14.7991552  22.3919201  42.5019226  88.7208633
  21.7208347  43.1554718  88.5240097  21.9061432  41.6837921  88.8253555
  74.1855545  15.9699945  56.1097832  73.8400116  16.8563480  56.0039024
  73.6451416  15.5829334  56.7985268  65.5753174  33.1145744  65.0611038
  66.3212891  33.0967026  64.4615707  65.4095535  34.0455589  65.2094955
  58.6147614  10.3103533  51.5558090  58.3991051  11.2088118  51.3058167
  57.9600105  10.0815849  52.2155075  44.4853859  37.1952133   4.9458127
  44.7749443  36.5498428   4.3009224  44.4299583  36.7055779   5.7664309
  18.1866932  18.1590004  79.8302155  18.0175743  18.9969597  79.3995667
  18.6184196  17.6284275  79.1606369  78.7403259  26.7799053  82.9421539
  79.4265289  27.3638382  82.6190720  78.4420853  27.1876049  83.7552109
  33.3029366  36.1580429  13.6720304  33.8589134  36.7242203  14.2073460
  32.8647842  35.5868721  14.3029203  15.4976816  13.2980137  63.8250046
  16.3435879  13.7146654  63.9895477  15.5369720  12.4753628  64.3127899
  72.2296524  10.0411911  36.0126762  72.4584808   9.4309063  35.3116608
  72.3090210  10.9068623  35.6119957  28.7709866  68.9522552  68.6032715
  28.2121124  69.3413010  67.9305649  29.4861736  68.5450974  68.1144333
  50.3475151  12.6527929  74.6196747  51.1852608  12.6442099  74.1567001
  49.8490677  11.9365730  74.2262115  86.5111771   9.2994146  55.3050385
  86.7185287   8.6708860  54.6135292  86.7098923   8.8351221  56.1181679
  46.9582443  25.5471382  86.6590424  47.9001961  25.6533356  86.7920227
  46.6804199  24.9659767  87.3670654  76.0821609  12.7830343  55.8280220
  76.8446960  12.4567299  55.3502159  76.3633652  13.6276693  56.1798019
  15.4162025  18.2567501  18.2196121  15.6936064  18.1770058  19.1322556
  14.7521172  17.5760307  18.1107807  51.5319176  43.6076355   3.5939441
  52.0444183  44.4030876   3.4496231  50.6734543  43.8045120   3.2190912
   1.8477603  24.3417206  88.9210205   1.8489000  24.9421959  88.1755981
   2.4100180  24.7645931  89.5700836  23.6053638  33.3848610   0.3303111
  22.9216232  33.9335709  -0.0539413  23.1353073  32.7917213   0.9163704
  64.4766693  60.2697830  11.6255102  63.5497704  60.4032898  11.8236647
  64.4836121  59.9274864  10.7316322  69.1920776  50.4088669  36.7191429
  69.7424240  50.0132599  36.0432396  69.8006592  50.6312714  37.4236946
  15.0662680  53.4503937  16.5629234  14.9218016  54.2643700  17.0454197
  14.2066813  53.2282448  16.2051640  82.4217300  57.7472839  62.3520432
  83.3602142  57.7055473  62.5357399  82.3606415  58.2244759  61.5245247
   6.2593403  66.4338531  58.9926033   5.7509103  67.2007751  59.2563553
   6.5471983  66.0421677  59.8171959  61.4338150  53.2077904  76.1438980
  60.5800438  52.9863281  75.7720642  61.5262184  52.6233978  76.8963470
  37.7672272  46.3884773  22.4872856  36.8138046  46.4168816  22.4072571
  37.9936447  45.4719543  22.3293209  56.8860168  49.8043442  34.1237106
  56.6638031  49.0777130  34.7058258  56.0519142  50.0587463  33.7290154
  63.2867432  71.0475845  51.3706551  64.1154251  71.4995575  51.5295067
  63.5390282  70.2256699  50.9498940  18.5737877  39.4893532  84.1226044
  18.6674480  40.3813972  84.4568558  17.6464634  39.2847137  84.2427063
  63.5730782  15.6611166  43.7742348  63.0909958  16.4870510  43.7334785
  63.7161751  15.4218750  42.8585281   2.7462676  40.4191589  49.7568741
   3.3285286  41.1310196  50.0223160   1.9018811  40.6415291  50.1490440
  69.6320343  58.1812363  27.4352245  70.5460052  58.3999023  27.2533607
  69.6380920  57.8562431  28.3355446  80.5456848   1.1084036  81.0415344
  80.6055908   1.1000655  80.0862427  81.1369781   0.4109620  81.3246841
  78.7144089  13.3074169  72.2513504  77.8660049  13.6289005  72.5564651
  78.8617783  13.7674742  71.4249954  30.7833843   1.3459405  45.5368423
  31.2864304   0.9949322  46.2716675  29.9276962   0.9229982  45.6086082
  66.4959259  36.9957047  54.4305763  66.9011307  36.4173279  53.7844162
  66.0107727  36.4066544  55.0084000  51.0355759   1.2033165  74.7632675
  50.1541443   1.4754000  74.5077515  51.1527138   0.3493329  74.3470612
   1.7062417  33.8614769  20.4859161   1.2330011  33.3376312  19.8394966
   2.2037175  33.2214966  20.9950085  46.1266251  68.3466721  50.4852180
  45.9903107  68.5950012  49.5708961  46.8783531  68.8686752  50.7656631
  64.2365112   5.9861469  41.0363731  63.7011986   5.3233318  41.4726639
  64.1169662   5.8138242  40.1024323  34.1841774  53.4373436   8.6449432
  35.0373077  53.1652908   8.3067236  33.5673294  52.8059425   8.2747221
  72.6464920  55.3757133   8.9215870  72.7860031  54.9591064   8.0711727
  73.4394989  55.1760406   9.4190884  46.8900948  39.2367516  23.4517078
  46.5830879  39.9214973  24.0459309  47.3997841  38.6477051  24.0080051
  27.7985706  60.9292946   7.6229830  28.6787033  61.2948799   7.7121191
  27.9381752  60.0545082   7.2603669  34.1381035  23.7150230  77.2557755
  33.6372299  24.0286522  76.5027847  34.8268089  24.3690948  77.3745575
  72.1860733  64.3316422  72.7114563  72.8969727  64.8881378  72.3933868
  71.6913528  64.8928986  73.3085022  82.9529114  40.9754562  49.3983116
  83.7123642  41.1823235  49.9429817  83.0774612  41.4972458  48.6055603
  42.7749443  17.6113968  74.1914978  42.8390846  17.7945004  73.2541656
  42.3830490  18.4014511  74.5635986  48.5282173  19.3782158  83.9897614
  48.3553085  20.2633381  83.6689911  47.8380814  18.8425999  83.5985260
  14.3905649   7.6477804  19.8927250  13.9257002   8.2214603  20.5018425
  13.6968088   7.2029748  19.4058132   0.8010527  69.9604340  68.7527924
   1.3083173  70.6026382  68.2563248   1.3775387  69.1991653  68.8188629
  62.1384621   4.6938758  42.3361893  61.7618752   4.8969831  43.1924400
  61.4682961   4.1692638  41.8981361  52.0646324  24.9492569  23.1324310
  52.1957359  24.0708351  23.4893875  52.4365044  24.9077320  22.2514000
  32.0054626   4.7082171  63.3280907  31.8487835   3.7999599  63.0697250
  32.4021301   5.1118150  62.5560837  19.4716606  58.7802887  39.6854057
  18.8506165  58.1185913  39.9898605  19.5307274  58.6367340  38.7408752
  66.9657440   6.4101582  31.9469624  67.3318863   5.7516484  31.3565922
  66.9627380   5.9869289  32.8055077   1.2987030   9.2503376  62.9299545
   1.7387407   9.1951895  63.7782211   1.9733061   9.0116320  62.2942162
  70.0744858   3.1999784   1.7295136  71.0298386   3.1574442   1.6879795
  69.8156357   2.3750076   2.1401858  19.1267719  23.2638397  78.6924210
  18.5518246  23.4945889  77.9627533  19.6930256  24.0277634  78.8020172
  28.8585777   9.4451418  25.4348602  28.1297493   9.9700747  25.1039696
  28.7428074   9.4465990  26.3850307  62.4054565  45.6901627  73.8635712
  62.7619057  46.3633842  73.2839584  62.1414795  44.9828110  73.2751846
  85.4051895  61.0512962  38.3229599  85.3446426  60.0966148  38.2890816
  85.7022018  61.3036270  37.4486923  82.3031616  30.2588558  80.8570099
  82.4011307  31.1634636  81.1541901  81.5085297  29.9487877  81.2913361
  27.9620705  11.5988226   2.7335365  27.2671204  11.7043915   3.3832529
  27.5735855  11.0468597   2.0548265   6.5439134  62.6346626  48.9132233
   6.9711967  63.3515587  48.4444771   5.6618342  62.5986977  48.5432549
  52.0549469  49.6155663   3.6085250  51.4050560  49.1309052   3.0996230
  51.6617699  50.4784241   3.7393742  69.0888519  53.9011078  63.5785484
  68.8587418  52.9888306  63.7547112  68.2471619  54.3526688  63.5161476
  47.7224464  33.3772545  15.5335808  48.4690895  32.7783012  15.5298996
  47.3942680  33.3564491  14.6346378   9.7941637  59.9846191  39.7469215
  10.1792812  60.8519440  39.6217613   9.5159779  59.7173958  38.8708878
  69.2803040  63.1690865  29.7606297  68.9337692  63.5987587  30.5426331
  69.7365417  62.3965149  30.0941238  15.9897346   7.0124369  65.9204025
  15.5325966   6.4568219  65.2890930  16.6394691   7.4833841  65.3985901
   6.4572177  36.0878067   1.8298229   6.1321840  36.8967705   2.2249978
   6.6770053  35.5286903   2.5750172   7.4759831  71.1470490  85.5863342
   6.9406939  71.6083755  86.2319946   6.8417330  70.7181702  85.0118561
  70.3708572   5.7746024  32.4660912  70.9246750   6.0484195  31.7349720
  70.7608795   6.1949339  33.2325325  83.7171097  65.2341995  71.9235992
  82.7826157  65.4005203  71.7999268  83.8448105  64.3392639  71.6089325
  27.0951786  50.3833427  59.7025986  27.6966000  49.7633972  59.2900505
  27.2043304  51.1920128  59.2022324  43.2345085   3.9583309  27.5387955
  43.8521881   4.4940701  28.0364799  42.3735695   4.2192092  27.8658352
  74.9554672  63.1527061  76.6559372  74.8851242  62.2358818  76.3900146
  74.2568054  63.5959625  76.1746597   2.4270616  67.0749664  27.6731739
   2.9553652  66.3459930  27.9983253   1.5220623  66.7914581  27.8029156
  41.1303482   4.9922571  56.6617584  40.9895287   4.0476494  56.5975838
  41.6226196   5.2152524  55.8717117  70.5005951   6.9646964  77.9853897
  70.0879898   6.7414169  77.1510468  71.4347458   7.0187535  77.7837372
  83.8602524  36.4553757  56.6689377  83.7740860  35.5062904  56.7585945
  84.8025589  36.6039276  56.5900536  83.4201889  42.7515869  47.4239769
  84.3112869  42.5292549  47.1542778  82.9004822  42.6697845  46.6243248
  38.9008141  24.9085159  88.0145111  38.8505630  25.7713852  88.4258041
  39.6740913  24.5015945  88.4052734  33.5718803  34.5070076  18.2659225
  32.8308563  34.3550148  18.8524475  33.2441940  35.1373024  17.6243725
  55.1091156  28.7578049   1.6472179  55.4733086  28.7941666   2.5316813
  55.6349068  28.0955067   1.1987348  44.1126137  66.3908463  17.1179409
  44.0830879  67.2251434  16.6496391  43.3345108  66.4013824  17.6753254
  76.7624817  70.3342285  62.7925415  76.1717529  71.0021210  63.1406746
  76.5831985  69.5567627  63.3213387  17.1377106  44.4218941  29.3057461
  17.6655922  45.2166710  29.3825836  16.6746292  44.3602371  30.1412010
  15.4678421  63.1402512   6.3834324  16.3629017  62.9932022   6.6891737
  14.9211798  62.6521454   6.9991803  80.0162277   8.5781145  66.4682236
  80.6022110   8.2732639  65.7754593  80.4774475   8.3701897  67.2807922
  50.7783661   2.6276648  65.5709839  51.6791801   2.3124154  65.4975739
  50.7485466   3.0724485  66.4180450   3.7290752   6.8946576  75.7722092
   3.7868135   7.6231580  75.1539993   3.7768955   6.1112251  75.2243195
   9.6210604   1.3044276  18.6972466  10.4279108   1.5491176  19.1504040
   8.9304113   1.4456635  19.3447704   5.1271062  55.3624535  47.5019493
   4.5283074  55.8977852  48.0226173   4.5557885  54.7675514  47.0162354
  43.6415100  41.1236267  75.5827484  44.5782013  41.3121376  75.6402893
  43.3893204  41.4267960  74.7105560  79.8364487  16.9937801   3.8627915
  79.2359161  16.8256950   4.5889754  80.3183136  16.1736717   3.7557483
  39.9752426  47.5913277  80.0251770  40.4992332  48.3325768  80.3288574
  40.4994659  47.1970634  79.3280563  16.4034290   0.8329532  21.5798798
  16.1119061   1.7337221  21.7208138  17.2827473   0.9205781  21.2119789
  68.9759979  66.2564316   4.4752150  68.7739944  67.1794205   4.3218374
  69.9171753  66.1874084   4.3150568  39.4842377  35.2489624  13.4405289
  39.6863556  34.3334312  13.2476988  40.0045395  35.4504242  14.2183027
   0.4914615   3.9519374   8.4004440  -0.4632893   4.0196924   8.3908482
   0.7702801   4.5901599   9.0570755  56.6338654  42.2422638  64.0325699
  56.7123947  42.9381218  63.3800011  55.6912270  42.0999985  64.1187439
  31.7125225  42.9350777  66.2442398  32.3820267  43.0557899  65.5708694
  30.9222965  43.3232422  65.8685989  12.2100096  27.3875084  38.6960297
  12.8422680  26.6709824  38.7514496  12.0644121  27.5064011  37.7574692
  73.2357788  63.9803162  61.9011154  72.7796326  63.1391144  61.9244614
  73.3025513  64.2421341  62.8193893  83.9443741   1.0437585  18.4421825
  83.2417221   0.8564464  17.8197422  84.0878754   1.9869606  18.3646717
  74.9106522  71.4013977  87.4204178  74.3593979  70.8472900  87.9729767
  75.7554398  71.4230194  87.8699799  30.4081173  21.6641998  74.4784088
  30.5895329  21.0582085  75.1968002  30.1702099  21.0995216  73.7430344
  78.5492935  62.0910568  46.3598404  78.2361069  62.9056015  46.7531128
  77.7794952  61.5224571  46.3415222  84.8056183  22.3736382  20.9529305
  85.0199432  21.4489708  20.8292885  84.6020813  22.6919956  20.0734711
  41.7376862  62.6371841  59.6931915  42.1857910  61.8530769  59.3759956
  42.4392281  63.1936569  60.0314407  74.1442108  23.4749451  78.4764786
  73.4208603  23.2329273  79.0547714  74.6404419  24.1256313  78.9730530
  34.6860504  53.0970268   2.8677547  34.9375839  53.8187408   2.2914784
  33.7589760  53.2489891   3.0512512  52.4876328  50.4971619  20.2402420
  52.8903694  50.0613213  19.4891891  52.6941643  51.4238472  20.1184788
   1.0578861   0.4919746  49.7457390   1.6180757   0.6917701  48.9957390
   0.7109103   1.3413439  50.0185242  38.2945175  66.1380234  24.8596954
  38.8414040  66.6568985  25.4495449  38.7479477  66.1756210  24.0175457
  54.7281456  71.2839737  53.2059326  54.2122307  71.2614822  54.0118828
  55.6219521  71.4619751  53.4985962  32.7426834  60.5160217  62.4886665
  32.0158043  60.0022469  62.8406830  33.5130997  60.1919250  62.9551964
  73.9506073  36.3755188  50.8404350  74.4519043  37.1629829  51.0521774
  74.4146957  35.9885674  50.0980568   9.8349266   5.5871749  60.2231445
   9.9623432   4.8460813  60.8154106  10.5884323   6.1550083  60.3844719
   4.4297805  61.3211288   8.6638985   4.9927821  60.8545418   9.2816048
   4.5808015  62.2469406   8.8544159  49.7659836  61.6408119  22.6735001
  48.9031639  62.0297203  22.5302429  50.2873535  62.3479614  23.0534267
  52.5326080  22.4025288  24.1584282  51.7357903  22.0928593  24.5890312
  53.1869545  21.7320461  24.3546829  12.3988008  50.5141716  50.0805054
  12.0927963  49.6597481  50.3847351  12.8246117  50.9021797  50.8449440
  35.1380196  49.7955551  30.9359150  34.4514160  50.2609673  31.4136181
  35.7203674  49.4616814  31.6182861   4.8891540  47.9084129  80.0700531
   4.7786188  48.6105232  80.7111816   4.0192051  47.5170212  79.9910965
  63.1993408  13.7432470  30.1947613  63.3385048  14.5611982  29.7174568
  64.0797653  13.4504843  30.4300823  41.3858833  42.4935188   8.5702934
  42.3064957  42.3964806   8.3268118  41.4092102  42.8254242   9.4678049
  75.4852295  61.2770157  12.5029011  74.7485275  61.6190300  13.0093822
  75.4845810  61.7961807  11.6987257  47.8144913  30.9331055  78.4165039
  47.6065674  31.7133141  78.9305801  48.7599716  30.8240337  78.5184937
  62.7139587  61.0450783  26.3263664  62.5092392  61.9801254  26.3293781
  62.1570549  60.6801796  25.6386623  49.3691368  37.7244949  13.1996555
  49.5631790  38.2226372  13.9936533  48.5520058  37.2669754  13.3976507
   2.2872248  61.5536118  54.4417305   2.2182727  61.4007339  55.3841248
   2.3781729  62.5028915  54.3591042   1.0148234  33.1418037  29.7571297
   1.3236625  34.0469856  29.7184467   0.6742215  32.9672432  28.8797760
  30.2325935  65.3624420   9.4148073  30.3266830  64.4354324   9.6339903
  29.8241653  65.7511826  10.1883030  36.4601707   3.2606730  44.8808098
  35.8237915   2.8501871  45.4662590  36.4654198   4.1818700  45.1408081
  70.2799530  61.9389954  43.1088638  71.0626373  61.7290382  43.6183281
  69.8529205  61.0942001  42.9667549  43.0023994  71.2560272  68.3897247
  43.6571236  70.6131897  68.1170959  43.4260406  72.1030579  68.2508163
  22.0785694   8.6118822  52.9937057  22.8617878   8.1829901  52.6489563
  21.5860176   7.9078546  53.4155693  39.9329338  14.7310705  14.5232000
  40.0144730  14.6777582  13.5709705  39.0074615  14.5567245  14.6944752
  75.0017624   1.3501683  34.9137650  75.9167709   1.1601640  35.1208496
  74.8713608   2.2511384  35.2095337  10.9391298  12.3848019  16.6920166
  11.6698666  12.4399710  16.0762157  10.8998499  13.2519684  17.0953903
  18.5907898  60.6050186   3.2503955  18.4935436  61.2714348   2.5702009
  19.3912449  60.1364288   3.0139105   4.3845577  49.8153801  75.7671814
   4.1323757  50.7334099  75.6679230   4.4408255  49.4841919  74.8708649
  38.9947243  58.2178802   9.9540081  39.4072304  57.4937706   9.4831219
  38.1769371  57.8505096  10.2894125  61.1520500  62.1158104  49.9140282
  61.7409859  62.8654175  49.8276138  61.6772537  61.3653183  49.6362610
  36.6589737  37.8570938   8.4383469  36.7825699  37.5183563   9.3250332
  37.4739418  37.6427994   7.9843240   8.6296253  51.4461861  82.6381989
   7.7046838  51.6634102  82.5218811   8.7389488  51.3635216  83.5855331
  85.6652451  42.0834694  52.8328705  86.1636429  42.5830040  53.4796219
  85.5754852  41.2127113  53.2201118  70.8702393  38.8952827  84.9475937
  71.4013138  39.5794220  84.5399780  70.3368149  39.3588867  85.5931625
   3.8290174  50.6138802  10.2976828   4.6644583  50.2590408   9.9937754
   3.1710660  50.1670341   9.7650852  43.1143646   3.6575618   7.4334974
  42.3745308   3.3948028   6.8859243  43.7959633   3.9094086   6.8104157
   3.6039503  19.1426640  46.9506683   2.8273265  18.8133698  47.4030571
   4.1939340  19.4136925  47.6540146  85.9911118  37.0159416  84.6301804
  85.0870590  37.3037567  84.7569962  86.2494583  37.4000282  83.7923431
  67.2953796   8.9148626  20.9676533  67.9149551   9.0562544  21.6834545
  67.8461838   8.7262259  20.2078743  16.1882610  52.5154724  82.7743454
  15.4240894  51.9458542  82.6859512  15.8380098  53.4017601  82.6846161
  75.4996872  35.2842789  48.6307030  76.2361221  34.7096977  48.8398895
  75.0599899  34.8529739  47.8979912  62.2027245  56.5608482  44.0442238
  61.6092758  57.1535912  43.5830269  62.6274605  57.1112404  44.7021751
  46.7852135  69.3059921  76.6410065  46.3712502  68.6633530  76.0649109
  47.4057350  69.7681961  76.0774918  34.2743111  11.8854237   8.3295336
  34.7371216  11.6515980   9.1341238  34.2742920  11.0809593   7.8108144
  30.1816311   7.2112632  62.8110809  30.6984539   6.5238857  63.2313652
  30.7451134   7.5402446  62.1107330   2.0542357   1.5030969  63.3620377
   2.9042294   1.4613971  62.9238548   1.9828509   2.4097738  63.6604881
  62.1080933   0.3294371  13.1414490  62.0394325  -0.0658584  12.2723923
  62.8732300  -0.0896022  13.5354071   7.2942138  52.1808281  36.8786278
   6.5605621  52.2781258  37.4856873   7.3774524  51.2355576  36.7530708
  28.5710602  10.2851791  73.7436066  28.5691509  10.0674019  72.8115082
  28.0566330  11.0902405  73.8025208  84.4915314  36.0890961  42.9422112
  84.7668381  35.5497742  43.6835442  84.3346405  35.4627762  42.2355728
   6.8870282  19.1816406  19.4630642   7.7526689  19.0954170  19.0637360
   6.8709049  20.0737648  19.8095970  39.5347443  25.2149467  15.7036934
  39.1779213  24.3600655  15.4626789  39.3131218  25.3146076  16.6295357
  27.0087662  48.4471397  64.8328400  27.1271229  49.1216469  64.1640625
  27.6381626  47.7649345  64.5989838  44.7962227  32.5408401   2.9880660
  43.9344521  32.1414108   3.1065588  44.8204041  32.7884369   2.0637596
  77.4478073  29.3361130  17.3897095  77.2536163  28.8643208  18.1996059
  76.7591400  29.9979610  17.3270626  44.3336258  24.0558376   5.2600088
  43.7315445  23.3391781   5.0596790  44.9362488  23.6886787   5.9067459
   6.8232346  24.3326168  59.7077599   7.3750520  24.1770172  60.4742584
   5.9369917  24.1262798  60.0047989   6.8712673  35.1717720  45.4908905
   7.3230124  34.3723717  45.2204895   6.0314002  34.8675919  45.8348846
   5.7210689  30.8917618  39.2408104   5.6171808  30.5309334  40.1212883
   6.6528721  31.1010246  39.1761284  44.5395355  52.7976189  74.4132080
  45.4663239  52.6629906  74.2153015  44.3253975  53.6340027  73.9998779
  37.1371384  69.3566589  14.6491308  36.5515289  69.1547165  15.3788662
  36.5583763  69.6865921  13.9618092  35.0594902  11.8287487  47.9659271
  34.4810715  12.4751320  48.3707123  35.9401817  12.1801062  48.0969429
  17.5982056  45.2233200  79.8173065  18.2270718  45.3653603  79.1097870
  17.3854446  46.1030426  80.1288452  31.6326904  67.9474030  25.4562435
  31.3662834  67.0344315  25.3478870  30.8188915  68.4452591  25.3781261
  70.5931244  49.6684074  34.2051468  70.3637619  50.4057732  33.6395340
  70.0262299  48.9554596  33.9109154  20.7709122  40.6831512  19.5264034
  20.6134834  41.6266365  19.5622177  20.0722008  40.3033524  20.0591183
  58.6965599  24.6535053   8.8335285  57.9052467  25.0956039   8.5259466
  59.1635284  24.4138508   8.0330667  59.2309837  34.1314392   4.2825937
  58.9644699  33.2330627   4.4778323  58.4152565  34.6320190   4.2981963
  13.3973541  71.5284271  30.6646690  12.7468615  71.1112747  30.0998020
  14.1755428  71.6109467  30.1134472  55.5747337  57.8234596  44.4217148
  54.8610535  58.3724289  44.0968704  55.7701149  58.1740532  45.2907028
  13.4841070  49.9802704  43.2970543  12.7974987  49.3231430  43.4109993
  13.7467690  50.2092934  44.1885643  57.2819824  40.2781563  20.2825832
  57.7864723  40.3953171  19.4776039  56.4847298  39.8286362  20.0023117
   6.6982951  16.6024666  38.6684875   7.5891271  16.9519825  38.6906052
   6.2362962  17.1634769  38.0455437  85.7256699  28.2158470  45.9948883
  86.0746155  27.7436390  46.7508583  86.4231567  28.1698666  45.3409538
  20.8259392  46.8323746   9.1567726  20.3448181  46.2824135   9.7750750
  21.1521053  47.5597038   9.6867180  50.3826180  24.5495796  17.6277294
  49.4332542  24.5150719  17.5104809  50.7025833  23.7395000  17.2307091
  50.2323418  53.6420631  15.9579945  49.8391914  53.8404617  15.1081085
  50.9587250  53.0529404  15.7542048  12.7619534   4.4915462  16.2953453
  13.0054626   4.8124022  15.4270220  13.4005547   3.8040338  16.4844151
  73.2278671  63.1814919  41.6094131  73.1424255  62.2884560  41.9432068
  73.7577057  63.6330681  42.2663612  39.9468117  71.6779175  86.3004990
  40.3071594  71.4699173  85.4384537  40.5384254  71.2473679  86.9176331
   7.5375328  47.4993019  45.2710037   6.6582441  47.8116417  45.0576324
   8.0680075  48.2943497  45.3232346  55.3693199  55.4926453  39.0361938
  55.7881966  54.6978416  39.3664398  54.8420982  55.1951523  38.2947273
  51.3654594   0.0245024  41.7730255  51.1627426   0.3740304  42.6407623
  50.5686722   0.1716486  41.2634087  14.0525274   5.2751937  64.8586807
  13.6497669   4.7183475  64.1923981  13.3664188   5.3982162  65.5146942
  23.4402199  20.9182739  69.2467041  23.6058540  21.8576260  69.3267822
  22.5501423  20.8607712  68.8993073  53.5819893  37.5263405  84.1750565
  53.4113922  38.4583473  84.0390625  53.1483917  37.3218803  85.0035553
  71.0847549  18.4904308  76.4705658  70.3061981  18.0937405  76.8613510
  71.4673386  19.0123215  77.1758881   3.6354318  29.6682243  25.2617931
   3.9549053  30.1064053  26.0505676   2.6838069  29.6547298  25.3640671
  24.5084629  48.5347099  11.1120348  23.8627110  48.3248253  11.7867107
  24.6649990  47.7036972  10.6635370  75.0587616  60.7216301   8.4560890
  74.3178787  60.1158524   8.4370089  75.7376862  60.2859688   7.9408383
  35.7422562  13.0109987  75.8298264  35.0459557  13.5099277  75.4026642
  36.5009727  13.5942898  75.8110657  32.9332542  24.6164036  25.9563522
  32.3311462  23.8976307  26.1488724  33.1898499  24.4762878  25.0448952
  69.0782547  50.0794907  28.5116806  69.0000153  49.9479141  29.4565601
  68.6980286  50.9443855  28.3579979  83.6444321   4.6661220  65.2898102
  83.1314621   4.3995390  66.0527115  83.3037643   4.1307755  64.5731659
  36.9424057   5.6977129  52.0199127  36.9672394   4.8350468  52.4339447
  37.7332001   6.1366458  52.3333054  72.1137390  62.4627037   1.8546705
  72.9983063  62.8043251   1.9852785  71.8644180  62.1105194   2.7090936
  18.3344688  35.5456352  57.2559814  17.4844818  35.9786835  57.3348770
  18.2262402  34.7183228  57.7250977   0.3157308  46.9537468  35.5340424
  -0.3888803  46.6143265  36.0859032   1.1148677  46.7776413  36.0306282
  74.4404678  33.8505096  81.1841507  74.8351669  34.1558266  80.3673096
  75.1040268  34.0264587  81.8512115  49.4978905  69.4872437  63.5585022
  48.9276199  69.7540131  62.8374939  50.3820763  69.5355988  63.1950340
  64.9487762  68.1269226  17.2913876  64.6058121  67.3228531  16.9014130
  64.6395950  68.1046982  18.1970062  82.9492722  30.6786804  41.4666748
  83.7125931  30.5898209  42.0373650  82.6578598  29.7796669  41.3147392
  45.8033829  68.4644775   6.0786281  45.5291176  69.0034332   5.3366446
  45.5272560  67.5780334   5.8457942  16.5887966  56.9564362  16.2255630
  16.4701023  56.7913551  15.2902069  17.4060555  56.5094528  16.4458485
  43.9591713  45.5006485  81.1937790  44.1142082  45.5406151  82.1374969
  43.0722809  45.1501236  81.1113892  14.5201588   7.7315741  39.2614136
  13.7453842   8.2560301  39.0591698  14.5480223   7.7044129  40.2178230
  79.6740265  23.8034306  87.5628281  80.4953003  23.5697899  87.9954300
  78.9976883  23.3680534  88.0817261  17.5771542  65.2162552  47.0628777
  16.9144135  64.7227020  47.5460014  18.0901356  64.5476379  46.6089783
  34.8037987  26.9836006  24.4689445  34.2796402  26.1879196  24.3774033
  35.0392189  27.2198696  23.5717335  78.4195023  12.7044744  44.0960922
  77.9265366  11.9269695  43.8339882  78.6044769  12.5687819  45.0253983
  85.5578766  63.0908203  60.3707733  84.6382828  62.9980850  60.6197319
  85.5434036  63.6785164  59.6153717  63.4193344  40.5326958  22.6786575
  62.9946365  41.0899239  23.3308525  62.6974411  40.1802025  22.1582203
  84.6906662  24.1479568  46.4604492  84.3917770  23.5272255  47.1249695
  85.6003342  23.9009914  46.2939072  11.4345570  34.6354828  13.7499628
  12.2839909  34.8708382  14.1231947  11.5962162  33.8141708  13.2856989
  15.0222692  69.8117828  37.8912163  14.5993414  69.3073044  37.1963272
  14.4881115  69.6444855  38.6676941  55.3490791   2.4414940   3.9364278
  54.7443123   1.6997551   3.9542019  55.9524078   2.2760234   4.6608877
  70.8053436  55.0948677  49.8254662  71.1698532  54.4357262  49.2347946
  69.8613129  54.9378014  49.8063049  12.1854773  43.1946144  35.6262817
  12.6386404  42.7180862  34.9307289  12.7016649  43.0184479  36.4128876
  19.8519859   1.2504390   4.2946119  19.3222351   0.4941540   4.5468578
  19.7059231   1.3418484   3.3530481  49.9276924  17.3166618  10.3968410
  49.2200432  17.0825768   9.7962856  50.4594803  16.5233822  10.4611759
  83.3829727  21.7852364  84.9365234  82.9989548  21.2800446  84.2199020
  84.0316696  22.3471737  84.5126724  80.1568832  52.5740051  24.4454575
  80.0851593  53.4733696  24.1257305  80.6016388  52.6545219  25.2892227
  13.8037395  58.5743256  67.6241074  13.5451365  57.7558441  68.0477142
  14.1442299  59.1155167  68.3364334  13.0553970  65.3044662  64.6493073
  13.7468700  65.8858719  64.9656372  12.6629362  65.7764969  63.9148712
  11.3851242  31.0710888  24.2455940  11.7419262  31.6085777  24.9527206
  10.6114855  30.6561756  24.6271172   4.5657926  47.0786057  25.5012608
   5.1436782  47.8198357  25.6825275   4.6279230  46.5297050  26.2829742
  25.3357620  64.7781830  29.3880692  25.0218124  65.1178360  28.5500336
  24.7498436  64.0473022  29.5849133  75.3774490  42.0778427  40.7350845
  76.1309052  41.5064011  40.8833961  75.6352081  42.6266785  39.9944305
  14.4218092  67.3300934  46.3501778  13.5135717  67.5691299  46.5351067
  14.4763594  66.4020004  46.5780067  57.4214821  28.7938538  78.3631439
  57.1355362  29.3225517  77.6181946  57.6873169  29.4340591  79.0232162
  39.5381470  16.7052631  79.2704849  39.6890640  15.9350042  78.7226181
  39.9403458  16.4842319  80.1104965  85.0196686  64.8520050  12.6729631
  84.2046585  65.0380020  12.2067108  85.5183258  65.6672211  12.6182261
  26.3911495   6.2612472  10.0057182  26.0905266   6.2388349  10.9142084
  26.5450993   5.3434606   9.7816658  33.1556358  70.3333511  83.5301056
  32.3791962  70.5830307  84.0311356  33.0633659  69.3895569  83.3998489
   1.9367467  49.9219894  47.5486794   2.3415046  49.0648384  47.6817093
   1.0746325  49.7254639  47.1821175  15.8564863  13.8901215  78.4919510
  16.6609383  13.9161673  79.0100403  15.5374517  14.7925587  78.4994507
   7.2834125  47.0456657  38.8574524   8.1939631  47.1746712  38.5919571
   6.8016825  46.9729996  38.0335045   2.0676618  37.4536057   5.9212189
   1.1154472  37.4674072   5.8246350   2.3981609  37.3794785   5.0259495
  28.7540302  14.2999792  35.3722687  28.8649235  15.2349958  35.1999931
  28.2337723  14.2643805  36.1749496  19.5201397   7.2059054  15.7014303
  18.6055794   7.1097369  15.4357958  19.8594093   7.9055047  15.1431398
  54.9525528   2.2607994  88.6848831  55.1212730   2.3222272  87.7446747
  54.0807190   2.6396942  88.7970276  25.0159264  41.5689201  57.8053055
  24.8179531  40.9375267  57.1136551  25.8440971  41.2652206  58.1769676
  39.1039848  66.8162842  44.3272820  39.7509384  67.3570938  43.8742828
  38.6609116  66.3363266  43.6275940  12.5810242  22.5133076  36.0995216
  13.1488562  22.5505543  36.8692055  11.9416151  23.2117138  36.2395859
  41.3656197  48.4077568  42.1211433  42.0205612  48.1891403  42.7840843
  40.7890739  49.0382195  42.5528145  65.8562317  34.8751297  48.5943985
  66.3079224  35.2624817  49.3441734  66.0892410  33.9473152  48.6275864
  20.6517792  34.9978790  19.9247932  20.8985310  34.4135780  19.2078991
  21.4796524  35.3757706  20.2215385   1.3710901  41.2417603  76.2190247
   1.5541686  41.6113129  77.0828247   1.8493023  40.4126625  76.2069702
  51.5511971  63.0039597  78.8403854  52.1065788  62.5525131  79.4759827
  51.3315849  63.8348846  79.2617722  55.6899109   3.0801060  86.3051529
  56.4819031   3.3009479  86.7952652  55.9419479   3.1762984  85.3867569
  41.0210876  39.4370079  78.9889603  40.1215668  39.1203232  79.0714645
  41.2270737  39.3338127  78.0599060  39.4014359  49.4407196  27.7411880
  39.4851494  49.2873611  26.8000698  39.1698074  50.3666649  27.8133030
   2.5698154  64.0673828  17.9028492   3.0262029  63.9531136  17.0692520
   2.5847499  63.1989403  18.3051033  45.3026390  69.2760620  39.2830009
  46.1203918  69.3158035  39.7789192  45.5536728  69.5058517  38.3883438
  17.5835533   6.6049390  29.7070484  18.2301445   6.6709633  30.4097538
  17.2676830   7.5005479  29.5872936  23.8851795  21.8396683  85.9119720
  22.9653606  21.9670696  86.1442108  24.3348885  22.5944099  86.2919235
  38.2242088  67.6778870  38.4507599  38.3293610  67.0824585  37.7087021
  37.2769775  67.7790375  38.5443192  23.9202881   5.8132439  14.4653893
  24.2045345   4.9696641  14.1135244  22.9683838   5.8061080  14.3650827
  16.2613220   0.4931408  80.9251175  15.9102173   1.3825077  80.9696579
  16.6482868   0.3449129  81.7879715  77.7706375  40.1839714  59.3888779
  78.5531235  39.8170776  58.9773712  77.9259415  40.0863686  60.3283386
  44.1085892   6.8425531  75.6945419  43.5730553   7.4715409  75.2110062
  43.9332657   7.0366406  76.6153183  70.3300171  25.1061401  14.7631407
  69.5524368  25.1517677  14.2067976  70.3799133  24.1883106  15.0302143
  59.7588844  60.1097603  33.1027298  60.7018166  60.0003242  32.9797211
  59.5559921  59.5855942  33.8775291  35.3266640  44.5295105  19.8481407
  34.4710579  44.9502983  19.9324360  35.1260490  43.6022949  19.7206364
  25.9288158  22.0314274  10.3299656  26.5179634  21.7566757  11.0325661
  25.1823120  22.4235477  10.7829628  23.9603844  51.9179306  15.2445841
  23.3474808  51.5435028  14.6118250  24.7024040  52.2101898  14.7152252
  61.2514572  10.2751589  63.8227921  61.5463715  10.9771624  64.4028320
  61.2275429  10.6764107  62.9540825  61.2941055  16.3085518  19.6911640
  61.3781967  17.2562733  19.7959747  61.4738083  16.1532478  18.7638988
  65.9304657  30.8620491  25.4072094  65.9992752  30.1201725  24.8062801
  66.2674179  31.6063232  24.9084606  48.0104141  13.9340134  46.5497093
  47.0898285  13.8003521  46.3241348  48.0310631  14.7921286  46.9733200
  65.1544266  59.7703094  79.0394135  65.0688858  58.9940796  79.5929337
  64.6436386  59.5637894  78.2566757   8.3166418   4.7043796  42.4427986
   7.4593081   5.0316744  42.7149887   8.9411526   5.3179183  42.8298225
   9.0442696  44.1254272  37.5151329   9.2716208  44.4658432  36.6498795
   9.2278719  44.8497849  38.1133194   7.1146603  22.2437096   9.5445919
   7.5804429  23.0576286   9.3527203   6.2893434  22.3215237   9.0660229
  35.7846947  59.0207062  43.7977715  35.5559807  58.1236992  43.5542564
  36.5282936  59.2391930  43.2360306  10.0867329  23.3965492  44.2768440
   9.5744419  22.9526443  44.9526672  10.1764526  22.7473392  43.5791969
   8.7721748   8.6658249  80.0844345   8.8019228   9.6163645  80.1931610
   8.7606544   8.5334225  79.1365128  14.9560843  42.0339050  82.2539215
  15.2669420  41.8703346  83.1443405  15.6600285  42.5356216  81.8428574
   8.5119848  19.8309708  73.7824173   8.8146868  19.8190060  74.6904144
   7.6821966  20.3071613  73.8128281  71.1450195  44.9898415  85.9897766
  71.7958221  44.6295166  86.5921555  70.3493576  44.4888611  86.1691360
  54.8209190  54.6017685  42.3965034  54.5365181  53.7120628  42.1872902
  54.3575134  55.1553688  41.7680054  55.3746414  42.1621361  18.3051052
  55.1234055  42.8589249  18.9114056  55.6270981  42.6212044  17.5040073
  46.5030899  44.7102890  79.4223785  46.2561760  43.7867622  79.4710236
  45.8889656  45.1535568  80.0076981  50.1056442  69.6273804  48.6708908
  50.2168846  69.3503571  47.7614326  50.0099602  70.5785065  48.6215515
  62.3560028  60.5562820  32.1601257  63.2925873  60.7515564  32.1902962
  62.3003349  59.7209167  31.6961269  29.3967228   0.5455372  31.4757423
  29.8925133   1.2584234  31.0729809  29.2297726  -0.0654266  30.7580509
  72.9289932  19.5740871  37.7907639  73.3173828  19.9389420  38.5859146
  72.0952530  19.2032299  38.0798454  79.3189697  41.4345970  70.9530563
  79.5906830  41.9272232  71.7274704  78.3727570  41.5701790  70.9027557
  67.8708267  36.8929443  71.1202011  68.4199982  36.1291885  70.9432220
  67.0805435  36.5318184  71.5217896  83.0775223   9.5804710  25.4445210
  83.7602615   9.0158548  25.0821495  82.6299973   9.9376602  24.6774693
  32.7942886  68.2875595   6.9975843  33.5872383  67.8280411   7.2738271
  32.4889793  67.7997894   6.2326689  47.5609207  11.5299721  12.5157843
  47.2508202  11.2539501  13.3782692  47.2273293  10.8623905  11.9163818
  65.6910858  12.8164940  44.5023384  66.2086868  13.4468613  45.0032959
  66.0707932  12.8390741  43.6239624  21.1401196  34.3513184  88.1848526
  21.3686237  33.5407066  87.7299652  20.2739162  34.1820564  88.5553589
  86.3181839  42.1354103  63.9855194  86.8069458  42.6637650  63.3544998
  86.9848480  41.8020477  64.5860748  64.1321716  28.6719856  28.3490810
  65.0215530  28.9345264  28.1118126  63.8892097  29.2646389  29.0603943
  27.8520584  67.2989120  36.3217125  27.1602592  67.1560364  36.9676437
  27.9614429  66.4486694  35.8958626  48.8826866  60.9212379  62.3648453
  49.4320793  60.9022522  63.1484528  48.1569939  60.3306160  62.5667534
  81.2855835  14.6854773   2.9884651  81.7957153  13.9119034   2.7485054
  81.0406494  15.0799627   2.1514354  82.2338562  27.2654285  16.0414391
  81.3932571  27.3279934  16.4949970  82.3210831  28.1008301  15.5823889
  52.7022934  43.5528641  80.5135269  52.4070930  44.4052696  80.1933823
  52.7020531  43.6417732  81.4665833  54.3305359  62.8659210  81.2490387
  53.3737831  62.8607521  81.2778549  54.5642014  63.7936287  81.2175598
  47.0075111  40.6820259  67.8033218  46.3936691  41.4078560  67.6910858
  46.9401932  40.4525528  68.7301636  72.3939590  60.4267960  57.4336777
  72.2306976  60.4735565  56.4916611  73.1598053  59.8585358  57.5161133
   0.6662860  30.8072472  76.3744812   0.7154068  29.8663998  76.5436630
   0.1248455  30.8813400  75.5886154  75.5476227  37.2792015  59.5908890
  75.1919403  36.8751564  60.3823853  75.6278000  36.5565338  58.9683495
  60.9283714  15.6610842  59.1503372  60.6679382  16.1896648  58.3960075
  61.6999245  15.1801767  58.8508987  44.0013084  55.3883705  72.5159683
  44.8746300  55.6289330  72.2066574  43.8485451  55.9586678  73.2693939
  77.9664993  48.7969933  15.7081757  78.2067413  47.9276276  15.3876743
  78.7369537  49.3377228  15.5342798  64.3630371  18.3480434   6.7628088
  64.6746674  19.1060333   6.2682667  63.7529869  17.9094582   6.1697559
  58.8114128   3.8097107  45.3404579  58.1165848   3.6836753  45.9866447
  59.6226616   3.7032416  45.8372192  46.6557655  29.3438358   4.1234655
  46.3712273  28.6391850   3.5414546  45.8939972  29.5209675   4.6753407
  68.5225067  42.8136215  31.8654423  68.1168289  41.9648781  32.0423584
  67.8292847  43.4509048  32.0373116  48.3650513  45.4903755  20.5682144
  47.4174385  45.4369888  20.4440689  48.5302620  46.4142036  20.7565746
  15.2534027  45.7294044  10.9866476  14.4896145  45.1535339  10.9514961
  14.9016418  46.6041527  10.8213825  37.2197533  59.4845619  66.3740463
  37.5621796  58.8848457  67.0368576  37.0968781  60.3116341  66.8399734
  67.1788864   0.8241301  42.5715752  67.2113037   0.1837189  41.8609047
  67.3137970   0.3074169  43.3659554  80.9668732  58.8179665  45.8592987
  81.0067825  57.8657684  45.7700844  81.3655396  59.1507797  45.0552216
  50.6893005  15.7163744  83.2196960  51.1463509  15.8042250  82.3832703
  49.8882828  15.2379704  83.0058441  24.4717731  19.7639828  49.4661140
  24.3656616  19.5068569  48.5502205  25.2797546  20.2770500  49.4787788
   7.8862200   4.7390332  25.8497448   7.1219840   4.8906288  25.2936916
   8.0376959   3.7953904  25.7965946  18.8708210  70.2930603  72.6625443
  18.9379997  69.4825516  73.1673203  18.0270882  70.2274399  72.2152863
   7.6111331  56.7805901  39.6850815   8.4913311  56.9820900  40.0027008
   7.6648960  55.8712120  39.3911896  34.4940071  57.1305923   8.2866793
  34.0364037  56.3939476   8.6918774  34.9410896  56.7486382   7.5313916
  28.0730877  14.2286758  12.6673298  27.6672878  13.6909924  13.3473701
  28.6641598  13.6305714  12.2100124  76.7584686   5.8673511  62.6797562
  76.1559982   6.6111646  62.6787567  76.2204742   5.1237288  62.9514503
  24.0803318  15.4930363  58.8830795  24.4755974  15.3698606  59.7461128
  23.6120415  14.6752653  58.7151947  50.0914230  15.0459909  79.1180267
  50.6680984  15.4613914  78.4768448  50.3234138  15.4572439  79.9506683
  25.4800491  67.4229202  21.1808414  24.5585785  67.6699066  21.2590694
  25.8252525  67.9987030  20.4985332  64.8978577  36.5966301  64.4997940
  63.9618721  36.7904205  64.5508652  65.1123657  36.6941147  63.5720520
  22.2095623  39.4473419  85.0434265  22.4674129  38.7007256  84.5027771
  21.9322586  40.1138268  84.4148331  49.5636597  56.8468666  36.2409935
  50.3783302  57.0483360  36.7013817  48.8852081  56.9179115  36.9124718
  81.5279083  48.6364326  33.1767387  81.6109390  49.1210938  33.9979820
  80.9600601  49.1822891  32.6328468  79.3585052   7.9212570  10.7599592
  78.9622574   8.1112919  11.6103134  78.6157532   7.7326708  10.1863861
  62.2693748  39.7229691  29.1497059  62.9180145  39.8217087  28.4527473
  62.2526016  40.5758781  29.5838699  46.5313568  28.0949879  14.7292042
  45.9493408  27.7295284  14.0629244  47.3935890  28.1066799  14.3136950
  82.6771851   5.2994905  33.4756126  82.5414963   4.6376615  32.7975235
  82.0828629   5.0446639  34.1813545  70.5828705  47.0184669  42.9775505
  70.2780609  47.4145775  43.7938957  69.9265366  46.3517570  42.7751579
  63.9430084  50.8438416  22.9527798  63.6258430  50.4656677  23.7729168
  64.8944931  50.7495956  22.9977417  41.4218178  58.0232353  63.2035103
  40.7347755  58.3652000  63.7755775  41.3698082  57.0732002  63.3081932
  68.3870239  25.4582481  27.0837727  69.2803268  25.2663498  27.3690929
  68.4025574  26.3880615  26.8569736   6.6986299  56.7732925   9.3849421
   7.3445663  57.2089806   9.9409742   5.8631063  56.9198723   9.8283911
  13.4259577  60.4495697  81.8772659  13.7308903  60.9040642  82.6625595
  13.2757092  61.1475449  81.2397079   3.4453449  40.6698647  71.4804993
   3.2934287  40.6141968  72.4239273   2.7451205  41.2373619  71.1582260
  15.9729185  65.5019684  35.1310005  15.9490318  65.7883072  34.2179451
  16.1124306  64.5562668  35.0818672  14.2879086  46.7892532  29.1520329
  13.6668196  46.6551170  29.8679142  15.0856056  47.0979614  29.5816956
  76.9848709  47.7000122  53.0314102  77.2237625  46.7989273  52.8141403
  76.6721649  47.6536903  53.9349022  67.0024261  42.1613998  59.8365440
  67.8617554  41.8580132  59.5437317  66.9591293  41.9052773  60.7578239
  48.6803970  23.0055981   3.0569439  49.6010361  23.1498375   3.2756832
  48.3276634  23.8839226   2.9142694  43.2243500  57.5339279  42.5847092
  42.4656830  57.0317688  42.8821869  42.8535919  58.2270241  42.0384636
  49.9067726   7.5645366  21.9607487  50.1310349   8.3196383  21.4169102
  49.5439720   6.9263010  21.3465328  86.9998856  39.3267632   9.1489553
  86.5869675  39.6758919   8.3591223  86.4316330  38.6046753   9.4171181
  29.4476452  63.9644737  75.5472260  29.3750210  63.5877724  74.6702728
  28.9252987  64.7656174  75.5077820  68.5599213  34.5866470  65.8224487
  68.0760727  34.1776199  65.1049423  68.4713058  33.9728928  66.5516129
   1.8380883  44.8572731  65.1801529   1.4540156  45.6996536  64.9370193
   1.5709132  44.7258644  66.0898666  58.9741783  12.2031307  17.2524891
  59.2844009  11.3467817  16.9581051  59.4579391  12.8306980  16.7154922
  71.8540573  34.8278236  70.3640060  71.3724136  35.4486465  69.8173523
  71.5977936  33.9673920  70.0320053  51.8726349   4.7213740  61.6666756
  51.4614677   4.0582161  61.1122437  51.1598053   5.0521021  62.2132301
  50.9011993   8.5492735  71.6558304  51.6201553   7.9867163  71.9436874
  50.2711105   8.5199480  72.3758011  71.1958771   1.1416574  48.9746742
  72.1391983   0.9816568  49.0026741  71.1170120   2.0863726  48.8422928
  49.3977928  51.2521515  16.9499588  49.2814522  50.6437988  16.2201614
  49.5722580  52.0958939  16.5329514  78.8483810  59.0462990  78.0649643
  78.4473495  58.3921585  77.4926834  79.7608566  59.0877380  77.7787781
   4.7027473  57.2183151  53.1609459   4.5319195  56.7197914  52.3618698
   4.1319537  56.8202744  53.8182068  47.5850601  64.4651337  81.8523865
  48.1142197  65.2091675  82.1398544  47.7403908  63.7909508  82.5138931
  80.9428253  30.6145573  24.7843952  80.0905228  30.7181854  25.2075539
  81.1857452  29.7045002  24.9547520  82.1482239  59.2786980  23.1537457
  82.3566895  59.7299385  23.9717655  81.2538605  58.9606018  23.2768688
  22.3967724  61.3334694  61.5406723  22.8654633  60.5409317  61.2790451
  23.0348434  62.0377808  61.4264793  29.7819481  54.5820847  42.1688080
  28.8625355  54.7775993  42.3496056  29.7892475  54.2853279  41.2588005
  82.0889130  33.3952827  78.2851410  82.5824738  34.2103920  78.3758469
  82.5320740  32.9242020  77.5795059   7.2603951   5.2466927  33.5743561
   7.0466213   5.9815707  32.9994774   7.3142467   4.4918613  32.9882164
  36.8947601  68.1147461  19.2442169  36.8368454  69.0642929  19.3502655
  36.5149803  67.7603531  20.0482082   2.9117956  23.8843155  40.8501740
   3.5023217  24.5784531  40.5574532   2.2972414  24.3244801  41.4373779
  43.2074928  46.1477547  70.9929504  43.8139687  45.9320908  70.2845001
  42.3993378  46.4018707  70.5473709  77.2122345  60.7109642  52.4419441
  77.0096817  59.7760124  52.4746971  78.1562042  60.7462578  52.2873306
  37.0565338   3.5787029  38.3354988  36.7972488   2.7835307  38.8010139
  36.5316467   4.2721925  38.7352448  15.5615540   0.6634817  88.4688568
  14.8622770   0.6680901  87.8152313  15.2804050   0.0164852  89.1158295
   3.9863572  41.1234169  33.3326340   4.7110004  41.6967964  33.0829086
   4.4085145  40.3691139  33.7437820  67.2979355  45.2712059  88.1756516
  66.8624344  46.1235809  88.1699219  66.7043533  44.7022591  88.6657562
  60.7598686  10.7524548  78.5955124  61.2415810   9.9275150  78.5350571
  60.1477890  10.6199017  79.3194046  81.5268173  25.5865021   4.8356023
  81.1444244  24.8742905   5.3482080  81.2260208  26.3837509   5.2716656
   4.7250690  11.5723629  28.6739197   5.2874413  11.9047928  27.9743061
   4.8978972  10.6310940  28.6932869  11.3379669  44.0890923  25.5469131
  11.1309910  44.4598160  24.6890354  12.0689316  44.6180992  25.8664055
  39.0695877  66.0351791   3.6512761  38.5386124  65.3402176   4.0402856
  39.7067413  66.2581329   4.3299193  61.2825546  71.0423660  68.3242722
  61.2785568  70.3975906  69.0317230  60.5761795  71.6482086  68.5483856
  31.3469658  70.9772949  36.9176445  31.3516636  70.1301956  36.4719658
  32.0992126  71.4437866  36.5533142  22.0607777  65.2978439  34.0444984
  22.4008064  65.4611435  33.1647568  21.5631351  64.4843750  33.9617577
  62.8452301  17.4460430  76.1553345  62.8400040  16.5059433  75.9752808
  62.8541451  17.8555546  75.2902069  64.9191360  43.0567245  26.2623825
  64.8170547  43.9956512  26.4180336  65.8657684  42.9235344  26.2137032
   0.2865333  65.7974014   2.1203742   0.2884408  66.2828217   1.2953906
   1.1611809  65.9379196   2.4829738  58.0283089   6.4479666  26.0708466
  58.3614235   6.8334775  25.2605076  58.1893501   5.5094485  25.9734764
  30.5442181   1.2902710  34.6789246  31.0426369   1.2143865  35.4925919
  29.6647110   0.9898163  34.9078903  85.9534454  33.6501198  78.2257690
  85.9473419  34.1220207  79.0585403  85.2382431  33.0186501  78.3030624
   7.1448441  56.1344414  23.9643688   7.6088600  55.9411087  24.7789516
   7.1841826  55.3177452  23.4666805  23.6919899  11.9166269  88.1046295
  24.0912342  12.5949497  88.6493454  24.1700687  11.1179829  88.3278809
  74.1461029  21.9882469   2.0545595  74.1258087  22.8104877   2.5441921
  74.5651627  22.2142467   1.2241703  52.1451073  56.2570190  75.9262085
  52.7054291  56.1416512  75.1587677  52.3497696  57.1371231  76.2420654
  68.3473434  58.8280373  40.5249138  68.6845474  57.9325523  40.4997520
  67.4231949  58.7426453  40.2906303  45.5335426  14.0374146  68.9792404
  46.1087379  13.3470449  68.6494370  46.1215630  14.7681351  69.1703262
  58.1692505  52.3657722  64.7334976  58.7038841  52.9248352  64.1697159
  57.7450523  52.9728737  65.3398972  38.2623863   1.1937289  45.6712341
  38.1840744   0.5533594  44.9641113  37.6188583   1.8686794  45.4554863
  63.1484566  37.2778435  55.7750282  63.1306839  37.5658112  54.8623466
  62.3611794  37.6605263  56.1623001  80.3564301  71.7480164  23.7660046
  81.1189728  71.2823486  24.1093960  79.7540665  71.0548477  23.4960003
  18.9037514   9.2266474  55.1577377  18.4960136   9.9401293  55.6485786
  18.1795502   8.6382027  54.9444313   6.0160003  14.2503424  72.4689865
   6.5746226  13.6373701  71.9910355   5.8089390  13.7980146  73.2867584
  16.4827671   5.7164726  50.7779465  16.6841145   4.8844967  50.3495674
  17.3241062   6.0201716  51.1187477   0.3341554  30.3571930  51.3016624
   0.9040355  30.5110607  52.0551834   0.6482559  29.5338211  50.9279900
  17.0965633  63.7126083   9.2964220  17.6423054  63.1711807   8.7261086
  16.6174126  63.0841637   9.8365164  41.5312958  38.3703537  87.0532990
  40.8525581  38.0727425  86.4475174  42.0188904  39.0307503  86.5610046
  55.7426720  44.0412636  22.7408142  56.1495361  43.3656960  23.2833080
  55.1119232  43.5662613  22.1997395  63.8675194  27.7692585  25.6594486
  64.0556030  27.8950729  26.5895176  63.0099792  28.1748276  25.5315018
  51.4154701   2.1664853  31.8438282  51.7570534   3.0139856  31.5587006
  51.6508598   1.5637826  31.1384392  17.0968838  13.5610504  60.0061378
  16.5763397  14.1733780  60.5260658  16.4497566  13.0057068  59.5713387
  10.7134504   8.3691244  57.6407280  11.0103025   8.5492182  56.7487221
  10.1984320   7.5659246  57.5641861  16.8506622  59.4733276  42.1919518
  16.7780819  60.3011932  42.6669312  17.7499676  59.1853447  42.3486366
   5.2811084  25.1418667  82.3568573   6.2218776  24.9879055  82.2703629
   4.8818407  24.2897739  82.1814880  53.9793549   8.0106573  44.8121567
  53.8514709   7.1148505  45.1242599  53.4687119   8.0578890  44.0039215
  67.0310211  61.3847466  65.6115265  67.0345764  62.2899818  65.3004456
  67.9319916  61.2243881  65.8921814  30.8376122  44.6200562  79.1222076
  31.2341747  45.4160614  78.7681732  30.2646580  44.9295120  79.8237762
   7.5258298  33.3627968  15.9187202   6.6615090  33.7659340  15.8370981
   7.3885822  32.4491615  15.6683903  67.6206131  39.8975868   4.1294794
  67.5342331  40.2688980   5.0074863  68.5247269  40.0857925   3.8777180
  61.5077057  44.8571320  87.9634628  61.8802986  44.6350365  87.1101913
  62.0414848  44.3708229  88.5918121   9.5971918  17.0159111  46.5656433
   8.6444979  17.0823326  46.6303978   9.7600946  16.0936298  46.3679199
  22.1785030  46.5256958  76.1595535  21.5976982  46.5537415  75.3992157
  22.8619537  45.9013634  75.9159698  84.7376862  59.2195930   5.9013634
  83.9255371  59.4594955   6.3475714  85.0518799  60.0388985   5.5189371
  72.2559738  69.4643707  42.3186989  71.3853302  69.8096313  42.5162048
  72.8551788  70.1666412  42.5716782  62.0198936  44.6187096  13.6998053
  62.6375809  45.1691093  14.1812105  61.9961929  43.7981682  14.1921253
  21.9216499  45.5833740  33.8329773  22.6817665  45.1696854  33.4239349
  21.1771488  45.2876434  33.3090515  80.6323929  61.4221420  87.7609787
  81.5274887  61.7611656  87.7512436  80.6081009  60.7894096  87.0431442
  16.5971165   3.4289556  42.0367546  17.3871117   2.9644771  42.3131599
  16.3583546   3.9660354  42.7922478  66.7201233   2.4526081  13.8978691
  67.4840012   2.4425287  14.4745989  65.9734192   2.5365753  14.4908352
  24.6127758  42.6357994   6.1423454  23.8240986  43.0568542   5.8003926
  25.1887436  43.3626518   6.3793707   4.0410614  14.3576431  25.0960331
   3.9311361  14.9245920  24.3326740   4.6405168  14.8382006  25.6669521
  80.3116150  55.5761528  59.0413780  80.8506927  54.8673935  59.3925056
  80.9262314  56.2956543  58.8971748  58.1716347  45.1423454  42.2808037
  58.3856926  45.1815071  41.3486671  58.1312256  44.2065849  42.4781609
  83.1878281  62.7907486  88.1013489  83.3224258  62.9719734  89.0315475
  82.8397293  63.6085129  87.7459335  10.5016022  70.6354523  38.1188622
  10.3117018  71.4257355  37.6132774   9.8651896  69.9924240  37.8062439
  46.7461205  23.1941910  10.2049370  46.1222801  22.5927982  10.6116066
  46.4061623  24.0655708  10.4083042  42.0400124  64.4847260  11.3514977
  42.6351395  65.1785583  11.6354818  42.5929413  63.8850327  10.8506336
  34.5073814   4.2770386  10.9654541  34.7115211   3.8879752  11.8158598
  35.0703735   5.0494604  10.9141054  26.6657906  62.1773186  20.4398880
  26.3914833  62.8266525  21.0874634  27.1020317  62.6884003  19.7581806
  38.7412605  71.7669067  48.0489044  38.4645081  72.0154037  47.1669197
  39.1729050  70.9202042  47.9348488  74.3269806  60.1770172  26.5947399
  74.6431885  60.6683846  25.8365784  74.2352905  59.2788391  26.2767773
  65.9590683  53.3165817  14.6479683  65.1024323  53.7365036  14.5700397
  66.3669357  53.7425728  15.4018974  74.6700439  59.2714386  85.0354233
  74.9455643  58.6936035  85.7470551  73.7792511  58.9887009  84.8285675
  32.6822891  37.2092400  73.0249710  32.4769974  36.4872932  73.6190109
  33.4786911  37.5979843  73.3867111  16.9809685  35.9178581   3.6417646
  16.3273106  35.8245239   2.9487631  17.6261234  35.2355957   3.4559481
  57.7649345  50.2255554  74.0356750  57.7068214  50.1098595  73.0872726
  56.9690361  49.8169708  74.3760223  47.6564713   9.0525398  82.2666321
  48.4382401   9.5457773  82.0180664  47.9350700   8.5225039  83.0134125
  78.5849075  13.7834024  77.5054855  79.2050781  13.9657612  78.2114334
  77.8033676  14.2848835  77.7377548   9.9724760  53.7537155  36.6923828
   9.6149693  54.5016518  37.1709366   9.2090006  53.2148170  36.4852028
  29.4688110  57.0468750  11.4339552  28.5821953  56.8154755  11.7107182
  29.6770782  57.8366318  11.9330931  41.1426659  46.9011154  20.4916096
  40.4944763  47.1503868  19.8328629  41.0019264  47.5166283  21.2110329
  70.7568436  47.8093338  11.6390400  71.7083282  47.7470322  11.7228432
  70.5036316  48.4780693  12.2753687  38.7143784  18.2325306  76.5623550
  38.9073753  19.1553402  76.7278976  39.0614700  17.7742081  77.3276596
  24.2350845  14.8560123  32.8653107  24.8819027  15.5611763  32.8408089
  24.7204838  14.0968809  33.1883240  36.7347565   0.8798608  15.2296391
  37.2217865   1.6060522  15.6190987  37.3655739   0.1608760  15.1927462
  41.6653519  68.2742310  43.6995049  42.2717781  67.5561523  43.5182991
  41.4403191  68.6212921  42.8362885  42.9932327  15.2673635  63.6280479
  42.0790558  15.0966463  63.4013977  43.0058479  15.2720537  64.5851517
  24.4130039  55.1769905  43.2269897  24.7122173  55.5622978  42.4034386
  24.1984882  55.9288406  43.7791977  63.8998184  38.8392372  59.0491829
  63.6693497  39.2416306  58.2118073  64.8512344  38.7403717  59.0136032
  61.3525238  36.6477966  31.9044437  61.5607033  37.4140091  32.4390564
  60.7568703  36.9792786  31.2324715  46.0693588  31.4175129  67.1851654
  45.9451180  31.5056896  68.1301575  45.8350410  32.2756348  66.8316803
  15.9849129  39.0264587  33.1223907  15.5392418  39.6893463  33.6498299
  16.0706921  38.2732620  33.7068291  65.9058304  17.6683464  73.6076050
  65.1244812  18.1288204  73.3014984  66.4432373  17.5606899  72.8228531
  72.3987961  25.6482468  42.5078163  72.3384399  26.4741631  42.0277596
  72.8106232  25.8839493  43.3391228  73.4409485  47.5449867  86.7687225
  72.5824203  47.1562653  86.6012344  73.9973145  47.2087173  86.0661469
   0.9997558  52.2035522   7.2863183   0.5759319  53.0332108   7.0666203
   1.3865976  52.3532677   8.1489706  50.9193382  53.4611664  42.9982185
  51.0919571  54.0734558  42.2830009  50.0304108  53.6714630  43.2842560
  64.7461014  56.6068764  26.9233112  64.4242554  56.7102470  26.0277882
  64.2701035  55.8490372  27.2629147  85.0709839  26.6248188  79.0604553
  85.6533356  26.1131210  79.6219406  84.4557343  27.0376472  79.6664886
  83.3405609  32.4761162   3.1439512  83.8002396  33.3141022   3.0919030
  82.6338806  32.5503464   2.5026100  30.3179474   3.0520616  64.7249908
  30.9898281   3.6765242  64.4513931  29.5052776   3.3974206  64.3554916
  52.7844734  12.8045979  73.2024841  52.5894165  12.2826328  72.4241943
  53.5268326  12.3585606  73.6101456   1.7097690  56.3436317  12.4557762
   1.0811067  56.5164261  11.7549496   1.4569944  56.9435005  13.1575546
  30.5340824  48.7423706   6.1252923  31.2890816  48.6546173   6.7071047
  30.9018040  48.6759300   5.2440443  52.4156380  66.7706146  13.3999844
  52.6561508  67.6785812  13.5842981  52.2349548  66.7567673  12.4600935
   1.2959120  29.6225224   4.9266105   0.6676622  29.3080406   4.2765064
   1.8571185  28.8672600   5.1022730   2.3733437  69.6051254  49.2396164
   2.7456744  70.4539566  49.0007057   1.4372411  69.7751923  49.3445969
  59.0251198  12.8948298  23.0614929  59.9086456  12.9108582  23.4294033
  59.1334839  13.2104979  22.1643620  57.5354500  11.1808634   4.0698676
  58.3568649  11.6428356   3.9022553  56.9665070  11.4322414   3.3423076
  21.0452328  63.6863403  27.9295750  20.8267632  63.2630005  27.0993423
  21.9996853  63.6349945  27.9807377  48.5126190  44.5017242  88.9726868
  49.4173851  44.1915703  89.0105667  48.5860291  45.4260139  88.7349243
   7.6863685  10.5981474  40.8040047   8.3145103  11.3137770  40.9016953
   7.8319392  10.2712002  39.9162292  78.4873962  65.3006210  78.0605240
  78.1338348  65.1348038  77.1866074  78.8575363  64.4608078  78.3324585
  80.8652115  63.9619484  81.1797485  80.1528091  64.4742508  81.5621872
  80.9089203  64.2547531  80.2694778  79.2422714  47.1432076  10.6337814
  80.1335831  46.8456154  10.8161049  79.2362518  48.0613441  10.9043732
  43.3499298  47.4066811  73.3725510  44.0634041  47.1475487  73.9556732
  43.5165176  46.9257927  72.5618591  19.6799641  43.1591187  72.4998779
  19.8356323  43.7834854  71.7912445  20.5249825  43.0844994  72.9432831
  80.8950195  59.9902611  32.1444130  80.5135193  59.2262955  31.7119293
  80.7675095  60.7063103  31.5221233  28.1630421  60.1664581  79.8103027
  27.4049358  59.9577065  79.2644806  27.9113998  59.8815613  80.6887970
  54.9582825  25.3486881  17.1367283  55.4678726  25.8391171  17.7817307
  55.5793686  25.1616516  16.4328079  56.1592178   9.1269464  55.8713379
  56.1961632   9.1981487  54.9175034  56.2340317   8.1885242  56.0445404
  63.3263474  31.9440804  54.6373215  62.5287971  32.4697075  54.5751801
  63.0525475  31.0625343  54.3840561  69.4068756   2.7274692  84.6798782
  68.6770935   2.8102651  85.2937164  70.1047058   3.2578948  85.0644760
  73.3478928   5.2174306   6.2487154  72.7801590   5.2896495   7.0159750
  72.8645859   4.6529260   5.6454129  51.6688957  20.9760895  72.7663193
  51.0949783  21.7361755  72.6708069  52.2847023  21.0478039  72.0370255
  74.8567352   2.0198915   0.1121419  74.7948837   1.4639288   0.8888735
  75.3280945   1.4861492  -0.5275230  19.9389496   8.3003187  80.9584808
  20.0633488   7.8456340  80.1254044  20.3771095   7.7441721  81.6026459
  75.6597443  28.3618412  42.5075302  74.8791656  28.9000874  42.6387291
  76.2329407  28.9001980  41.9617729  34.3744659  27.2700577  73.2154007
  33.4410667  27.1826115  73.0221405  34.4660797  28.1596336  73.5567093
  45.4789238  59.3755112  66.4846725  46.1893921  59.3038559  65.8472290
  45.4431343  58.5144501  66.9012299  76.4664078  50.9653168  19.2985134
  76.5032883  50.0969391  18.8975239  77.0434494  51.5038757  18.7570248
  59.4942932  27.9143562  68.7313766  59.0368042  27.0917492  68.5574341
  59.5774460  27.9452858  69.6844559  57.3523903  47.6265984  36.0569572
  56.5700722  47.1582680  36.3482933  57.8532295  47.7781029  36.8584785
  16.8130684  56.2454300  43.5680313  17.2575397  56.6169243  44.3300476
  15.9214382  56.0737534  43.8709373  70.5910416  28.1249924  55.0631371
  71.0283737  27.5887375  54.4017715  70.9743042  27.8414135  55.8931541
  83.2448273   2.4347997  82.5898361  82.6693954   3.1989377  82.6245346
  82.6483994   1.6862541  82.5762405  68.1943283  31.7641487  36.9986000
  67.5800400  32.4396782  37.2858925  67.7594604  30.9385681  37.2119942
  51.1247559  30.7175484  12.5250883  51.8074646  31.3528080  12.3092451
  50.8028030  30.9941597  13.3830299  53.1696014   3.6267934   2.4847994
  53.4298553   4.5100112   2.2232125  53.7731247   3.3988159   3.1919210
  58.1893654  60.6505508   2.0314815  57.8818474  60.3808403   2.8968835
  57.7944336  61.5116692   1.8946016  82.0423279  17.5297813  46.0863647
  82.2750626  18.3441410  45.6403999  81.4673004  17.0754089  45.4706345
  31.1780815   2.5291226  83.3046951  30.3521805   2.1080399  83.5430450
  31.8229561   2.1449327  83.8986359  54.0860863  34.2177048  86.4091263
  53.8085480  35.1219292  86.5560532  55.0384865  34.2695618  86.3286591
  50.1000862  35.5965652  76.0430603  49.9732819  34.7013283  75.7288971
  50.8029175  35.9454803  75.4948654  64.5120850  24.9228592   2.4682503
  65.2006836  24.4328003   2.9175870  64.6747971  25.8360367   2.7046051
  62.8333855  57.2703171  63.1634979  61.8963737  57.0861740  63.2293129
  63.0200539  57.8338432  63.9143829  10.5268059  53.3078880  53.0807190
  10.2359409  53.5252495  53.9663734  10.6575193  54.1560020  52.6566353
  59.2081604  42.9215660  18.2842350  59.1345749  41.9681320  18.2420559
  58.3038750  43.2333908  18.2486000  75.0339890  30.1027088  75.3375092
  74.7493744  29.6314068  74.5544968  75.3715134  29.4206715  75.9181442
  38.4897652  45.8773689  81.5709229  39.1073570  46.4388161  81.1023102
  38.3119049  46.3455276  82.3866577  85.3254776   2.2800808  56.1999435
  84.6509018   2.4483385  56.8578758  84.8374939   2.0341070  55.4140663
   9.3607359  51.2228012  69.3564072   8.7275743  50.5083923  69.2859879
   9.8010778  51.2372169  68.5066299  27.2806015  37.5352859  69.9621964
  27.6084366  38.2601280  70.4945145  26.3494186  37.7247009  69.8470764
  63.6732521  64.4680328  50.9346848  62.8292046  64.9011154  50.8071823
  63.7935638  64.4526672  51.8841667  41.2798386  32.2092896  21.3764057
  40.4037590  32.0611801  21.0203457  41.8292465  32.3576813  20.6067543
  75.5324936   4.8214197  70.2721329  75.3538589   5.5224800  70.8988953
  76.4672852   4.9019980  70.0826416  34.0520325   6.2216434  34.8172417
  34.4747391   5.5834084  34.2426071  34.5422249   6.1669188  35.6375771
  71.5242844   7.0393724   0.5501100  71.4467010   6.8968167   1.4934500
  70.7446289   7.5444326   0.3192811  77.6800690  46.3318710  14.4700356
  76.9417191  46.4968681  13.8836517  78.3025360  45.8363876  13.9378080
  62.9273338  14.8419552  65.5430374  63.2488403  15.3688173  66.2746735
  61.9829636  14.9977798  65.5324631  62.9811897   1.9699630  42.8128586
  62.8761711   2.9158945  42.7107964  62.4811020   1.7570927  43.6007843
  38.5853691  14.1126051  36.2522316  37.7625542  13.9976425  35.7768517
  38.3816795  14.7553959  36.9316177  12.1318684  66.4368668  59.0149117
  12.9172754  66.1202316  58.5686989  12.4413357  67.1601868  59.5601387
  48.6643410  54.9181633  66.8208313  49.4499435  55.0346947  66.2865295
  48.8275833  54.1146126  67.3146820  44.4636726  52.3520813  81.7615128
  44.5878143  51.4995804  82.1787109  44.1685867  52.1441803  80.8749771
  67.1018372  44.9216003  30.4508400  67.9113998  45.1547546  29.9964466
  66.7567902  45.7559357  30.7687416  26.9839535   0.0324399  40.9918365
  27.5558033  -0.4783656  41.5648079  27.5068398   0.7974424  40.7518501
  82.3353424  68.8314667  34.6844215  82.8186111  69.6556931  34.6267967
  82.3984756  68.4549255  33.8066597  50.4211884  30.2890205  88.8967819
  50.4789810  29.7091675  89.6561661  49.5546913  30.1159954  88.5287094
  78.8678741  47.9322510  55.9708786  77.9417038  47.7033195  55.8932648
  79.0084763  48.0462151  56.9108124  35.0213776  37.7836342  15.2088366
  35.6693764  37.6069679  14.5268383  35.5215111  37.7658882  16.0247936
  74.7511520  39.0980072  57.6507607  75.0420380  38.5779991  58.3999023
  75.3321609  38.8353920  56.9368362  73.8362732  26.1714687  74.9619827
  73.5567932  25.7069588  75.7508698  73.0625229  26.6632080  74.6867905
  63.1909218  17.2888508  13.3771591  63.8668747  17.0677395  12.7365131
  63.3299561  18.2178707  13.5610723  19.6002331  29.9155750  24.8774757
  20.3006115  29.7432594  25.5067692  20.0556087  30.1896324  24.0813885
  54.5791931  47.8143196   6.4005756  55.3611374  48.1471939   6.8410163
  54.6443253  48.1536903   5.5079284  85.7549744  27.6586552  65.4372406
  86.4108429  27.2874393  64.8470993  85.1144638  26.9571724  65.5551300
   3.9472518  28.0901470  34.9826469   4.0053163  27.2675114  35.4685822
   4.2584000  28.7541943  35.5978394  51.4986954  11.8263550  79.6553116
  50.7895775  12.1315603  80.2212067  51.4901428  12.4310303  78.9133377
  43.0523949  12.0380487  77.2350388  42.8629951  11.4502525  77.9663696
  42.4228172  12.7524233  77.3326721  65.0028381  29.9687862  51.8322639
  64.1621552  29.8814487  52.2815514  64.9598923  29.3329601  51.1180420
  50.4897461  43.6057777  13.6028099  50.7626343  42.8051872  13.1546803
  50.1973610  44.1859550  12.8998613  65.5289383  66.6309357  53.0565147
  65.9946136  66.5612640  53.8898964  66.1618881  67.0326157  52.4613190
  14.2642136  10.7667246  56.5248871  14.0938520  11.6654816  56.2430267
  14.8093100  10.8599815  57.3061714  26.0706425  42.3649216  83.9674072
  25.6797485  42.7866859  83.2021942  25.9511185  41.4280624  83.8116913
  65.4394379  50.6581612  30.8153954  64.9936523  51.5045433  30.8491917
  66.3652649  50.8701782  30.9342365  77.1023026  29.9584370  32.4185066
  76.9819183  30.3321133  31.5455208  76.6788101  30.5833740  33.0070190
  73.2728729  56.3639259  61.5247421  74.0921631  55.8704796  61.4859009
  72.5993576  55.7295799  61.2793694  43.7809944   9.1146030  14.6427898
  43.7599678   8.3245935  15.1828585  44.1834755   9.7775869  15.2037649
  74.2939758  64.2885284  48.4582329  74.8793564  64.6515808  47.7935867
  74.4775085  64.8017044  49.2451248  14.3897829   8.3385286  27.9066429
  13.9035721   7.8313999  28.5567608  15.2800875   8.3839235  28.2552528
  47.2052422  68.8576584   1.6027746  47.7174950  68.1072769   1.9040402
  46.3120804  68.6690750   1.8907590   2.4860661  54.3552094  18.5673084
   2.8019834  53.4714088  18.3793697   2.2509418  54.7126503  17.7110462
  14.3647022  31.8620453  79.4494705  15.2803173  32.1145172  79.5683670
  13.8657770  32.5789452  79.8410797  69.1624146   4.1147037  74.3828049
  69.0373535   3.7727630  75.2680588  68.8960266   3.3965292  73.8087921
   4.7656598  13.4479113  15.4760571   4.7814322  12.7309198  14.8420954
   3.8718975  13.4450293  15.8187113  77.2724686  45.0034676  49.1060410
  76.7091522  44.4569817  48.5580826  78.1139069  44.5472298  49.1144295
  42.1177597  31.5245628  18.4787827  41.2294083  31.2181568  18.6609421
  42.1399345  31.6440449  17.5293293  74.5780411  25.9680271  80.3765717
  73.6244965  25.9036674  80.3232117  74.7927628  25.6286011  81.2454300
  21.3548603  62.2788086  79.7043457  21.2699966  62.9993820  80.3286896
  21.7911510  62.6684952  78.9467010  68.3311691  23.5823326  57.6112213
  69.0703812  23.0132999  57.8256912  67.7486267  23.0314064  57.0883789
  77.9690094   9.1202641  75.3180161  78.2797394   8.2152910  75.2915649
  78.1336060   9.4038305  76.2173080  15.5579929   0.4740762  43.6994209
  14.7282143   0.0053877  43.7890358  16.1776428  -0.1911107  43.3997688
  44.5382957  53.7921181  58.8700294  44.6810379  53.8175049  59.8161888
  43.7094154  54.2529755  58.7404060  18.3792648  50.1010513  65.2526245
  18.6059952  49.4663963  65.9323578  17.8640690  49.6005783  64.6199112
  78.6951294  64.8214569   4.0462098  78.5060654  65.6937408   3.7003694
  78.7128754  64.9390411   4.9959941   0.6555635  49.9928017  64.3055878
   0.1400884  50.3266907  63.5713921   0.0058151  49.7658958  64.9708481
  79.3406982  17.2088413  67.5996323  79.3929520  18.0325565  68.0843964
  78.4347687  16.9212914  67.7129745  46.1436005  69.2493668  59.8283348
  46.8278542  69.2284164  60.4973564  46.6199303  69.3121567  59.0004463
  32.5129204  57.9598274  75.3249969  32.2109146  57.2767906  74.7262573
  32.7665939  57.4879684  76.1182404  53.3097916  36.8522491  87.0673141
  53.8193855  37.6561050  86.9655304  52.8768692  36.9488907  87.9155273
  62.9204140  43.4307556   7.3257971  62.6443481  42.8134956   8.0032978
  62.9009247  44.2848129   7.7575836  25.7168732  15.3887987  81.1877136
  25.1607819  15.6397934  81.9252777  25.4308910  15.9529667  80.4692688
  61.6673317  48.9004860  47.1752014  60.9087372  49.4003601  47.4766884
  62.3663330  49.5497398  47.0970993  40.4406090  43.5346565  68.5499191
  40.1891212  42.8430901  67.9377670  41.3299522  43.7737846  68.2889175
   0.6341197  20.5232029  23.0383224   0.4502493  21.2991810  23.5677376
   0.9888969  19.8876801  23.6599941  71.8872375  60.3918915  18.6830788
  71.3315506  60.4064980  19.4623260  71.3246155  60.7197418  17.9815102
  27.9726830  34.3665543  75.4561615  28.4975224  34.9699707  75.9821472
  27.9037876  34.7916832  74.6013260  12.8845129  53.8647804   6.0325208
  13.8278961  53.9591331   6.1642733  12.5001783  54.5900154   6.5250201
  48.1158791  12.2461252   9.4322453  48.6448326  11.4878044   9.1844721
  48.1186981  12.2376757  10.3894033  12.4725628  51.8068314  33.9780235
  12.3345366  50.8597221  33.9653130  12.7728453  51.9931946  34.8675919
   3.4209342  38.1383247   8.1839304   2.9547184  38.9341621   8.4398851
   2.9867134  37.8546104   7.3794489  47.6019135  50.7571335  78.9430695
  46.9863396  50.2016907  78.4647522  47.7293854  50.3087044  79.7790680
  52.0631981  63.5271950  46.9055748  51.6298790  64.3261566  47.2057838
  52.3605804  63.7344170  46.0196571  16.1543674  44.1412849   8.0152874
  15.3761530  44.6984024   8.0304728  16.8869514  44.7546577   7.9576116
  56.8191071  37.2062225  89.2440033  56.3642578  37.3844147  88.4208450
  57.6637688  37.6468658  89.1511688  68.9325485  30.2107525  54.5544243
  69.2717972  29.3523712  54.8080482  69.2702866  30.3498974  53.6696625
  57.7387123  40.2807236  88.0037308  58.3204765  39.9767418  88.7004242
  57.7573929  41.2350502  88.0754547  47.1437721  38.4811554  29.1765385
  46.3054619  38.9296989  29.2873306  47.2723618  38.0073929  29.9982719
  20.4195080  23.2175026  67.7247238  21.2184277  23.7359924  67.8202591
  19.7113914  23.8608341  67.7551575  33.2070656  25.9458065  85.4334869
  33.8477020  25.5204983  86.0035095  32.8156586  26.6274338  85.9797592
  33.5902901  61.6272736  26.6713161  33.3107338  62.2184029  25.9722843
  34.5367355  61.5469856  26.5528889  22.6059208   0.3227234  57.2272491
  22.6503181  -0.1778690  56.4125900  21.6754856   0.5185214  57.3376465
  13.0948162  18.4467278  83.0651321  12.3259439  18.2059898  82.5483093
  12.8467131  18.2514782  83.9687729  74.3933716  65.2184982  43.4219971
  74.3769073  65.8269196  42.6832275  73.7547073  65.5745010  44.0397415
  53.9211121  11.0618038  64.2439728  54.5747108  11.4811859  63.6843681
  53.1167870  11.5555458  64.0842590  73.3078995  70.7140427  45.7143593
  73.4644928  71.1172104  44.8604507  73.2699738  69.7750397  45.5325432
  34.0205345   8.4432220  15.2973833  34.5263939   7.8260036  14.7688179
  34.1437302   8.1441393  16.1982746  86.0078354  49.8921585   5.8231964
  86.6200409  50.5332489   6.1843662  85.2343521  50.4051056   5.5890241
  85.2991791  64.2798309   5.7975168  84.8128967  64.7375031   5.1117382
  85.8708801  64.9493256   6.1732402  77.6042557  23.8380394  40.2925186
  78.0046387  23.5842571  41.1240921  77.2417831  24.7085495  40.4570122
  62.1702499  14.0058861   3.5930812  62.5371246  14.5646553   4.2782173
  62.5051041  14.3767881   2.7766631  66.3301468  70.3432007  20.3209057
  66.9596939  70.9440155  19.9222431  66.7675552  69.4919586  20.3038235
  63.3279305  20.3316174  75.0497131  63.9374580  20.0440731  75.7294388
  63.2387085  21.2740974  75.1911316  82.6660538  41.6866837  17.5448475
  82.9798508  42.5184250  17.8997707  82.4529266  41.8809357  16.6321163
  62.7944450  28.7067528  86.0270920  63.6862144  28.9728165  86.2511215
  62.6433601  27.9157696  86.5445404  60.9180565  30.2285671  68.8462143
  60.5460777  29.3483276  68.7910461  61.8069763  30.0928116  69.1742706
  54.1423721   2.1954784  37.2137680  53.5905151   1.6013020  37.7223396
  54.3136368   2.9284141  37.8051262  33.3347664  50.1247787  10.0354891
  33.1539879  50.3208733   9.1161966  33.0896339  50.9230499  10.5033617
  80.7915497  64.2757721  47.3717461  81.4561081  63.6326180  47.1248817
  80.1583176  63.7790298  47.8899155  77.6779861  27.3606186  47.9073868
  78.0303345  28.1907940  47.5866127  78.3705673  26.7232418  47.7332802
  49.4631729  47.6135979  10.9068270  49.9310570  48.4115791  10.6607723
  48.5398636  47.8660049  10.9014378  77.1004028  10.2873325  57.5565643
  76.6746063   9.4960365  57.8863869  77.6834335   9.9749432  56.8646698
  34.4526405  67.8137283  45.1527405  33.6963615  68.3955231  45.0766640
  34.3012695  67.3290100  45.9641380  28.2558022   6.3608141  26.7793427
  27.8457947   5.5792775  27.1499195  27.9336586   6.3960967  25.8786697
  26.3208294  52.5115166  71.3936920  26.2517853  52.7229958  70.4626999
  27.0235348  53.0759048  71.7160339   4.1789651  27.8931808  32.0144997
   4.0436239  27.9817333  32.9579391   5.0301232  28.3011265  31.8553085
  42.5239449  67.5994263  86.8021469  42.4884262  67.8123550  85.8696060
  42.4087181  66.6497726  86.8355484  51.0793686  19.7766781  19.3600540
  50.8139420  19.6559029  18.4483547  51.9874496  19.4751987  19.3870850
  16.2895660  33.7149315  15.3874922  15.7864656  32.9579620  15.0872955
  17.2030678  33.4365959  15.3220987  10.2124825  57.2529678   7.4331503
  10.8860893  57.3621902   6.7619157  10.6255255  57.5619354   8.2394781
  64.2660446  62.7508430  79.4900360  64.8160019  62.5749588  80.2534790
  64.7426071  62.3616638  78.7567825  77.9164047  10.5169916  72.9311905
  77.9206161  10.3127298  73.8663330  78.5711594  11.2084379  72.8341064
   6.0945330  33.7204285  42.2563553   5.6160736  33.1756287  42.8812523
   5.7632957  34.6056595  42.4076271  53.7170410   7.3169765  87.0744019
  54.1610909   7.0625610  86.2655029  54.3404350   7.1010771  87.7679443
  68.1446075  37.0188446  79.4451981  68.3775406  37.5607491  80.1990662
  68.6234512  36.2012062  79.5808792  20.8485527  26.7454643  68.6414185
  21.4718742  27.2934914  68.1645813  21.3352718  25.9452114  68.8387222
  48.8205681  20.4930267   2.0501904  48.4302902  20.5222301   1.1766568
  48.7450752  21.3897705   2.3763506  65.3496399  44.0696373  73.7076416
  65.5801239  43.1417084  73.7529907  65.8355103  44.4725571  74.4272308
  11.5739851  35.2618370  61.0691795  10.7117596  35.0512695  61.4275932
  11.4177856  35.4001007  60.1349869  10.6742554   2.9035838  26.2947235
  10.6357479   2.9927504  25.3424644  10.2877302   3.7137933  26.6269741
  37.8594322  29.3884144  76.6263046  37.5933189  30.3046989  76.7027130
  37.4903069  29.1006317  75.7913437  27.2781734  71.0384674  66.6301346
  27.3537083  71.6328964  65.8836823  27.5215282  71.5719376  67.3867111
  39.7373047  28.5655289  88.9501419  40.4220085  28.4408875  89.6073151
  39.9053307  27.8859501  88.2973251   4.2459755  11.9518547  31.9573250
   5.0748248  11.8195906  31.4971657   3.7519925  12.5479755  31.3944283
  18.7871609  54.7375946  29.2344131  18.3152695  54.4657440  28.4472370
  19.0370197  55.6454468  29.0623455  12.6375580  66.1212158  20.6246700
  12.4912157  65.1762619  20.6678848  12.9698496  66.3520432  21.4921570
  12.9059877  -0.0076045  22.8307495  13.0089674   0.2517883  21.9151402
  13.0870895   0.7902819  23.3275509   2.7820947  69.5359268  22.5368500
   3.2616158  69.7485352  23.3375301   1.8637571  69.5151291  22.8060246
  10.2096491  58.5297089  20.1581154   9.6298208  57.7863197  20.3236465
  10.6930666  58.2853241  19.3689289   7.2362971  11.5825167   2.0825391
   7.5726571  10.7621880   2.4433093   6.4683366  11.7824936   2.6177757
  23.5798588  59.8224945  34.4481316  23.2661572  60.6617508  34.7849922
  24.5053272  59.9726562  34.2552834  20.8245716  15.9495907   0.2960092
  20.8808212  15.0995693   0.7325086  21.3851681  15.8606100  -0.4747352
  66.8344650  31.5567303   7.8061743  66.3804550  31.3740158   8.6288023
  66.1510925  31.8891029   7.2241449  71.0284348  29.7291050   7.4481759
  70.0751190  29.6852741   7.3740458  71.3159561  28.8185329   7.3816853
   9.7044163   7.7650576   4.8779631  10.5980635   7.4550643   4.7312269
   9.5070229   7.5091000   5.7789364  70.7992401  21.6630630   6.0075750
  70.6265182  21.5161247   6.9375248  70.9565887  20.7883720   5.6520634
  61.0839729  27.4527168   7.3779988  61.0762939  27.7267971   6.4609094
  60.9579659  26.5044003   7.3456292  62.7241707  44.3452721  58.1864090
  62.1752892  43.6629219  57.7999382  63.5173645  44.3466759  57.6506157
   4.1056437  38.9390221  37.3191757   5.0247579  39.1865158  37.4202118
   3.6787615  39.2765274  38.1066360  20.8348885   3.3272228  27.7564831
  20.7775974   2.9444244  28.6319332  21.5907860   3.9128385  27.8001404
  46.3108864  62.2366371   3.8923733  45.7576637  61.6802216   3.3441236
  46.5275536  61.6894341   4.6472611  84.8556747  24.5623245  70.1744461
  84.9798126  23.7829628  69.6327667  85.3841934  25.2369766  69.7481308
  57.5865173  25.9934559  68.9125595  57.4638596  25.0872383  69.1953278
  57.0925598  26.5115776  69.5480042   4.4945049  19.1703262  44.0689926
   4.1047659  19.1490726  44.9429970   5.2805924  19.7070217  44.1702652
   6.9226837  52.2447739   0.2717514   6.4275899  51.4894562   0.5889406
   7.7800255  51.8885040   0.0387921  63.2983322  10.4966202  25.0198326
  64.2423706  10.3384724  25.0237999  63.0784607  10.6568127  25.9375610
  20.0238094  68.8226624   1.5209936  19.1896687  69.2908325   1.4855198
  20.5906162  69.3830109   2.0510590   5.9332943  11.1886406  81.8250198
   5.0078373  11.4047346  81.7107162   6.3821478  11.6898861  81.1441956
  36.1313896   9.8805809  80.6755447  36.5398483   9.4784756  81.4421692
  35.9088631   9.1426210  80.1079865  48.6682663  67.3570251  48.6090088
  49.0013275  68.1933823  48.9342995  47.7864685  67.5563889  48.2944946
  52.8374138  14.9514599  35.3362465  53.4759369  14.2425575  35.4135551
  52.1375694  14.5855122  34.7953873  15.0950909  31.3908348  14.4505568
  15.4136124  30.4885693  14.4768362  14.2368383  31.3297310  14.0311527
  13.4569731  61.0254173  25.3169556  13.1337290  60.5809059  26.1006374
  13.7940435  61.8618546  25.6378765  29.6803722   6.2118945  47.9101448
  29.1105614   6.3752794  47.1585770  30.5496979   6.4827952  47.6149902
  65.1282196  29.0020466  44.8091431  64.7323227  28.9569225  43.9388199
  64.5937042  29.6394749  45.2826576  70.2582932  10.9110994   5.1188340
  71.1815567  10.8790293   4.8682489  69.7899246  10.5869923   4.3495393
  59.0139465  46.2099609  34.4456596  58.4397392  46.8322983  34.8919868
  59.8967438  46.5476608  34.5968590  57.2214050  41.7475395  80.3621292
  57.3896942  41.1017075  81.0482864  56.5216446  41.3609200  79.8357391
  62.0936317  34.2527390  20.8255711  61.9230728  35.1755028  20.6367702
  61.9039078  33.8009796  20.0032883  58.1656036  39.3438911  38.7805099
  58.0131149  39.7862129  39.6155739  58.5505905  40.0172386  38.2196045
  38.5752831  36.0111771  19.0799522  39.5207939  35.8746262  19.0199833
  38.4817047  36.8240051  19.5767250  76.3730087  15.7918568  16.9952717
  75.5022964  16.1400299  17.1872787  76.2062912  14.9476891  16.5759659
   0.2694928  17.4618301  45.9616547   0.4735079  17.1861458  46.8553047
  -0.2658863  16.7514362  45.6081810   0.1147324  39.9411888  37.9870415
   1.0462993  39.7211571  37.9873619  -0.3119211  39.1773453  38.3752975
  60.3458366  66.4300766  87.0329437  60.0437050  67.0072784  86.3316727
  59.7948647  65.6511307  86.9561005   4.8139191  21.5127316   2.1280615
   4.0430946  21.4030247   2.6848612   5.5352540  21.1524830   2.6439383
  57.7314682  -0.0124168  38.3350868  57.5031128   0.4436111  39.1450996
  58.6339836   0.2523982  38.1573982  19.4702435  70.0699692  54.0763054
  18.5210838  70.0363770  54.1954689  19.6617069  70.9977112  53.9389420
   1.8222641  59.4867516   0.9682654   1.1768925  59.9141045   1.5313770
   1.4897393  59.6181068   0.0803439  11.0672140  12.0908184  48.7416916
  11.2240381  12.7931519  49.3728523  10.4051247  12.4454708  48.1483192
  28.1350765  16.7557793  20.7794952  28.7470856  16.3597813  21.3998661
  27.3807735  16.1664944  20.7779217  65.6103439  27.5105362   3.1526830
  65.8223419  27.6737423   4.0717325  66.3559189  27.8650970   2.6682839
  10.4015808  58.0035591  53.7051697   9.5282831  57.6137466  53.6648064
  10.3694668  58.7282944  53.0806999   2.2094488  51.6636620  17.8627148
   2.9127233  51.2273216  18.3435936   2.5180082  51.6881790  16.9569435
  47.4060173  47.7899208  71.8828583  46.9994354  48.5935364  71.5586319
  48.3406639  47.9095726  71.7144775   5.3472824   5.2070904  68.4008102
   5.0574560   4.9375911  67.5292587   5.2159038   6.1551342  68.4143982
  77.8507233  28.2467251  61.3989525  78.2042313  28.8914757  62.0117798
  77.3901596  28.7683830  60.7416916  37.4511108  15.6185427  19.4879780
  37.9518242  15.4446688  18.6909313  38.1112671  15.6693783  20.1792412
  59.4772987  40.9298782  44.8519402  59.0978394  41.4909630  44.1756058
  59.6314430  41.5173302  45.5917854  35.2132263  67.6495209   0.1469183
  34.4080887  67.8706055  -0.3211641  34.9153938  67.1895218   0.9317317
   6.2962337  61.0379486  80.5748291   6.2886896  61.9055138  80.1704712
   7.0708966  61.0424767  81.1370621  47.2278328   7.0863729  51.4477615
  47.2788086   7.9817519  51.1132050  46.6510048   6.6333551  50.8327179
  36.8051949  18.3307419  78.8182144  37.5728989  17.7597980  78.8479919
  37.0449905  19.0829468  79.3594360  30.0222855  38.1672554   6.3570876
  29.4669571  37.6893158   6.9730549  29.8430748  39.0897446   6.5390992
  73.2149963  23.3866348  27.1943417  73.8669510  24.0468559  26.9591885
  73.6273499  22.5523815  26.9702492  28.6730766  59.0032768  24.7272911
  27.8457718  58.5227051  24.6981297  28.4912758  59.7594452  25.2853146
  25.4087315   0.4465686  15.0819654  25.6700420   1.0346452  15.7905655
  25.9547577  -0.3304149  15.2018948  48.9464455   6.7558761  26.3060513
  48.9947968   7.4757156  25.6769848  49.7886353   6.7779016  26.7604332
   9.1758404   8.4338770  77.4922256   8.8963203   9.3013449  77.1996536
  10.0981722   8.5446310  77.7230301   3.7533269  16.5913372  29.3334827
   3.0214651  16.7987022  29.9145260   3.7577028  15.6353445  29.2856064
  58.1933975  28.6408615  32.0080681  58.0181847  27.8288651  32.4836655
  57.4254265  29.1870861  32.1756744  81.2330170  26.7683716  77.3037643
  81.4147263  26.3815670  78.1602707  82.0605240  27.1728001  77.0431824
  49.9101410   4.5034380  16.9633312  50.1779251   5.2848210  16.4796314
  50.0588989   3.7812326  16.3529854  18.7049294  57.7327499  82.5815582
  18.7833042  58.1887016  83.4195328  18.3707027  56.8656502  82.8110352
  72.9833908  37.3123055  63.5546265  72.7301407  36.9704323  64.4120789
  73.3529663  36.5579872  63.0956535  40.3253365   7.0713940  24.8362350
  40.7668228   7.6257248  25.4796925  40.8087921   6.2455902  24.8596497
  62.6349487  67.6899872   4.8516994  62.9381065  66.8194580   5.1095963
  62.8882103  67.7690811   3.9320073  18.3437805  67.7543564  40.1844521
  17.5956821  67.1587067  40.1422043  18.5602303  67.9323120  39.2691879
  80.1823425  63.2528458  44.1968231  80.1533127  62.6215057  43.4779396
  79.9498138  62.7430229  44.9728661  13.6583433  45.5103874  38.1425743
  14.2565470  45.7283325  37.4278107  12.8649626  46.0108147  37.9519119
   4.8926482  69.5882645   1.7740648   4.9808960  69.8082581   0.8466785
   3.9916859  69.2771149   1.8617312  63.8162117  40.1948700  12.2718525
  63.8647919  39.3099022  11.9103241  64.5762787  40.2594261  12.8500977
  71.8874207  36.6238556  12.9981565  72.7970810  36.6485672  12.7012720
  71.4278717  37.2254486  12.4123821  48.7675819   7.9997158  42.7232285
  48.2521210   8.5380688  42.1226425  49.1915741   8.6298037  43.3058548
  43.0227814  60.4147034  49.9223824  42.6390839  60.1529541  49.0854225
  43.9293518  60.6375771  49.7109909  69.6269760  28.4061241  88.7838516
  69.8398285  28.4270840  87.8508530  70.0627823  29.1774330  89.1463242
  41.3346519  66.2566528  66.6428070  40.9716949  66.5398636  65.8035889
  40.6046028  66.3322678  67.2572479  69.7447968  53.4189682  71.3204727
  69.7438278  52.4799042  71.5059128  70.1776428  53.8122902  72.0782166
  76.0290070  47.0822678  64.5592194  75.7156296  47.9773827  64.4296112
  75.2424316  46.5409966  64.4917374  80.9453354  64.1061096   2.1474011
  80.2932892  64.4167633   2.7755456  80.5112381  64.1761398   1.2971731
  83.7560120  38.3477097  14.7044477  82.8472748  38.6059723  14.5503902
  83.9018707  38.5272980  15.6332664  63.2316933   1.8941001  54.4955978
  63.7830353   1.8543028  53.7141457  62.3513908   1.6927822  54.1781502
  30.5258465  51.2751770  85.6717758  30.8920460  50.7476845  86.3816223
  30.1354904  52.0305023  86.1114731  85.0097504  61.2835350  35.5084229
  85.0924835  60.8853607  34.6419106  84.0790863  61.4926987  35.5880356
  85.3897247  24.8024921  66.7332687  85.1457520  24.7427368  67.6569214
  86.2649155  24.4171238  66.6912994  38.6994438  62.7217674  75.0042953
  37.9292717  63.2891502  75.0381470  39.0364647  62.8282471  74.1147385
  40.7958183  26.8712883  76.9568100  40.8957138  27.6101646  76.3565521
  40.7702484  27.2708073  77.8262711  42.2112808  41.2805939  70.5600739
  42.3042030  41.7512665  69.7317886  41.6900787  40.5085754  70.3396988
  56.3326302  69.2249298  32.0978241  55.4995918  69.5833740  31.7915668
  56.9975357  69.7451935  31.6467609  43.7083969  63.8393478  56.9365273
  43.6460800  63.8389359  55.9813576  42.9662437  63.3082123  57.2251968
  16.1132889  34.9504471  20.9406776  16.8962860  35.2268829  21.4168377
  15.6244001  35.7600403  20.7931118  77.6442795  50.6554527  32.7415428
  77.0617599  50.8769150  32.0149994  78.5097351  50.5788956  32.3398590
  69.5861435  65.2738266  76.0080490  69.3867188  65.7370758  76.8215866
  70.3002777  65.7759018  75.6154099  48.5234871  12.5427122  78.8158264
  48.3749886  12.3994198  79.7505112  49.0876350  13.3150978  78.7785797
  72.0158920   3.5342855  27.3693295  72.9110718   3.6391957  27.0470123
  71.9266815   4.2013741  28.0499649  11.8593626  27.9577389  89.0648956
  12.6251459  28.5022678  89.2473679  11.4608898  28.3563461  88.2912292
  41.8305702  45.6820908  16.4253216  40.9245224  45.6464958  16.1186638
  42.2453232  44.9117928  16.0369263   4.5506964  16.5214329  69.1354446
   4.6132460  15.6396408  69.5025406   4.5691409  17.1000767  69.8977203
  23.6294365  66.0819244  67.9614716  24.0820007  66.3933945  68.7453079
  24.3005047  65.6087112  67.4695663  20.5536709  53.9991074  88.0525665
  19.7360439  53.5593719  87.8194427  21.2398968  53.3963699  87.7661514
   9.5596018  36.2185020   3.0837803   9.6231861  37.1016655   2.7201748
   8.7200737  35.8878212   2.7642930   0.6956695  51.3319664   2.4950905
   1.0388687  51.6595192   3.3264484  -0.2490005  51.2667351   2.6350017
  18.4251652  35.0902023  69.6768188  18.0183125  35.8816490  70.0294037
  17.7532368  34.4145813  69.7678070  81.3005219  60.1812592  75.1683884
  81.1223526  59.6803131  74.3724365  80.9658356  61.0579414  74.9795837
  63.3656807  22.4029827  20.7890358  62.5852394  22.9245949  20.6017818
  63.2398148  21.5959625  20.2899284  22.8957043  12.1204386  72.3237839
  22.6722679  11.7950211  71.4517670  23.8342972  12.3026381  72.2782059
   3.8837681  23.5384407  85.0092316   4.8205123  23.6899719  84.8836136
   3.8224220  22.6187668  85.2674332  18.5996819  25.5852718  64.2240524
  17.9525509  26.2516651  63.9930305  18.7792549  25.7372780  65.1518860
  20.9560642   2.4730113  50.6971397  21.6790047   1.8462517  50.6695557
  21.2295017   3.1258333  51.3415680  78.8872528  14.7157097  28.8137608
  77.9902725  14.3816099  28.8189812  79.4218597  13.9709120  29.0889015
  70.8345413  12.2931080  72.5773926  71.4143829  12.3973722  73.3318100
  70.5042725  11.3977175  72.6510925  20.6947517  43.7127533   8.1016245
  20.1187019  43.7020073   8.8660078  21.5735340  43.5949287   8.4623013
  28.6811333   7.8446183   9.3445253  28.3610973   8.7455120   9.2976341
  27.9328556   7.3409958   9.6649599  58.7833519  24.0286274  25.7367840
  58.4546738  24.9186516  25.8635044  58.0413208  23.5495358  25.3678799
  75.8488693  32.9205933  55.3625641  75.8266449  33.7793884  55.7847099
  76.7660904  32.7976036  55.1179848  72.3222733  11.7989140  74.8608856
  72.1719894  12.4185658  75.5748062  72.4007797  10.9489393  75.2940292
  29.5728817  52.5203590   3.2265027  29.5470753  52.9811172   4.0651150
  30.2858543  51.8888702   3.3220196  44.2653656  37.1542778  84.9958572
  43.5415077  36.6870422  84.5787811  44.9656143  36.5046425  85.0579834
  60.8205376  46.9985123  54.4762306  60.4121208  47.0488396  53.6120033
  60.2035065  46.4911385  55.0035591  83.2226944  51.6314316  65.2604446
  83.6329117  51.0493622  65.9000931  82.9395981  52.3887978  65.7727814
  69.5413132  47.1691055   9.4928169  69.8809586  47.5174904  10.3171358
  69.9396057  47.7190437   8.8181620  27.4072132  22.1368599  16.1303177
  27.8103561  22.8804111  16.5784683  26.7147732  21.8462238  16.7238560
  28.7341881  34.7031059  80.7807922  29.6115532  35.0251045  80.5739594
  28.3892860  35.3356743  81.4109802  51.3789253  17.9570732  26.9780502
  50.6883507  17.8399029  27.6304359  51.0649147  18.6703930  26.4223499
  12.2167892  47.1943207  65.0145798  12.2532387  46.4403076  65.6031113
  11.6039448  46.9324570  64.3274994  37.6562462  27.8092632  72.5853348
  38.2593994  27.0745144  72.4731750  37.1992950  27.8741875  71.7467575
   9.5192862   9.1749458  42.6586151   8.8932819   9.3674583  41.9605522
   9.2644033   9.7554903  43.3757133  64.7419968  43.7915955  36.7316208
  63.8515129  43.9761620  37.0303001  64.6298141  43.1648979  36.0168495
  61.1829987  45.5698738  23.6337433  60.8090744  45.2492027  22.8130226
  60.5428505  46.2038574  23.9570255  66.0778503  31.8700924  79.3269958
  66.7191925  31.9748001  78.6241760  65.2341461  31.8273125  78.8769150
  31.9466438  13.7126398  78.2790375  31.1156960  13.4588041  77.8773880
  31.7944374  13.6251640  79.2200012  58.9881287  37.4987831  33.6566582
  58.7932396  37.8768921  34.5141449  59.7169724  38.0225639  33.3239822
  71.7085571  57.3956566  36.6703186  71.8881302  56.5971107  36.1740227
  70.9158173  57.1952133  37.1679382  69.0169067  63.4378357  36.2433968
  69.6534576  64.1369324  36.3927040  68.5596085  63.3477287  37.0794525
  59.7463493  34.6264534  33.5147324  60.2044525  35.3301163  33.0551338
  58.9402809  34.4987259  33.0145569  39.5112572  19.1979008  48.2332497
  39.8303413  19.3332100  47.3410034  39.7658424  19.9928150  48.7017899
  42.5047417  49.8772278  68.0615005  42.3744850  49.3652992  68.8597412
  43.4137802  49.7079544  67.8140640  53.3983116   1.1603621  47.0987358
  53.0906525   0.3578963  46.6772766  54.0019112   0.8582009  47.7774086
  60.5700722  23.0402679  55.5893288  60.4907875  23.4671364  54.7362595
  60.8515205  23.7380219  56.1810684  61.7376976  22.5241108  83.1149750
  61.6407928  21.5722637  83.0862198  62.1192551  22.7517357  82.2671356
  10.1353645  31.1112537   7.5755801   9.2876863  31.3989639   7.2366185
  10.4969330  31.8862553   8.0055504  25.9714870  15.0981359   9.5472765
  25.7291031  15.3391495   8.6531878  26.9286556  15.1057711   9.5462675
  33.9417152  59.0368690  40.1842499  34.3985634  59.4650536  39.4602470
  33.4597244  58.3196182  39.7725830  72.6825562  22.0803356  70.5059052
  71.9811554  22.4877701  71.0141068  73.3925171  22.7221928  70.5200577
  77.2350388  71.7222290  88.7856979  77.2311096  70.9937439  89.4066010
  78.0582047  71.6245422  88.3070602  84.4178543  20.4695301  35.0873604
  84.9164810  19.8179169  35.5803070  83.6877518  20.6979256  35.6627045
  56.0351753  40.6006813  37.2481232  56.4924049  40.2979393  38.0326729
  55.7106628  41.4706383  37.4807243  75.6185226  63.4700851  21.4176292
  75.1896210  64.1654587  21.9163494  76.5248413  63.4786415  21.7254467
  56.0009308  13.9543839  66.7365036  56.6170387  13.6984816  66.0500946
  56.3490601  14.7790642  67.0755310  14.7987995  16.1878757  13.3442354
  15.0453911  17.0700855  13.6219625  15.4817429  15.9323206  12.7241459
  42.5420341  12.7585115  15.2977886  41.7048569  12.3323097  15.4814157
  42.3539581  13.6946678  15.3646564  72.8989410   5.3613815  11.7394533
  72.7223053   6.1599503  11.2421417  73.6509628   5.5827069  12.2887411
  64.5998611  35.3448143   6.0577750  65.2589951  35.1864166   5.3819942
  65.1068344  35.5135841   6.8519578  23.2051659  12.6273842  31.6390762
  23.3200245  13.3237391  32.2857056  24.0735569  12.5135746  31.2528419
  -0.1047718  25.8844414  55.4895287   0.0133910  24.9908504  55.1674080
   0.6870433  26.0628014  55.9969254  57.2619972   6.6139107  73.2335587
  56.7592468   5.9233289  72.8016205  58.0502548   6.1734123  73.5511169
   5.6409240   1.3440933  77.8501663   4.9586930   2.0062454  77.7390442
   5.5834026   0.8060842  77.0605698  65.3943024  58.3994408  62.4478836
  64.4755325  58.1871872  62.6123276  65.5697479  58.0448227  61.5762749
  80.2991867   7.1128492   0.7408920  81.1448441   7.4711132   1.0106099
  80.5216293   6.3554263   0.1995398  10.8733168  63.2499161   0.3534659
  11.4282341  63.0207977  -0.3920567  10.1696949  62.6011734   0.3366271
  81.7225876  24.7921638  15.1966534  81.7822723  25.6749172  15.5619154
  81.5731659  24.9296093  14.2612324  11.8436966  48.2943726  68.4749756
  11.3479624  47.5642128  68.1043701  12.0187578  48.8681107  67.7290497
  42.7581787  17.7084904   0.7338866  42.2087326  16.9264584   0.6812978
  43.5036430  17.5161457   0.1650975  53.6096382  51.2374382  23.2080727
  53.2549362  50.8898621  22.3897762  53.4559174  50.5437775  23.8495083
   3.6196222  61.1563416  36.8502998   3.1298554  61.0661278  36.0328522
   4.2467961  60.4333992  36.8347778  18.2860298  17.9621868  67.3224411
  18.5474262  18.8707142  67.1724930  17.7117844  18.0012913  68.0872574
  15.8350887  63.5566902  51.6880875  16.0977478  64.2634888  52.2777252
  15.7295103  63.9816399  50.8369102  16.2316113  36.5107422  73.2532043
  15.8792753  37.3921585  73.3764877  16.0953808  36.0782700  74.0961990
   7.8199534  49.1988487  11.7035160   7.2037978  48.8080559  11.0839491
   7.4654393  48.9787140  12.5649633  55.5347824  11.5377407  16.4378300
  55.3682938  12.4769812  16.3582039  55.6011429  11.3853283  17.3804855
  54.6322136  46.7915306  22.4740391  54.0319481  46.8964081  21.7358532
  54.8900757  45.8702049  22.4440269  84.0584335   8.7274199  29.1046944
  84.8887787   8.5253668  28.6734867  84.2850113   9.3807955  29.7665062
  83.5949402  51.8384323  30.4872055  83.6843262  51.1421394  31.1379089
  84.4835892  51.9747314  30.1586533  73.2821884  45.8107491  59.6704521
  73.1222916  45.1212730  60.3148804  73.8335037  45.3955193  59.0072289
  18.4892006  16.2417336   8.3378544  17.8286686  16.3296223   7.6506839
  19.2159367  15.7847481   7.9144721  13.2829075  58.8052902  52.5023727
  12.6841860  59.4951057  52.7885895  12.7224197  58.0402565  52.3727303
  39.0995712  54.3256721  82.8710175  39.2734795  53.4782982  82.4612045
  38.1511192  54.3394966  82.9993744  60.5590439  49.0290146  73.3864822
  59.6494370  49.1978722  73.1408615  60.6091537  48.0777473  73.4803314
  50.8437729   1.8148274   3.8363361  50.8949471   1.0871336   3.2165985
  51.3551559   2.5134711   3.4281514  22.4291821   0.6485040  14.0358753
  23.1089077   0.2742787  14.5963764  21.6164036   0.5153675  14.5236225
  81.7268066  33.1573906  80.8607178  81.5310745  34.0856781  80.9880142
  81.7463379  33.0448570  79.9103622  40.0067177   7.7670884   0.9085802
  40.3809395   8.5190401   0.4494938  39.5073929   8.1508112   1.6294554
  39.3499184  20.9072895  76.4665298  39.7776871  20.6988697  75.6359863
  38.6114540  21.4651566  76.2222366  55.5310593  49.3297043  30.5223427
  56.2166405  48.9575729  31.0770721  55.8579788  49.2174683  29.6297302
  21.3743591  23.0914211  64.9028549  20.9931221  23.2072124  65.7731934
  20.6542969  22.7562618  64.3686218   0.8246166  51.7120285  60.0865593
   0.4670147  52.2067909  60.8238297   0.1693283  51.0367699  59.9109116
  46.2585640  63.1753426  71.1938095  46.8425064  62.8983307  70.4877625
  45.4625206  63.4634476  70.7471085  25.9582901  36.6462250  17.0927410
  25.6713467  37.5430603  16.9207573  25.8194370  36.1872940  16.2642879
  43.3010139  51.7840843  63.1713905  42.4318504  51.4105835  63.3172722
  43.3054008  52.5896301  63.6884117  49.3057404  69.8198471  74.6720581
  49.8017731  69.8504944  75.4901352  49.9345512  69.5057755  74.0223007
  38.9156723  23.7703934  12.4645309  39.0885658  23.2569733  11.6753922
  38.4321594  23.1745739  13.0367613   2.7799938  66.6075821  51.0995255
   2.2121000  66.8870239  50.3814430   3.3062174  65.8999557  50.7272568
   9.4458218  65.0082092   5.7862997  10.2651157  65.3652115   5.4434614
   8.7708502  65.6054993   5.4639745  50.9900169  43.4098282   0.1885059
  51.4802742  44.0979691   0.6383327  51.5710602  43.1233368  -0.5161535
  46.4216576  49.2358437  27.7651939  46.6356201  48.4247017  28.2261753
  46.1208763  48.9490967  26.9029083  62.7884674  34.7563324  86.9296875
  63.1749573  35.5723038  86.6118164  61.8560791  34.8390427  86.7295837
  19.7440968   7.2580771  31.0795498  19.6090050   8.2052059  31.0490685
  20.6935921   7.1534166  31.1406822  20.9259033  15.5693970  20.7437401
  21.0793495  16.5094147  20.6486015  19.9839668  15.4947557  20.8967705
   6.1933498  54.8898735   3.7064586   5.4328165  54.3304520   3.5487640
   5.8358188  55.7772865   3.7364964  54.0003967  26.0074635   2.7516780
  53.1385574  25.8304710   2.3746655  54.2851257  26.8175087   2.3286102
  16.9149017   0.5498785  76.6030579  16.1905403   0.2890314  76.0342941
  17.5810356  -0.1238585  76.4667664  21.7260742  69.0407028  13.1145906
  21.0359116  69.6765518  13.3032694  21.7004662  68.9345322  12.1636410
   3.2159157  13.0097857  54.0978584   3.0703249  12.5019388  54.8960609
   2.7827640  13.8469896  54.2642937  18.1430531  17.1937733  82.7756271
  17.3892860  17.5030518  83.2780380  17.9330311  17.4146347  81.8682480
  76.3857269  44.3231697  67.3347168  76.2142944  43.8448792  68.1459427
  75.6940155  44.9836349  67.2953339  32.3427544  64.6615295  13.6187868
  31.5384007  65.1112366  13.8776550  33.0318985  65.0941391  14.1229219
  14.3356657  68.9027557  76.0985184  13.7706232  69.2945404  76.7644501
  13.8144369  68.1883011  75.7323151  36.1659622  63.8371849  19.1642265
  36.1423531  63.9027100  20.1188889  35.3104553  63.4789886  18.9275093
  65.8466492  67.9344254  64.5012054  66.0508957  67.4487457  63.7020645
  64.9451828  68.2314224  64.3771896  78.8598709  20.6673965  69.7805557
  79.4814529  20.5241585  70.4942398  78.6131287  19.7869244  69.4975052
  71.5255966  20.3400612  13.8815765  72.2751236  20.8851318  13.6421118
  70.9227905  20.4237957  13.1427650   4.6025624  68.2918777  59.4478416
   3.7189138  67.9242554  59.4638329   4.5390282  69.0909882  59.9709206
  50.9585114  40.6054382  12.3877525  51.3717728  41.1278152  11.7003164
  50.6421089  39.8228836  11.9363890  82.6126556  10.3056765   5.5825753
  83.3199844  10.8477974   5.9318938  82.9979782   9.8698320   4.8224444
  25.7943020  39.3847122   0.0709703  26.6700439  39.6672592  -0.1926104
  25.9276028  38.5178719   0.4544358  65.2798080  49.9396973  40.6083412
  64.3625412  50.2117500  40.6373329  65.4654083  49.6283569  41.4942589
  52.3427887  21.6510715  58.5685539  52.0012093  22.5066929  58.3088112
  53.2061234  21.8394833  58.9365044   5.6758523  26.7283688  20.7200966
   6.5787740  26.6425152  21.0260258   5.1434379  26.4372425  21.4603748
  84.5393753  28.4309101  49.5217934  85.0059891  28.9640408  50.1654320
  85.2046890  27.8358192  49.1761818  77.7765732  59.5413475  21.5124626
  77.2880630  60.2238960  21.0523338  77.1320953  58.8518906  21.6722221
  24.0940056  59.1850014  17.0530701  23.5017681  58.4377708  16.9686184
  24.9686108  58.8105087  16.9479561  71.8359985  61.4296494  79.4367905
  71.9245377  61.3337326  78.4885330  71.5027924  62.3188248  79.5575104
   0.4486484  19.2991982  86.6525955   0.3023686  20.1256180  86.1923065
   0.7442338  19.5599365  87.5248795  41.7332764  39.7670822   4.8119316
  41.6147156  38.8560028   4.5433998  41.8824158  39.7209587   5.7563167
  47.1498947  59.2601738  38.2503166  46.5340500  59.8053246  38.7399864
  47.5773849  58.7232399  38.9175377  57.1319275  51.7752686  14.6665421
  56.8773499  52.3657722  13.9575090  57.0904350  50.9017677  14.2773046
  15.1147671  23.1092873  81.3103180  14.9411888  23.8913574  81.8342209
  15.1311855  22.3939018  81.9460754  78.4912796  24.1645107  13.9495821
  78.5627670  23.5125732  14.6467905  78.7070618  24.9945164  14.3747425
  65.1640396  58.4087410   0.9804987  65.1361084  58.0001717   1.8456705
  65.5949707  57.7605934   0.4233357  71.9623718  27.8265152  68.6551895
  71.6373444  28.6241722  68.2376556  72.9152451  27.8978271  68.5987549
  10.6873283  42.1310081  16.4350853  10.1765003  42.2620010  15.6362572
  10.0333853  42.0834198  17.1324558  65.3001785  35.9424629  71.5993423
  64.8799438  36.0607338  72.4511948  64.6016769  35.6186600  71.0305862
  65.1110229   4.7958698  65.0704727  65.7372055   4.7521992  64.3478317
  64.8119812   5.7051525  65.0736465  34.3528976  63.1597481  34.9929581
  34.3574181  63.6282196  34.1582451  33.7415009  63.6521454  35.5406570
  21.6473732   6.2411661  82.3941193  21.2444134   5.6797256  83.0564194
  22.1480560   5.6398201  81.8428192  67.3966370  47.5910492   5.4654884
  66.6570587  47.5779495   4.8579602  67.2091217  46.8870201   6.0863042
  66.0232315  48.9950371  64.3008881  66.3529816  48.8703995  63.4109688
  65.1504364  49.3698349  64.1826172  62.1133385  48.9054337  10.1347837
  62.2526245  48.2430534  10.8116016  62.7747040  49.5737839  10.3140402
  75.5289459  31.3730221  51.7321243  75.4453735  31.0262947  52.6203995
  75.0841675  32.2200546  51.7628098  44.0077782  12.9905291  18.2568703
  43.2323914  12.4323654  18.3156700  43.8899727  13.6381330  18.9518261
   5.6749835  67.8369980  65.4166031   5.4570041  66.9970856  65.8206558
   4.9058781  68.3848953  65.5731964  79.7440567  66.6557159  36.5772858
  78.9367218  67.1632767  36.6599083  80.4356842  67.2603912  36.8460846
  75.2497940  21.7797718  81.0029449  75.5618057  20.8958225  80.8092499
  75.6131897  21.9782906  81.8659439  82.7433090  40.9163094  55.4490471
  83.6601791  40.9168282  55.1741142  82.7167740  40.3149681  56.1933060
  14.4709511  44.4596786  15.4686489  14.2900820  43.9649887  16.2678986
  14.9713621  43.8549881  14.9207745  32.3871231  65.3867874  26.4364548
  32.7041321  64.6428604  25.9243011  33.0948105  66.0295258  26.3885231
  81.8282471  64.7366562  34.0375481  82.6203461  65.2320251  34.2459068
  81.6125641  64.2773438  34.8491821  75.3812637  19.4320068  67.8623428
  75.9311295  20.1946888  68.0417862  74.6260834  19.7863140  67.3928833
  55.6706581   8.6507940  67.2129135  55.4878654   9.5846233  67.1090775
  54.9040642   8.3061590  67.6709442  77.5180893  47.5192375  66.9930954
  76.9080963  47.0522537  66.4220734  78.3146439  47.6093063  66.4700089
  56.3615303   9.5262403  53.0285263  56.5504112   8.5918045  52.9425926
  55.4588356   9.6171808  52.7233963  31.6812935  45.4346008  67.5882339
  30.9356480  45.5540047  67.0000229  32.2880745  44.8812332  67.0964737
  14.3758507  61.4018021  37.0582352  14.0085258  61.1888542  37.9161148
  13.8481646  62.1375580  36.7476845  12.5005579  57.9795074   1.2660007
  12.8047829  57.4591751   2.0095963  12.4427814  57.3540840   0.5436851
  43.2139168   7.4419241  78.4252930  43.1540184   8.3768234  78.6217804
  42.3048172   7.1431317  78.4030457  10.2030754  68.3120499  48.9897804
  10.0001707  67.5355988  49.5114899  10.5078611  67.9644852  48.1516037
  50.7454529  47.5807343  28.2329502  50.8595924  48.4878654  28.5163612
  49.8596878  47.3515663  28.5142670  40.5266991   2.5522664  25.5649700
  39.8548164   2.4106617  26.2318668  41.1349182   1.8219779  25.6789017
  27.5114059   5.1158891  88.7882462  27.2403641   4.2180967  88.9799118
  26.7074146   5.5545888  88.5100861  59.2565994  42.7584457  46.7148018
  59.4225082  43.6257591  46.3453789  60.0827370  42.5136490  47.1316910
   2.1975975  10.9964886  56.1941566   2.5336795  10.1887550  56.5825500
   1.4126289  11.1985312  56.7033081   7.6965985  41.2894287  59.5405579
   7.6455126  40.5143166  58.9812584   8.6314011  41.3969154  59.7161217
  75.3411713  31.1756134  71.2076416  75.1314087  30.9288254  70.3069077
  75.7315674  30.3882599  71.5869751  69.6392059  60.9165802  82.4049377
  70.4869156  60.5244141  82.1956024  69.2206955  61.0504456  81.5545502
  48.1482964  18.5623035   4.0764303  48.0641937  19.3478317   4.6168971
  48.5336723  18.8748894   3.2578905  51.7983818  13.2437849  88.2057343
  52.3111916  13.2765875  89.0133133  50.8875999  13.2437658  88.5001907
  57.9116631  70.2152939  56.9328041  58.7904816  70.5087662  57.1731796
  57.6539230  70.7937851  56.2150650  25.8317261  26.7072773  16.4079838
  26.6495113  27.1661644  16.2159367  25.8134823  25.9798985  15.7860365
  11.6756773  33.0343742   8.7129087  11.4493275  33.9580650   8.8214951
  12.5753698  33.0450363   8.3863049  36.9632339   5.3433099  58.9424477
  36.1973763   5.1027956  58.4210587  37.3175659   4.5079083  59.2470551
  17.2449188   2.5498726  48.6788597  16.4445019   2.3826280  49.1764488
  16.9606209   2.5621963  47.7649345   8.1039839   0.5124320   9.1720724
   7.2157903   0.1756291   9.0541458   8.6715965  -0.2061361   8.8933115
  26.6576557  66.9628754  84.1539078  26.5483551  67.0383301  83.2059708
  26.8645287  67.8517227  84.4426575  29.2915363  33.7275963  28.8574142
  28.4352455  33.4878769  29.2117195  29.0917721  34.2725983  28.0962963
  77.6773605  55.0099716  70.3369904  77.0984879  54.3691826  69.9240341
  77.4822693  55.8328934  69.8886948  31.2196617  70.3037949  70.4100876
  30.3328514  70.1844482  70.7500229  31.1095257  70.3364639  69.4598083
  11.6951494  68.1720123  88.7165298  12.4531822  67.7250366  88.3399277
  11.6880093  67.8996811  89.6341476  33.6237144  12.8987398  32.4517517
  33.9867287  13.0936432  31.5877666  33.1686745  12.0643778  32.3376923
  84.9114456  39.4847107  31.8656673  84.1276932  40.0167236  31.7280941
  85.4996109  39.7361145  31.1535683  61.3419151  50.2682114  43.2490845
  61.8602028  49.6119499  42.7833252  60.7267532  50.5969696  42.5935516
   8.2538414  52.2028999  46.7335091   8.9170885  52.1557045  46.0449524
   8.2174835  53.1302490  46.9678841  15.8004150  36.3822556  58.0200081
  14.8458586  36.3127213  58.0347900  16.0821629  35.9869156  58.8449707
  65.9053802  57.0303345  60.0884476  66.2327652  56.8236160  59.2130508
  65.2668762  56.3418121  60.2741394  54.8147545   1.7818025  43.8870850
  54.3520126   2.4795005  43.4230614  54.6287727   0.9920656  43.3791885
  48.5984116  50.1003036  60.8857956  48.5485916  49.6107178  61.7068062
  48.4021454  51.0038414  61.1334419  28.1513042   3.5770648  36.1373901
  28.7358589   3.8184824  35.4188881  27.6475945   2.8372173  35.7980766
  57.2790794  21.8931007  27.9966450  57.5740547  22.1955967  27.1377392
  58.0570755  21.9512653  28.5512371  58.9831924  22.8092480  83.3040771
  59.8525887  23.1773186  83.4619064  58.8877602  22.1268768  83.9685211
  10.6245213   2.5649920  74.5035400  11.3424263   1.9406428  74.6085815
  10.1617374   2.2682385  73.7199631  61.5028839  58.5926056  13.6804352
  62.4520645  58.5757751  13.8029041  61.3668900  59.1893044  12.9444427
  26.8499413  67.6046143   5.3060422  26.2222691  67.0856857   5.8090053
  27.6951599  67.1886978   5.4758906  62.6734695  12.5286570  43.3326492
  63.0575676  12.8927107  44.1302490  63.0906258  13.0157003  42.6220169
  20.5035286  44.8398705  36.2859879  20.6464520  45.4646683  35.5750504
  20.5907211  43.9814453  35.8715820  77.9270096  62.8132858  22.8205891
  77.7033615  62.6759529  23.7411079  78.8830795  62.8587570  22.8106041
  61.2796516  36.6305389  61.9573708  60.4047394  36.4530640  61.6120224
  61.7295914  35.7867432  61.9149666  82.6514969  37.7507286  51.6971893
  83.2039185  37.8223991  52.4756012  81.9514160  38.3875008  51.8408623
  17.9152660  69.8470993  33.4704933  18.3822136  69.5293198  32.6977005
  17.2414589  70.4298782  33.1203804  64.7054138  62.6640625  75.6144104
  64.8063812  62.7525978  74.6666794  63.8854790  62.1824646  75.7239761
   1.3845589  43.1329269  20.5067749   1.3411604  44.0874634  20.5634384
   0.7911281  42.8250999  21.1918392   1.7435571   6.7702703  44.2680397
   1.6949942   5.8341722  44.0741501   1.3338034   7.1927896  43.5131836
  77.7132950  44.6874962  63.9097557  76.8636093  44.7264519  63.4707222
  77.9185562  45.5994835  64.1156158  28.2574997  70.1502762  43.1292229
  28.9589729  69.8906021  43.7264977  27.8529816  69.3250351  42.8616867
  46.0741768  23.5429554   7.3183508  46.3083076  24.4612160   7.1833954
  45.8998489  23.4757080   8.2571363  24.1900120  12.7814932  80.5792313
  24.5468540  12.2188663  81.2665100  24.9077530  12.8799963  79.9536285
  57.2970238  39.3792915  28.4488602  56.4743729  39.7074966  28.0858707
  57.2596474  38.4330215  28.3095570   5.3786325  43.1196289  31.3364010
   4.4224806  43.0755043  31.3440571   5.6093879  43.1539497  30.4080658
  84.3398514  36.1949272  62.7726212  83.5503922  36.1933556  63.3139076
  84.2082825  35.4754906  62.1550980  58.9752884  24.0681076  30.7631130
  59.1594009  24.7791977  30.1493664  59.0665855  23.2712135  30.2407589
  29.9585781  45.0152588  12.0114193  30.0427151  45.9653969  12.0913525
  29.1647587  44.8029594  12.5023489  81.1996918  61.9928780   8.3373938
  80.5160065  61.6604805   8.9190454  81.5569839  62.7525101   8.7973185
  13.6656170   3.3312695  71.5874481  14.4483080   3.6153958  71.1153259
  14.0030851   2.8488977  72.3422089  61.9889755  26.5149059  44.7656364
  62.6723480  26.6314392  44.1055984  62.1422729  25.6377583  45.1168365
  52.2303123   0.6006871  22.7613449  51.4051056   0.4156918  23.2097225
  52.3258514   1.5514135  22.8181229   1.3130460  68.2078705  75.3368149
   0.6579630  68.3826294  76.0125046   0.8741270  68.4278030  74.5150986
   7.1610212  65.1274567  76.3705902   6.4965281  64.4386902  76.3873825
   7.8310213  64.8289185  76.9855804  39.0950279  46.0419083   7.3477883
  38.5422592  45.5518646   7.9565063  38.4892120  46.3640747   6.6803842
  21.7864532  22.2092400  71.2198334  21.1183796  21.9206924  70.5980225
  22.4313202  22.6690712  70.6823044  49.1863594  52.7234001  77.7860184
  49.8724403  52.2672806  77.2986908  48.6320038  52.0235138  78.1310883
  43.3416786  62.5477333   8.7108765  43.5510292  61.6292076   8.5414171
  42.4861717  62.6778259   8.3017197  79.3905716  40.3813095  87.4432526
  79.1909332  40.3916702  86.5071564  78.5755920  40.0996819  87.8588562
  14.8357182  12.6093950  40.3689651  14.3901348  12.6616879  41.2145157
  15.3049898  11.7755795  40.3966904  86.1174469  10.9621553  70.7563858
  85.9411850  11.2091198  71.6642227  86.1255951  11.7921467  70.2796478
  54.7822647  67.4730911  76.9076691  55.7342148  67.4259796  76.8193130
  54.5094299  68.0937424  76.2319641  64.9485397  12.4795227  51.4221687
  65.2087631  12.5059357  52.3429375  64.3528137  11.7326393  51.3629608
  83.7880020  69.9365692  72.4110489  83.8818283  70.7495575  71.9145813
  83.1931229  70.1603088  73.1267929  72.8661728  49.1628914  43.6785469
  72.0289536  49.1393166  44.1419449  73.4910812  48.7783852  44.2932663
  47.2903786  62.7107735  64.9835052  47.3451004  63.0706253  65.8687973
  46.6368637  62.0143623  65.0480042   3.6533868  34.3883514  75.6884079
   3.1716931  33.7916222  76.2612228   2.9864407  34.9853020  75.3491898
  74.1213684   7.1444974  75.4499207  74.2540054   7.9562864  74.9603958
  74.3358383   6.4508762  74.8261261  83.8800125  38.5557976  77.4060516
  84.2946320  39.3457832  77.0592804  83.3207779  38.2463226  76.6935120
  84.9782944  43.2390404  14.2202768  85.2523193  42.9561806  13.3478479
  84.9147720  44.1918411  14.1541910  40.4189186   3.5598042  61.9180603
  40.1903419   4.0602279  61.1347580  40.5108604   2.6587927  61.6082916
  52.2796135  45.4297638   8.7274170  51.9035797  45.9667015   8.0299025
  52.6617851  44.6793404   8.2723999  82.4766006  28.6171608  56.7485580
  81.7418671  28.4547882  56.1569214  83.1620026  28.0200081  56.4487724
  64.1512527  10.1872072  61.8548126  64.6651154   9.9407082  61.0857811
  63.2789497  10.3767862  61.5092964  64.3427811  41.0543327  85.9154816
  65.2164383  41.0755196  85.5249481  64.1449966  41.9705048  86.1097488
  60.8494644  16.7753639   5.1915913  60.6739426  17.7102127   5.2987432
  60.3917198  16.5365677   4.3855653  75.5543137  49.7831764  79.1984558
  75.6468582  49.6314545  80.1390152  74.6134949  49.7142792  79.0361633
  82.8115845  23.9899368   2.9396298  82.1708603  23.2923851   3.0779095
  82.4113770  24.7645245   3.3346965  12.1917543  67.4321594  39.2683372
  12.4808941  66.9243393  38.5102158  12.5175972  66.9421234  40.0232658
  57.2625999  22.8064175  22.8870640  57.0306435  22.3772373  22.0635166
  56.9775124  23.7130623  22.7732582   4.7391572  31.4439583  84.5326996
   5.0023031  32.3041115  84.2054062   4.5541534  30.9339542  83.7440948
  25.8163338  54.3549805  59.0847397  26.3243923  54.7113686  59.8135071
  25.2544460  53.6920624  59.4860573  18.6495514  42.8095474  88.1923599
  18.4758530  42.0531883  88.7527008  17.9315853  43.4148598  88.3777161
  52.2051544  26.5423832  20.6135368  52.0826035  27.1833572  21.3137989
  52.8486290  26.9449062  20.0303154  77.3165207  66.1870270  43.7062111
  77.7997818  66.0301132  44.5174255  76.4208374  65.9136429  43.9042969
  41.0749817  63.7310295  81.5623245  40.6537552  63.8078575  80.7062302
  41.7860565  63.1053314  81.4240952  49.3693619   1.9255815  83.1930161
  50.0061951   1.7656516  82.4965286  49.8863029   1.9098132  83.9984665
  61.6124916  39.3856697  17.0485172  61.0258942  39.9587364  16.5548325
  62.0181313  38.8285446  16.3842125  32.9667549   3.0258644  30.3108082
  33.2951698   3.7919290  29.8401489  33.6494598   2.8277416  30.9518166
  13.4735403  52.6424561  39.9069252  14.0400381  51.8783073  40.0136528
  12.7116957  52.4542351  40.4550133  62.3545799  21.4040279  57.2634811
  61.6441994  21.3498154  57.9027367  61.9767456  21.8825016  56.5255508
  46.0104866  50.1692009  76.8328171  46.1134605  50.4157982  75.9136734
  45.4721718  49.3780556  76.8096771  15.3239422  27.2301178  23.8545990
  16.0093822  27.4328976  24.4912186  15.3205976  27.9796925  23.2593193
  36.7675629   0.5918633  76.7580490  36.7946434   1.3039047  77.3971863
  37.5523720   0.0754483  76.9414139  13.2816219  15.5257454  86.9976654
  13.5223331  16.4298325  86.7953873  13.3581133  15.0648737  86.1622162
  33.4579659  59.7481575  82.4797668  32.5108376  59.7578316  82.3416138
  33.7911835  60.4355431  81.9029617  46.7474098  52.1533928   4.6056399
  46.6478119  52.9141388   5.1779861  47.1440430  52.5039635   3.8081343
  52.4877777  24.7525749  84.3538818  52.7711411  24.2714558  85.1313553
  53.2108307  25.3509331  84.1657486  67.2868805  19.4629593  13.6191683
  66.6989212  18.7233887  13.7726860  66.7412949  20.1155834  13.1802521
  85.7027283  41.0788422  72.3682556  85.0896759  41.1782875  71.6399002
  85.4114761  40.2868195  72.8200302   4.2362132  28.2339420  49.3963013
   4.7832537  28.6742611  50.0467606   4.3367691  28.7601509  48.6030655
  36.8445129  31.6158600   8.7307291  37.5282822  31.3746452   8.1058245
  36.2863312  32.2276115   8.2507019  42.8852997  59.0551529  37.2084732
  42.2767639  58.7638130  37.8874702  43.6169205  58.4403152  37.2627144
  49.0426331  14.8585510   8.9054956  49.5602493  14.4870863   8.1911278
  48.6152153  14.1033192   9.3094397  37.3196449   3.9702449  12.5974293
  38.0281906   4.6006918  12.4680853  37.2995491   3.4627275  11.7861004
  31.4206638  17.3888340  29.3570309  32.0416183  17.7686176  29.9786510
  30.9350681  18.1393528  29.0147610  68.0302124   3.0741849  56.1758041
  68.2733612   2.5475261  56.9372101  67.0910263   3.2267268  56.2801323
  59.5061531  55.7545319   1.2334080  60.2888641  55.2036667   1.2212857
  59.2386017  55.7703323   2.1523187   8.2771769  34.8166695  24.0680695
   9.2006779  34.9210587  24.2971554   7.8033719  35.0828629  24.8560295
  42.8177605  10.6356010  79.4099579  43.5847397  10.6767168  79.9811707
  42.1337395  11.0985451  79.8937302  14.2469149  33.3873634   2.6605413
  13.5355463  34.0249863   2.6003344  14.2881861  33.1615982   3.5898199
  45.1116104  56.7471771   6.1171556  44.9337692  57.3483963   5.3938713
  44.2815132  56.2925720   6.2603498  21.5552330  46.8197899  66.5142899
  20.7332172  46.3391228  66.6116638  22.2351799  46.1699753  66.6921768
  15.9671535  60.2198029   4.2847557  15.8955669  59.3535194   3.8839347
  16.8642445  60.4966545   4.0981674  11.9532967  13.1168690  73.9894104
  11.2578564  13.6289454  74.4021683  12.5259552  13.7704411  73.5879898
  72.3202286  28.0996494  57.5608521  72.6823959  27.2136211  57.5652962
  73.0447311  28.6559772  57.8469162   0.1752799  64.1743393  47.9967194
   0.6087585  63.6915398  48.7004433  -0.5162948  63.5861626  47.6934013
  80.2337952  62.7098389  40.8446388  79.6920853  63.4556198  41.1026917
  81.1223831  63.0630074  40.8008842  28.9603672  56.8121376  49.2155418
  29.8336563  56.6406746  49.5679550  29.1197681  57.1487389  48.3337669
  44.1567841  56.4341278  39.0641022  44.6043282  56.7137337  38.2655067
  44.4401779  57.0611267  39.7295303  48.2994156  38.1268425  17.7331295
  47.4841003  38.5986023  17.5630398  48.8451385  38.7547226  18.2066059
  81.7074203   5.0759158   4.8515983  80.9973373   4.7043905   4.3281646
  82.4657440   4.5277190   4.6499619  45.3310623  14.1416626  45.9229584
  44.8056641  13.3424730  45.9614754  44.7948723  14.8021717  46.3616600
  44.5125160  20.4391556  52.3328323  44.6768608  19.5019531  52.2285538
  44.5998497  20.7973785  51.4494972  25.1063595  24.0298443  72.0254822
  24.6848183  23.7721500  71.2056427  25.9386196  23.5570049  72.0258179
   9.9421215   7.8424168  62.6096191  10.6066856   7.9539599  63.2894325
  10.1599216   7.0068450  62.1965637   5.6909347  36.9557533  76.3572617
   6.4405227  36.7170448  75.8119431   4.9277592  36.6822777  75.8483353
  17.8203735  46.2023048  74.7255020  17.8788967  45.2677956  74.9242401
  17.5452423  46.2355576  73.8093033  26.5398598  62.8180466  81.0924759
  26.0140591  62.0918465  80.7572098  26.6375427  63.4080582  80.3450928
   8.8704119  44.6644974  42.2181053   8.0664120  44.3110542  41.8374596
   9.5348577  44.0007286  42.0332909   0.3966129  28.2535801  77.5683975
  -0.1915869  27.5205498  77.7498322   0.1515410  28.9214897  78.2087631
  82.3915939  28.4907284  69.5827713  83.0206070  28.7660236  68.9158554
  82.6852264  28.9259644  70.3831406  20.5855865  57.3657799  44.0284042
  19.6763115  57.1812172  44.2637482  20.5272541  58.0646820  43.3769722
  83.8970566  12.6810455  86.0458145  84.8226242  12.5087852  86.2186890
  83.5129318  11.8144598  85.9127426  34.0533371  62.1669540  78.6420212
  34.6607094  61.7772598  79.2708817  34.1068764  61.5987015  77.8736115
  78.1640320  34.7956390   4.5415869  77.2691193  34.4768448   4.4243999
  78.5918961  34.6218987   3.7031500  65.1352310  48.7267990   1.8975253
  64.8266525  48.2395020   2.6614323  65.4045258  49.5759087   2.2478395
  19.7231731  54.3196411  38.7069283  20.2979584  54.8352318  39.2726288
  19.8911915  53.4115334  38.9586105  47.8303261  63.3894615  73.4228210
  47.3622627  64.0584335  73.9224472  47.2705574  63.2212296  72.6648026
   2.8126554  56.2197418  55.2042236   3.0841048  55.3305550  55.4320259
   3.0438423  56.7445030  55.9706535  32.2654419  29.3891277  83.6770782
  31.9121666  29.9576588  84.3613281  32.5817299  29.9921074  83.0043182
   6.3952885  20.7491760  85.9823532   6.4802814  20.6346283  85.0358429
   7.1706138  20.3215065  86.3459473  34.8530273  41.4012718  15.3615513
  34.9929886  41.6390419  14.4449778  34.3429527  40.5921707  15.3238993
  78.7927322   2.5946906  23.3381424  79.4852142   1.9364703  23.3967991
  78.2437668   2.3006690  22.6112194  52.8053780  49.9465370  66.8763428
  53.3865547  49.6030121  67.5549164  53.1415291  49.5731964  66.0615768
  71.5032501  22.6456413  52.0627441  71.5734024  23.5903111  52.2002640
  72.4007950  22.3239670  52.1474838  29.8804569   6.0841827  12.1856918
  29.9284286   6.8083105  11.5615368  29.2197742   6.3592529  12.8213549
  18.3650932  63.1859550  65.9275742  18.1833000  62.4625473  65.3276901
  19.1501465  62.9122391  66.4019165  27.9671783  46.1022720   0.4950472
  27.5858574  46.2536201   1.3598713  27.4482174  45.3875198   0.1262143
  42.8042450   3.9638224  80.8280869  42.2636375   3.1886690  80.9801178
  43.2034721   4.1479244  81.6783524   3.6171873  13.1866922  40.8409348
   2.7212734  12.9715338  41.1003151   4.1667228  12.6346912  41.3972969
  69.0978699  31.5620594  83.7001038  68.4346695  31.7920837  83.0493469
  68.7218399  30.8197956  84.1732635   3.0328565   0.7834330  20.0239754
   2.3404338   0.7685652  19.3632469   3.6857119   0.1625132  19.7007580
  77.9349823  34.6415939  80.6756592  77.2478180  34.3527565  80.0751419
  77.5536118  35.3907013  81.1335144  85.7622757   1.1341144  43.6691933
  86.5753021   0.6293738  43.6906586  85.9368134   1.8931346  44.2256622
  10.2155313  55.3344994  60.5376282  10.4911938  55.7496529  59.7203827
  10.6944733  54.5060081  60.5588455  29.0325794  54.6726227  69.9941254
  29.9146309  55.0373535  70.0661697  28.4622631  55.4378281  69.9204483
  34.5659332   3.1158023  21.9067097  33.8735657   3.4623144  22.4695492
  34.4097290   3.5247326  21.0554695  20.2215576  45.9050484  12.3432322
  20.5067120  45.0626907  11.9891796  19.3092270  45.7624207  12.5953093
  29.7103539  13.3445826  20.0216522  29.7679424  12.4142218  19.8040657
  30.1851749  13.4269753  20.8486881  33.1587601   9.2714844  87.1362381
  33.0438156   8.4597158  86.6422195  33.8939438   9.7102804  86.7082214
  39.2455063  49.5047989  77.0068512  39.7183571  48.7915077  77.4356384
  39.0861511  50.1401520  77.7048264  24.8704090  57.7962837  46.7843552
  25.1785316  56.9210472  47.0194206  24.1174622  57.9466629  47.3559189
  46.7048759  64.4228287  53.2540092  47.3091087  64.6075363  52.5349731
  46.6788445  65.2351532  53.7596588  67.7708054  31.7766533  46.8467560
  67.0643234  31.1829929  47.1010704  68.0437469  32.1890945  47.6662865
  66.9145203   4.2485485  82.4608841  66.8597488   5.1951146  82.3295670
  67.8529510   4.0600142  82.4563370  51.5646362  54.5045815  49.2441368
  52.2824593  54.7129593  48.6461906  51.7924042  53.6464844  49.6019440
  66.6037216  57.3918343  22.8924503  66.8681793  56.6742554  22.3168011
  66.9937134  57.1755981  23.7394333  51.7602425  69.3141251  82.3361130
  51.2931671  70.0382309  82.7529449  51.2164040  69.0795822  81.5841446
  19.4323711  12.9014597  40.6051369  19.8163681  13.4588795  41.2819405
  18.6472130  13.3716412  40.3246269  83.8092575  39.4297981  24.2213173
  83.3864365  39.7353554  25.0238667  83.0984192  39.0476379  23.7066422
   4.0934072   7.1269202  54.1056175   3.5712290   6.3306775  54.0078468
   3.5295594   7.8254204  53.7733421  81.8532791   8.3948851  27.6089897
  82.5686340   8.6804295  28.1772842  82.0657730   8.7649107  26.7521610
  78.7651672  49.6960220  46.8133850  78.4973831  49.7078972  45.8944817
  79.6674042  49.3768158  46.7958260  47.8145294  36.2141228  86.1202698
  48.6286163  35.7685471  85.8858414  48.0847549  37.1047745  86.3437729
   1.9453233  38.0547523  35.5843582   2.5992334  38.4888191  36.1322823
   1.4930413  38.7708588  35.1384125  37.0664024  53.8593636  16.1871986
  36.6447067  53.2743416  15.5577965  36.3718452  54.4591942  16.4592667
  38.6808205  10.3331738  87.1246872  38.8654861   9.4893589  86.7122498
  38.3695526  10.1082020  88.0014572  28.8809986  16.3687687  79.9678955
  28.7025166  15.7487612  80.6749802  29.8252392  16.3037643  79.8250046
  51.7574768  16.1821690  77.4857025  51.4347763  17.0303783  77.1813431
  52.5195885  16.0040779  76.9346085  39.7272911  52.0914459   8.6113214
  39.8819313  52.5170097   7.7679868  39.8564568  51.1592598   8.4364548
  10.5619411  47.3472748   5.1135521   9.7692318  47.5480576   5.6110768
  11.2785721  47.6411591   5.6759624  42.4415245  43.4026146  56.7502861
  42.0845222  43.2350922  55.8780937  42.3900528  42.5573769  57.1965523
  73.7150726   5.3862362  79.5185242  73.7889328   4.6900835  78.8657227
  74.1532898   6.1372867  79.1183777  47.4823112   3.3862460  53.2176895
  48.1956329   3.4085362  52.5797997  47.4969788   4.2529087  53.6237831
  59.1708450  32.1797829  84.5350723  59.6409645  31.5050068  85.0248718
  59.8064156  32.8881874  84.4329071  85.1148300  18.2183590   5.8126049
  85.4791260  17.4389782   6.2322307  84.1668930  18.0928383   5.8560739
  27.5831184  61.4729958  61.9245148  28.0329590  61.2582474  61.1073532
  27.6268196  60.6680679  62.4406662  81.4569168  46.0397491  57.5576897
  81.8823395  46.5221252  56.8487740  81.3159332  45.1631546  57.2000046
  79.5135040  12.3286161  87.2282181  80.2504349  11.9708595  87.7233734
  78.9123001  12.6566076  87.8969498  18.5302334   3.2751718  17.7949696
  18.7113342   3.9856546  18.4103146  18.4412289   3.7097850  16.9467831
   0.4756000  70.6531982  20.9822140   1.2472363  70.9449005  21.4677238
   0.5150325  71.1365356  20.1569462  69.2605438  21.4721775  78.6876755
  70.1772156  21.2310181  78.5542831  69.1000671  21.2996674  79.6154251
  49.6382065   7.7005091  80.6628647  50.5842781   7.5578237  80.6915207
  49.4887047   8.1488199  79.8304596  83.5017700   8.9672585  21.2323647
  82.6491470   8.5893126  21.0168934  84.0240021   8.2238684  21.5338211
   6.3800945  28.3784637  88.5186462   5.7700744  27.7103977  88.8313751
   6.5212631  28.9470673  89.2756119  45.1733246   9.6373167  32.0357666
  45.2200775   9.9926100  32.9233551  45.9578362   9.0951405  31.9531765
  31.8709736  61.4273682  85.9747543  31.4996204  62.1330070  85.4452286
  32.7706795  61.3397408  85.6599808  11.0928602  36.4446602  73.2959595
  10.2130728  36.6466560  72.9775162  11.6231613  37.1945953  73.0264893
   5.6500716  23.8251724   0.8680182   5.3813467  22.9511528   1.1510541
   6.3937669  24.0410213   1.4306531  69.7616653  33.1733856  29.5491295
  68.9607391  33.0096931  30.0470772  69.7816010  34.1233139  29.4330521
  56.8817139  22.5091438  86.9814987  57.3279533  23.2679863  86.6056519
  55.9946556  22.5517826  86.6243668  31.7049160  57.3802490  53.2931023
  31.7968159  57.0656853  54.1924553  32.5684853  57.7288742  53.0718765
  59.2107620  15.2301102  62.5294228  59.4030380  16.0949001  62.1669312
  60.0458603  14.7637768  62.4923096  78.7573929   0.3257122   4.8250122
  79.0926895   0.9803888   5.4375515  78.5333862   0.8250290   4.0396867
  44.1780396   3.4258223  24.9029636  43.9867210   2.5722640  24.5142899
  43.6965942   3.4256036  25.7302761  72.3353806  22.4761181  76.3948441
  72.7630844  21.9748325  75.7005768  72.9827194  22.5103703  77.0991211
  78.5869522  61.6652527  55.3406792  78.0929565  61.8542900  54.5428848
  78.3061523  60.7857895  55.5935249  45.9309158  43.8459816  18.1240120
  45.9988060  43.2053566  17.4160404  46.3511009  43.4216537  18.8720932
  49.1154556  38.0619049  61.9464264  48.3234100  38.5455017  62.1810074
  48.9016266  37.6417007  61.1133957  17.2283535  38.5520020  75.8647079
  16.9662914  37.6843872  76.1725998  17.6031132  38.3954582  74.9979477
  29.5960712  50.4225311  63.9393997  29.5679626  51.0839729  64.6307297
  28.9501362  50.7187500  63.2981071  16.7963772  42.8297043  70.4179916
  15.8785877  43.0124893  70.2167816  17.0665798  43.5537987  70.9827118
  39.0749741  48.3962860  70.1761169  39.3063354  48.8773689  69.3815994
  39.9096565  48.0641823  70.5066376  46.4071503  51.3694992  58.1268768
  45.6456413  51.7797165  58.5368309  46.8066521  52.0689812  57.6098099
   8.7931900  20.5896702  21.1719913   9.2678747  21.1857338  20.5926685
   8.8069925  21.0233154  22.0252151  68.8723145   9.7528582  78.1126633
  69.6312485   9.3956585  78.5738144  69.0685577  10.6845379  78.0142136
  86.4279938  47.1788597  45.5537262  86.4742889  47.9631271  46.1005478
  85.5160675  46.8952560  45.6184235   0.9549361  36.8841476  67.5951920
   1.2337036  36.5455093  66.7444000   1.7692502  37.1331558  68.0323639
  42.0216560   1.0527954  84.2699127  42.7433701   0.4747694  84.0224380
  41.5305824   1.1835681  83.4587555  45.5452957  42.0028801  80.0570602
  45.5039062  41.1011620  79.7385941  44.8089638  42.4414673  79.6308136
  59.7314072   9.7659321  85.7195053  60.4581261   9.6158333  86.3241348
  58.9673996   9.4045954  86.1689072   1.2267122  60.3976631  43.3582878
   1.8769306  59.7641373  43.0548210   0.3942159  59.9275780  43.3113937
   0.0801141  60.1729698  12.3766079  -0.2940694  60.8418007  11.8031282
   0.9530336  60.5021782  12.5907669  39.7898979  60.3190002  55.0912437
  39.4764557  59.4726830  55.4101982  39.1560631  60.5716476  54.4199409
  12.1839600  29.6950970   4.5616875  12.4441490  29.7072468   5.4827662
  12.6633139  28.9560738   4.1871228  12.9559011  37.6479301  39.2835503
  12.8809547  37.9383965  38.3745689  13.8279676  37.9340782  39.5553055
  51.1083603  69.5977325  21.7181034  50.7239838  70.1183319  21.0127945
  52.0190239  69.8892593  21.7620544   7.5336356  67.9922333  50.6528473
   7.0330544  67.8959885  51.4630241   8.3917646  67.6198883  50.8558464
   8.3775244  68.3349838  21.4806900   8.1211624  68.4358292  20.5639896
   9.1994104  67.8454895  21.4470882  70.1427002  41.0026093  59.0856857
  71.0718994  41.0991554  58.8771400  70.1001434  40.2178574  59.6321144
  25.4824524  68.2640457  25.8617058  25.5350037  69.2182159  25.8067570
  24.7579803  68.0302582  25.2814312  68.0941467  50.6009674   9.6924181
  68.1267776  51.4976311   9.3590126  67.5661926  50.1258888   9.0507040
  19.9409237  12.7883358  75.1519394  19.1805897  13.3536348  75.2881775
  20.2719021  12.6155357  76.0333176   9.0114422   8.8289604  32.1061974
   9.6931629   8.7820807  32.7764893   9.3156767   9.5062752  31.5021133
  50.3349571  30.5190296  78.6383133  51.2300529  30.3880558  78.9511795
  50.3346062  30.1536694  77.7535858  52.8922043  35.0868568   0.5832840
  51.9879265  35.3987389   0.6185772  52.8211823  34.1361542   0.6690399
   9.3815851  63.5711365  54.5854263   9.5714121  64.2487411  55.2343063
   8.4447222  63.6618958  54.4114037  13.1343040  16.2774830  77.7127151
  13.0571060  16.7083511  76.8614655  13.6575365  16.8810749  78.2401047
  75.0093842  30.4278069  21.5471802  75.1792145  30.4292793  20.6051674
  74.0743637  30.2369595  21.6216831  37.8478584   8.1393023  13.5766039
  37.8245735   8.6984787  14.3531418  37.7800713   8.7480173  12.8410072
  81.2173004  69.2262039  31.0862217  80.4294510  68.6825790  31.0840645
  81.8845291  68.6793060  31.5008698  27.2802124  63.3207893  42.7613907
  26.6857204  64.0291748  43.0083771  27.2292004  62.7007179  43.4888115
  84.1852188  44.8430557  40.2766647  84.7606812  44.0793495  40.2339668
  84.4308243  45.2828140  41.0906181  38.9775887   4.0253663  64.2072983
  38.4805489   3.2134337  64.1075516  39.8091011   3.8529642  63.7656059
  40.6723557  37.6123810   3.6117005  39.9116592  38.0260887   3.2037563
  40.3149605  36.8500023   4.0669765  84.7390976  22.6729145  48.7056541
  85.5417786  22.5869064  49.2199783  84.3264542  21.8109188  48.7597466
  86.3813400  14.5429077  71.2990875  86.4816666  14.5748644  70.3476944
  85.4472351  14.3852291  71.4362640  69.4119720  39.1208115  45.6911507
  69.9967957  39.1245155  46.4489098  69.6987228  38.3702049  45.1709633
  44.2511520   6.8527250  82.0947647  44.8343239   7.0719285  81.3680649
  44.8269958   6.8046784  82.8578644  66.6481247  16.6177216  80.0647430
  65.9650879  17.2162628  80.3671341  66.9916992  17.0277863  79.2709961
  39.7158089  34.4665260   2.6099617  39.5244865  34.1046906   3.4752381
  39.1048012  34.0205803   2.0234206   0.3546497  68.8521271  47.4092369
   0.3808599  69.7566528  47.0971794   0.2397618  68.9287720  48.3564224
  32.2654686  71.0451736  75.7352600  31.7597694  71.7321472  76.1694946
  32.9469604  70.8141251  76.3664627  57.6940575  57.8276291  14.7060871
  57.5436745  57.9411125  15.6445637  57.3995247  56.9355698  14.5224724
  14.8711405  45.3551712   4.1525755  15.3977232  44.5792656   3.9604461
  14.0887203  45.0126419   4.5846901  66.7790375  42.9235764   0.5645906
  67.5024872  42.3709946   0.2687583  66.1356506  42.3080559   0.9158928
  19.5791645  17.7899094  30.4735355  19.4061337  18.3258076  31.2475548
  18.7691097  17.8342838  29.9655285  85.9028702  61.5300598   5.7867188
  86.8535233  61.4354706   5.8462505  85.7714462  62.4086800   5.4303689
   6.5840216   1.0086055  34.7237816   5.9887567   0.8927407  35.4643669
   6.1125998   1.5889102  34.1260872  74.4195404  18.0895443  19.8434639
  75.0635376  18.5445366  19.3008003  74.8661728  17.2918797  20.1271667
  12.5924606  38.6437187  71.9717178  12.1843443  39.4894218  71.7860947
  12.7695932  38.2687531  71.1090164  33.5021667  31.7608738   5.1424627
  33.7228813  32.5482063   5.6400781  34.2871056  31.2156982   5.1961708
  22.9227905  63.1760712  77.8319550  23.8645802  63.0789413  77.9727707
  22.8361015  63.9994507  77.3515778  68.9084625  57.5788956  81.4872742
  68.8303833  57.5877113  82.4412460  69.8334427  57.3942566  81.3243637
  44.3146095   0.3785057  10.6313429  44.4537125   0.1112180  11.5398798
  45.1696396   0.2678058  10.2155266  65.7619629  58.9526901  46.8771591
  65.8863754  59.8288155  47.2420654  66.2537613  58.3771935  47.4629669
  70.1856003   0.7527519  42.0942459  70.0394897   0.1636058  42.8343735
  69.3896713   0.6779472  41.5678139  16.8551464   1.4620866  56.7908592
  15.9120169   1.4412280  56.6286736  17.1293259   2.3312480  56.4982567
  11.9069853  64.3749695  79.1056976  12.1267853  63.4629135  79.2956390
  11.6182041  64.7316742  79.9456940  41.2738686  56.6899490  11.4234638
  41.5145531  57.5802116  11.1670713  42.1047249  56.2153740  11.4497461
  84.7116699  67.9623566   4.8679581  84.2057953  68.1149750   4.0698166
  84.6627960  67.0163193   5.0052757  57.4298019  22.3836613   0.5450936
  57.5871735  21.4480743   0.6721610  57.5180054  22.5153332  -0.3988948
  46.2161636  28.6309834  70.4729080  45.6369629  28.1861382  69.8541412
  46.3797073  29.4862690  70.0754471   1.2942835   1.1283855  39.4758949
   1.2898555   0.2641611  39.0643997   2.0859239   1.1334131  40.0139580
  77.1310196  28.4406528  19.9799900  77.1536789  28.0941257  20.8719749
  76.2250061  28.3158455  19.6975002  14.9590788  56.7298775  85.9269409
  14.6107273  56.9106827  86.7999802  14.8036680  57.5363388  85.4353104
  47.5449104  55.0951729  59.1740952  48.2633057  54.8738365  59.7666740
  47.6651459  54.5128860  58.4239502  76.3222351  26.9107800  73.8679962
  76.6935654  26.1794376  73.3745575  75.5908127  26.5266972  74.3514557
  86.2608566  69.0116272  58.0700874  85.3131332  68.9639664  57.9444618
  86.3681412  69.2961655  58.9777031  48.6683273  48.1464233  17.4622822
  47.7556953  47.9001236  17.3117123  48.9086571  48.6587029  16.6902447
  83.3991699   5.5483775  46.1724396  82.5460129   5.9811449  46.1397896
  83.5386734   5.2264481  45.2818604   0.7607970  45.0868530  27.7334595
   0.1026074  44.6229820  27.2159252   0.3947743  45.9626427  27.8569679
  15.3882122  60.0546761  28.4763527  14.4351444  59.9688873  28.4532337
  15.5488300  60.7800331  29.0799160  64.5733643  56.4739723  35.9361153
  64.5802155  56.0339584  35.0860710  64.1285629  57.3054695  35.7718201
  11.7132168  54.1623001  88.2343140  12.6456270  54.0318260  88.4069977
  11.3452244  54.4116096  89.0820541  58.6937332  18.2479076   9.0609608
  57.9040108  17.7651844   9.3049879  59.2529755  18.1998920   9.8363142
  41.4982910  62.0742798  56.1650276  41.4711113  62.7074699  55.4476967
  41.1257820  61.2748337  55.7930679  47.9685249  16.7972717  33.9497337
  48.7709770  16.6122074  33.4618225  48.0083885  16.2129288  34.7068214
  22.9918022  43.6746254  82.5494308  23.7995205  44.1563950  82.3713226
  22.2925854  44.2784424  82.2989655  80.1618118  59.4261284  63.7709694
  80.9838028  59.8104095  63.4661903  80.2761612  58.4842911  63.6440811
  54.6972961  14.3876514  32.7392921  55.3729782  14.3084364  32.0659370
  53.8766136  14.2202616  32.2759399  37.3693428  10.3216152  72.4569016
  36.4190903  10.4345932  72.4347534  37.5958252  10.0244942  71.5756226
  67.8672943  56.8117943  43.5982857  68.2583084  56.9723358  44.4570999
  67.4419098  57.6384659  43.3704796   3.6622834  19.7904854  78.1598358
   3.5714839  19.1163540  77.4863892   4.3565488  19.4647923  78.7326813
  61.5232811  60.3267326  78.9627762  61.4071846  59.4476166  79.3232040
  61.1036758  60.2905159  78.1032104  56.1861038   8.5203438  42.3276596
  55.3941803   8.7393427  41.8366127  55.9007988   7.8616867  42.9609108
  12.2503319  56.1455574  11.9378500  11.8590946  55.2969856  11.7302732
  12.3364449  56.1428299  12.8911648  48.0241051   2.4784915   4.4170980
  47.6223831   2.9128923   3.6646709  48.8060799   2.0567961   4.0608368
  70.6855011  52.1872864  12.5390568  69.8351517  51.7581635  12.6338654
  70.7607040  52.7437744  13.3142328  76.0006714  53.4668541  51.2727699
  75.3813248  53.5855446  50.5526657  75.4536667  53.2357674  52.0235176
  55.3088531  30.7087688  76.8787460  55.2609024  30.3281231  76.0017929
  54.6373520  30.2444172  77.3784485  13.9553518  58.4293938  21.3841972
  14.8732615  58.5380402  21.6329346  13.8232937  59.0585670  20.6750164
  38.1877060  71.1739883  43.3884010  37.3970375  71.6360092  43.1098099
  38.2360725  70.4122467  42.8107796  14.5359993  59.2461281   6.3758969
  15.3712378  58.7786674   6.3854661  14.5884428  59.8145409   5.6075306
   8.7090969  17.1265659   3.5768495   8.8122416  16.8831406   4.4968157
   8.3618374  16.3389416   3.1581712  36.2604065  14.0228825  80.2556763
  35.7440796  13.2501717  80.4849167  35.7336807  14.4762697  79.5974731
  74.3529434  46.8940659  67.3330841  74.0365601  47.1115227  66.4562454
  74.2506180  47.7042809  67.8323975  85.9870453  23.2107086  33.3874969
  86.2601471  23.6881313  34.1708984  85.0354080  23.1448288  33.4667473
  12.6298552  14.5095978  59.2254524  12.3473883  13.5950785  59.2155571
  13.5758724  14.4696102  59.0851479  22.7294121  44.7211647  69.3689957
  22.7810898  45.5870514  69.7737198  22.8674889  44.8842621  68.4359512
  81.9697495  31.8418789   8.4912138  81.4071198  31.3165836   7.9222293
  81.3936005  32.1273804   9.2002792  28.1482086  64.7156830  34.9649658
  28.5184307  64.7483444  34.0828629  27.3564587  64.1856842  34.8729401
  59.7268257  42.2689934  23.4140606  60.2810097  42.4419174  24.1751194
  59.4912987  43.1372223  23.0870514  62.5404587  37.3879776  27.7326012
  62.4963531  38.2118263  28.2179394  61.6318130  37.1991081  27.4982529
  70.8881531  30.5638866  46.0468483  70.0451965  30.1182060  45.9630661
  70.6685257  31.4955006  46.0372314  22.2935658  46.7258492  71.6617050
  21.7631874  47.0440788  72.3922272  23.1977501  46.8482819  71.9510040
  63.4651527  11.6328049  27.9963455  63.0391579  11.9564381  28.7900848
  63.9877434  12.3724442  27.6864033  80.0347061  49.3063927  54.0926628
  79.2760544  49.6125069  53.5957031  79.7047272  48.5659180  54.6016235
  25.0626469  30.1498947  20.3494816  24.2197132  29.9498825  20.7565327
  24.8626041  30.2437973  19.4181404   0.6192604  29.5759583  22.4698391
   0.3593520  28.6559544  22.4221687  -0.1372062  30.0563011  22.1332951
  63.5156555  42.6962852  44.4510841  64.2451019  42.7535667  45.0682220
  63.0882378  43.5510292  44.5054703  33.3459854   0.6928943  35.8204041
  34.1953850   0.3410847  35.5539856  33.2050247   1.4423369  35.2418709
  85.5962753  54.5514565  88.7191696  86.2807312  53.8824234  88.7315216
  85.8837891  55.2001343  89.3616486  43.5384140   8.7847595   2.0162721
  43.1300850   9.3128757   1.3302734  42.8370247   8.2124987   2.3274043
  35.8105354  34.7276306  16.5780067  34.8992195  34.5073547  16.7709160
  35.9864311  34.3046646  15.7375355  70.2345123  40.9831848  76.3041763
  70.9417114  40.9098167  76.9450531  69.5755234  40.3559952  76.6018295
  10.2155895  32.0444145  70.6602020  10.6890278  32.5141296  69.9735794
  10.8485413  31.9608765  71.3733826  13.5696583   5.5535526  59.5567436
  14.2259436   4.9088626  59.8211250  12.9324274   5.5533838  60.2710075
  86.3909531  24.2943592  22.6645222  85.9455032  23.7366657  22.0267220
  86.6172562  23.7033730  23.3826828   8.0893707  63.4159241  28.3050861
   8.5912657  62.9939537  27.6077518   7.9779081  62.7332535  28.9667282
  33.9102249  33.6465263  85.6125336  34.3657761  32.8105087  85.5136642
  32.9971466  33.4477386  85.4051666  24.7586479  36.1760826  77.3030930
  24.3630104  35.4594650  76.8069458  25.5268269  35.7842598  77.7185516
  40.1378441  55.9343643  77.7209625  40.0421867  54.9928436  77.5773621
  40.7083054  56.2282333  77.0107193  22.4440727  28.6973362   7.9613614
  21.7111683  29.3005199   8.0848627  22.1848125  28.1547108   7.2166638
  28.5433960  61.8332672  77.3745117  28.5554581  62.7751770  77.5445023
  29.0384827  61.4526062  78.0999222  84.7855835  18.2133808  88.4334183
  84.7349167  17.2609329  88.5140915  83.8738327  18.5042038  88.4524918
  41.3006248  62.2764359  69.0567017  41.8681488  61.8600845  68.4080124
  40.7945595  61.5550003  69.4304199   2.9554610  48.3561516  61.8773232
   2.5818691  48.0111847  62.6882858   3.1008999  49.2850647  62.0567627
  80.1775894  56.4507523  50.9565849  79.4152222  56.8881912  50.5775299
  80.0959244  55.5397606  50.6743469  62.2509308  67.8974915  88.6356430
  63.1445465  68.0312347  88.3197479  61.9070015  67.1907883  88.0892868
  56.6802711   2.2985282  10.0121384  57.3479385   2.8992434   9.6810846
  57.1717682   1.6443204  10.5088024   3.0695310  54.0845261  21.7826729
   3.6426792  54.7955437  22.0693569   3.2423401  54.0008888  20.8449230
  45.9607544  12.0000830  30.8970833  45.8991203  11.8658619  29.9513474
  45.5616417  11.2172060  31.2766171  58.2438087  31.8101692  54.8524742
  58.0042496  31.5390606  53.9662781  58.9024239  31.1726360  55.1281776
  55.5703583  46.8513870  62.9313812  55.5623093  47.2739105  62.0725212
  54.7637405  46.3364601  62.9525566  39.4678230  10.2403460  74.4269257
  38.6070633  10.1914978  74.0110703  39.5328598  11.1434116  74.7375259
  24.0205460   1.3858933  63.9438858  23.1212807   1.0670899  63.8669739
  23.9327927   2.2619412  64.3194809  62.9060097  17.4999218  72.3151932
  62.0056496  17.7341003  72.5404663  63.3383865  18.3385220  72.1538391
  31.5817299  61.2609787  51.6442719  32.0841942  61.0676956  50.8528137
  30.6735687  61.3090019  51.3456573  32.5001793  25.0416336   5.0159888
  32.5155869  24.5912304   5.8604598  32.0347061  25.8598595   5.1894040
  45.0298500  55.2543716  31.3735428  44.8340263  54.9228630  30.4971943
  45.9854584  55.2403717  31.4269123  12.1021767  62.3204269  75.9660492
  12.1331682  61.5225258  76.4939041  12.9891682  62.4119987  75.6180725
  44.9093170  52.8796883  61.3361664  45.8446465  52.7064705  61.4428635
  44.4918404  52.3820152  62.0392075  10.7747688  38.7498360   8.7496605
  11.2910557  38.5389633   9.5276146  11.1554918  38.2109261   8.0562220
  17.2994480  53.2899399  34.5206680  17.1365967  54.1036415  34.0435944
  18.1387997  52.9779091  34.1824989   1.7680680  29.4934578  67.2038193
   1.7336948  28.6140289  66.8274460   1.6940010  30.0794201  66.4505615
  19.2271461  45.9983902  19.4363823  19.0076504  46.8115425  18.9815884
  19.0721378  46.1917152  20.3609524  85.2505341  11.4961777  66.2244339
  85.5414963  10.7624407  65.6829529  84.9853668  12.1674643  65.5957108
  46.4533539  31.8740616  11.0915079  47.1580238  31.6506844  10.4834194
  46.9028320  32.2228813  11.8612633   1.3504456  69.2603302  42.4031982
   1.2465233  68.3635635  42.0850143   0.4856250  69.6554260  42.2926598
  47.2001457  31.4785824  57.0734253  46.6032944  30.8090515  57.4076881
  48.0739670  31.1242599  57.2381172  80.3282547   8.8365488  20.1541233
  79.6893845   9.3322210  20.6663647  80.8800125   9.5049696  19.7479172
  78.9632721  63.6138687  10.8690453  78.0503311  63.3540115  10.7455530
  79.4635315  62.8129349  10.7125854  73.8736725  21.3287830  74.7947235
  74.3550797  20.5043011  74.8633194  74.2510757  21.7635899  74.0300369
  39.9686089  41.2964973   2.0740688  40.5082207  41.1284904   2.8466134
  39.2860641  41.8919640   2.3835554  70.9927902   5.2864060  80.6273804
  71.8791122   4.9968781  80.8438187  71.0612183   5.6186295  79.7322998
  49.8267593  12.5228004  48.5436897  49.1767807  12.7382164  47.8748436
  50.6397552  12.9122553  48.2218323  49.4907494  35.2245331   4.1289396
  48.9160042  35.9757195   4.2759733  49.2226334  34.8810120   3.2766840
  31.3779602  48.3011169  42.4146843  31.0932617  47.4232864  42.6688347
  30.6867943  48.8796997  42.7368050  79.6727295  24.5004673  29.3373184
  79.2903442  23.6984253  28.9813118  78.9226532  25.0023842  29.6562023
   9.2507105  70.7910995   4.5834966   9.7017689  70.0058060   4.8934836
   9.2870569  70.7271881   3.6291242  42.9812241  21.7892513   0.9117394
  42.7152443  21.4087601   0.0746534  42.8587952  21.0826244   1.5457124
  36.4974480  50.2801666  16.1310234  37.2516518  50.5116959  16.6730595
  36.4533958  50.9739380  15.4730158  58.5749245  55.7898254  50.3066139
  59.2199059  56.3024940  49.8193779  58.7250099  54.8870850  50.0259628
  56.1348724  20.5226574  47.7679329  55.3224831  20.1487083  48.1091309
  56.5541382  20.9208870  48.5307312  24.9180660  22.0666981  14.4969139
  24.1732597  21.4709702  14.4156532  25.6775188  21.5343323  14.2601633
  68.1250381  16.1517544  33.4046593  67.9227295  15.9573402  32.4895058
  68.1469421  17.1077557  33.4472427  55.0416298  56.0653381   5.9406576
  55.2170601  56.4220276   5.0698943  55.3966789  56.7188873   6.5431886
  77.1398163  67.6645432  50.8700142  76.6478806  67.9813156  51.6275711
  78.0570755  67.8079453  51.1030540  67.9062271  60.6252136  18.9953060
  67.6055527  59.9369507  18.4019070  68.4263153  60.1638565  19.6532459
  43.7888947   9.4307833  22.1652203  44.2309151  10.2444296  22.4077682
  43.4888535   9.5793314  21.2684822   1.4002775  13.7238350  42.4784660
   0.4511071  13.6093693  42.4315109   1.6034935  14.3328371  41.7684975
  31.5228271  59.7499313  59.8815575  31.7804375  60.3308296  60.5973969
  31.9975700  60.0830956  59.1200790  19.6744461   0.9343818  81.5138702
  19.8322315   1.0337578  82.4527283  19.5060520   1.8241745  81.2037964
  32.1335030  19.6370163  41.4297752  31.9464741  19.7514095  40.4980202
  31.2795372  19.7092381  41.8561058  26.2463360  37.8615074  75.6584854
  25.8717308  37.0628700  76.0300827  26.8123169  37.5537071  74.9505615
  86.4534073  69.0932312  50.1184578  86.0281906  69.8193283  50.5747566
  85.9299622  68.3258286  50.3493996  30.8228722   2.2958629  20.9145489
  31.0911293   2.7428145  21.7173595  30.1325092   2.8503335  20.5509682
   1.3623042  12.6800499  67.3946915   2.3180254  12.7331705  67.3920288
   1.1679015  11.8868322  67.8939438  33.6471062  50.5905876  66.7226105
  34.1086502  50.0955620  67.3994827  33.4517403  49.9440880  66.0443039
  15.1515779  46.4171562   8.0746775  15.5437517  47.0976868   7.5275903
  14.3774567  46.8321915   8.4550886  41.0805588   1.7412487  59.8453865
  40.4837875   1.4388307  59.1608162  41.9027939   1.9145012  59.3869667
  39.9297638  69.6253128  35.0127182  40.5535278  68.9902115  35.3645668
  40.1788940  70.4557266  35.4184036  39.3019447  55.1005630  57.9812279
  38.7856750  55.9035721  58.0510368  38.8547211  54.5859413  57.3093719
  10.5178757  13.6260214  70.9227829   9.5642710  13.5557556  70.9667511
  10.7993345  12.8100815  70.5089569   6.2350979  64.7402725  30.0271301
   6.7050509  65.5741425  30.0333576   6.7729297  64.1662979  29.4816742
  79.3560867  38.7146225  66.0833893  80.1474228  39.0122108  66.5322342
  79.0092697  38.0207138  66.6441345  36.8241920  67.9744263  59.1203308
  37.7312660  68.2704239  59.0439301  36.6185036  68.0702438  60.0502472
   6.7325597  29.0716400  22.8748684   6.0846500  28.3823185  23.0207405
   6.9689703  29.3680172  23.7537899   4.1551051  13.3466444  44.4855957
   3.5766478  13.8915787  43.9520531   3.8439276  12.4531994  44.3401413
  81.4842606  66.4618301  65.5613098  81.3388138  65.6668777  65.0483475
  81.6324081  67.1450272  64.9074631  62.2600937  40.1655807  44.4766731
  62.6694527  41.0087128  44.2822876  61.3206635  40.3318214  44.3987808
   7.2175364  51.5885811  23.7761478   7.6529245  50.7569504  23.9633961
   7.6513109  52.2204628  24.3495579  83.1005936  54.4538269   2.5807159
  83.2158890  55.3975868   2.6914377  82.7167740  54.1608315   3.4071937
  40.7901649  46.6131516  77.3947144  40.1543922  45.9013901  77.4683304
  40.6646767  46.9558220  76.5098038  26.9597988  19.7098198  18.3139400
  27.7603626  19.4244003  18.7542458  26.2591000  19.5003834  18.9315052
  41.9851341  34.1769180   5.5285454  41.9084740  33.2998314   5.1529417
  42.0831566  34.7540550   4.7712245  52.8919601  64.8227234   5.5570025
  51.9406738  64.7423630   5.6264653  53.0326004  65.6973343   5.1943502
  62.7114105   8.9487572  41.7904778  62.3637772   8.6420012  42.6279068
  62.1532516   9.6903954  41.5566750  21.4206409   1.5200412  11.5907326
  22.1072769   2.1524587  11.3790503  21.6540451   1.1951852  12.4603434
   4.9976535  17.8865032  20.9705257   5.6491661  18.4041481  20.4974442
   4.1722498  18.3485165  20.8239536  67.2735596  23.1439762  28.6877041
  67.8332672  23.3324699  27.9344254  66.8617935  23.9826164  28.8959560
  46.3875580  69.4631271  32.6244583  46.3166618  69.2012939  31.7064953
  45.5400810  69.2329636  33.0053024  82.1448364  42.1774826  14.8336411
  83.0110474  42.5611191  14.6967525  81.6412964  42.8696823  15.2620535
  43.7842293  12.5770111  70.5189972  44.3349571  13.0849838  69.9232635
  42.9510651  13.0479794  70.5352020  60.0218735  47.0291252  51.6587486
  59.7163315  46.3155174  51.0987129  59.6044960  47.8116760  51.2986870
  36.4032402  48.3665924   6.1924353  36.3073349  48.9536514   5.4425049
  36.5482330  47.5037689   5.8041701  58.9603500  35.7064438  76.4156952
  59.1625710  34.9426613  75.8753510  59.4245911  36.4287834  75.9926834
   3.3629804  52.0780220  73.2138901   2.5659299  52.3319702  73.6791382
   3.0781484  51.3964157  72.6051941  76.6240616   7.1701345  36.5313644
  76.9049911   6.5555882  35.8533974  76.4278564   7.9776173  36.0562782
  46.6412697  51.4360123  17.1179199  46.2507668  51.0019569  16.3594112
  47.5845871  51.3850136  16.9637127  46.4957886   3.8202558  59.6963997
  45.5718880   4.0256205  59.5533409  46.4921341   3.1881981  60.4152336
  77.3633347  52.5785065  16.7521591  77.3639526  52.6503944  15.7976637
  77.2156067  53.4728661  17.0596123  72.1122284  52.3317795  60.5004997
  71.9200745  51.5848846  59.9335251  72.4485855  51.9402733  61.3066101
  19.4276505   8.7570505   9.8422470  20.1291065   9.3935232   9.9804239
  19.2948017   8.3567162  10.7014990  57.6011467  64.4114380  23.1654835
  57.9405022  63.5679817  23.4649067  57.3008575  64.8458405  23.9638271
  17.2179890  10.1609583  14.4259329  16.2690773  10.0380497  14.4522734
  17.4975471  10.0630064  15.3361444  32.5329399  10.0170069  34.5393028
  32.5737419  10.4500809  33.6866531  31.9732838   9.2541904  34.3939590
   1.3948882  60.5887222   4.6066041   0.7722851  60.6395912   3.8813388
   1.2087917  59.7473907   5.0234556  10.6229057  13.8894510  86.3068466
  10.0286655  13.3413858  85.7942657  10.8062639  14.6388483  85.7402649
  62.0266304   1.3538048  84.7398453  62.6892815   0.9841061  84.1563644
  61.2555618   0.8025689  84.6063461  68.7175827  69.2501678  61.9230270
  68.1415710  69.1047287  62.6735535  69.2205582  70.0308685  62.1548691
  50.4488754  58.9203873  73.9618225  49.7438660  59.5449905  73.7913513
  51.1503830  59.1824341  73.3656235  60.0699806  66.3719177  41.4902840
  59.3439064  66.9589844  41.2795792  59.7583275  65.5039444  41.2339211
   8.9846048  64.6709442  59.5413399   9.4867153  64.0034561  60.0088730
   8.6825972  65.2671814  60.2265587  72.8986893  11.9621363  52.3278999
  73.7935257  12.2579336  52.4952278  72.5727615  12.5557404  51.6514091
  31.7012024  26.9856548  20.1284218  32.0617561  26.1071758  20.2488766
  32.3810463  27.5713444  20.4616089  75.2261429  56.2887688  83.6670685
  75.0318375  57.0680351  83.1462784  74.8994904  56.4979401  84.5421524
  23.3200111  62.3483582  35.4168549  24.2620411  62.4053307  35.5767479
  22.9500637  63.0877991  35.8991432  23.7412415  39.5317154  11.8507719
  24.0278358  38.6461449  12.0740681  24.4762440  40.0915489  12.1009521
  10.5738878  56.9471817  81.1313934   9.6363020  57.0977249  81.0109787
  10.8235064  57.5435333  81.8372879  23.2889538   1.7987325  34.1493187
  23.0069618   1.8495908  35.0626259  22.9119873   2.5768178  33.7385750
  72.7131500  11.1058741   9.8829918  71.8413162  11.2898045  10.2327280
  72.6712646  11.3944597   8.9712925  32.1955261  53.5692558  76.6567535
  31.7755566  53.1497421  75.9058456  33.0975914  53.7191353  76.3738174
  45.0418968   8.0263462  70.0007095  44.2980843   8.5766296  69.7554245
  45.4475899   7.7867055  69.1675110  13.2625771  13.4818201  56.1366043
  12.3554964  13.7803030  56.2025070  13.7363729  14.0121164  56.7773361
  35.3049583  36.2478714  27.7948380  35.6210709  36.9265137  28.3912830
  36.0989647  35.8861847  27.4011745  69.3241425  12.5232420  67.6931534
  69.3584137  12.0634890  66.8542938  69.8896408  13.2859077  67.5715561
  64.8958435  54.8706703  21.8282738  64.3238525  55.6374550  21.8615150
  64.5915451  54.3777199  21.0662823   4.7009072  62.4149246  58.9612579
   5.4428391  62.9818497  58.7506256   3.9931419  63.0195923  59.1841431
  38.0240059  14.2288780  31.4741440  37.3182945  14.5671206  32.0253220
  38.3963814  15.0062599  31.0579185  83.4679184  42.6278763  74.8419952
  82.8495407  43.0959511  75.4030228  82.9273224  42.0027924  74.3590240
  58.5667763  63.9341583  41.4390564  58.9726181  63.4786911  40.7014427
  58.7423668  63.3719902  42.1936188   3.5877333  28.6694069  55.2305450
   4.3853803  29.1759071  55.3836746   3.0974233  28.7413311  56.0494804
   5.0459380  19.0778179  61.6128159   5.7494888  19.6071129  61.9884415
   4.2438288  19.4527397  61.9765282  57.3444290  21.5933228  49.8569450
  57.4291267  22.4839859  49.5166817  56.6311455  21.6467514  50.4930267
  10.8670254  44.8012733  81.7728424  11.3490639  44.0845108  82.1853027
   9.9701166  44.4752617  81.6986694  18.6417389  36.1399498  21.4044304
  19.3565693  35.5708275  21.1192093  18.9200974  37.0197983  21.1502323
  42.2185898   6.9128771   3.4471507  41.4551659   6.3678527   3.6378419
  42.6179276   7.0733089   4.3021507   0.8000600  38.5320320  55.6893578
   1.7086598  38.5311890  55.3882294   0.8279073  38.0862732  56.5359688
  63.4600334  40.5046349   0.2404136  63.8801384  39.8876190   0.8396068
  63.5076752  40.0778732  -0.6150609  13.2491293  60.0295143  44.9628792
  12.4202223  60.2629929  44.5449867  13.0126286  59.8286896  45.8684006
  15.6520596  42.5571709  50.7205658  15.0657749  42.2606239  50.0244598
  16.4955521  42.1565781  50.5101509  12.3636141  44.6413612  49.0756111
  11.6048107  44.4471054  49.6258049  12.6610460  43.7855034  48.7669487
  35.3666687  36.7707596  78.9863129  35.0276985  36.4025230  79.8022385
  35.3191910  37.7183189  79.1132507  54.2960968   2.8993289  55.8508530
  53.7741928   2.2831035  55.3369331  54.9876328   3.1839707  55.2533646
  31.1323471  31.3235474   9.6414833  32.0379829  31.6249809   9.7135448
  31.0618782  30.6203594  10.2870770  50.2339134  61.6502953  75.4091034
  49.6724625  62.2979088  75.8352585  50.2553406  60.9132347  76.0194473
  57.8518143  63.6284561  53.9946861  57.2084618  63.4869308  54.6891632
  58.5542946  64.1234970  54.4162178  13.1123085  53.2626839  27.3772850
  13.8496456  53.8497467  27.5443840  12.3463058  53.8366203  27.3689308
  75.5370331  42.2139130   8.4560299  75.6799622  42.8125191   9.1891565
  75.1353149  41.4409561   8.8527594  31.2389488  56.2591324  70.5180740
  30.7424927  56.7806587  71.1487656  31.6840324  56.9056969  69.9702682
  45.8915558  53.5628815  25.0258560  45.6816635  53.6511688  24.0961342
  46.7332535  53.1072502  25.0391579  18.6285744  10.9661226  23.1212292
  18.0943947  10.2013559  22.9067135  18.2004471  11.6921835  22.6676044
  77.9522018  53.1570244  86.9432983  78.1934586  52.5694923  86.2271729
  78.7395782  53.2102928  87.4849930  75.6937332   6.0591259   5.4814367
  75.8644943   5.4306569   4.7799382  74.7825165   5.9009109   5.7281861
  13.7711143  60.6247520  86.7414246  13.6564693  61.4574089  86.2834167
  13.0198460  60.5709000  87.3321304  49.7336273  10.0710850  40.5228958
  48.7956886  10.2547684  40.5754662  49.7850304   9.1256495  40.3823929
  14.6815491  14.4738388  75.1554871  15.5048151  14.8342628  75.4849701
  14.9409380  13.6943197  74.6642685   3.8817317   2.4236197  15.6765079
   4.0730691   3.1064243  15.0335455   2.9396360   2.2751315  15.5950317
  28.8395729   5.1040792  30.3238201  29.2444496   5.8771267  30.7171440
  27.9600468   5.0764914  30.7005215  35.5712013   8.2329655   1.5002837
  35.2673454   7.3416357   1.3287195  36.3004456   8.1240873   2.1106765
  82.6297989  47.2380219  49.4806709  82.3271790  47.7130737  50.2546120
  82.5651016  46.3149834  49.7257195   4.1482739  31.7066383  69.5367126
   5.0982084  31.6196289  69.4574356   3.8029697  31.2920246  68.7460861
  70.2269592   9.5070066  67.7777328  70.6655655  10.1888390  68.2866135
  69.6114502   9.1078253  68.3925705  35.9211006  56.6122475  42.2822342
  36.2936287  55.8036957  41.9305229  35.0430756  56.6559677  41.9035645
  62.0213852  25.9997253  67.1208725  61.8981438  26.2131691  68.0457993
  62.9677544  26.0518246  66.9870758  40.4789047  53.1883392  87.0138931
  40.6474266  52.3902626  86.5129852  40.1553040  53.8140373  86.3658066
  85.5819855   5.8558712  26.0743599  84.6715088   5.9115534  26.3644753
  86.0147400   6.5958729  26.5002155  71.1743164  12.6579075  83.0190125
  70.6056061  12.3995752  82.2937088  70.5853271  12.7345495  83.7696381
  45.0227966  21.3531933  55.1305313  45.0185204  20.9844456  54.2472191
  45.0155792  20.5902882  55.7085953   7.2627640   9.8188839  70.6590500
   7.2618856   9.4608326  69.7713394   7.5858641   9.1027431  71.2058411
  55.2236099   1.6326171  34.7772064  55.3182373   2.4132481  34.2314110
  55.1877289   1.9692683  35.6725349  75.5973663  67.2645264  79.3767548
  75.2894287  67.2901306  80.2827072  76.5510406  67.3074722  79.4466400
  45.2906685  16.1286659  53.8640366  45.5881538  16.4855652  53.0271645
  45.9330025  16.4429283  54.5003395   6.6914015  27.5437031  37.0123940
   6.9694676  27.7934189  36.1311722   6.0004725  28.1688156  37.2316780
  57.9803810   5.4776268   1.4518334  58.1916885   5.7230506   2.3525817
  57.3563766   4.7571578   1.5400012  41.1256523   2.7237167   6.0542040
  41.0628662   2.1091139   5.3230724  41.1636009   2.1673667   6.8321929
  19.5609303  69.1991348   7.2143793  19.1786251  69.0966721   8.0859156
  19.1451530  68.5158157   6.6886067  68.8793640  17.4558372  64.0177460
  69.5608597  16.8360233  64.2778015  69.2769318  18.3169651  64.1467209
  55.1659966  67.1387634  62.8781357  54.2876854  67.2845306  62.5266342
  55.0185089  66.8454361  63.7772636  73.9095840  18.5202103   4.8182697
  74.3153763  19.3593102   5.0361576  74.4010544  17.8767433   5.3287988
  70.8270950  69.5921326  11.2083654  70.3503189  70.4038620  11.3815918
  71.3757401  69.7937164  10.4503489  65.5037155  39.4923439   9.6471863
  66.2786560  39.7379227   9.1418285  65.6606750  39.8563766  10.5184355
  63.7533684  42.5426064  64.4392395  63.3315735  42.9402618  65.2009430
  64.6907730  42.6419716  64.6054688  62.5936623   0.9675650  17.5007267
  61.9736748   0.2775051  17.7366600  62.8399544   1.3642136  18.3363361
   1.4915257  69.0554047   6.9282842   0.9759222  69.8576965   7.0102253
   1.5741495  68.7311478   7.8250928  84.6685715  11.5903778  28.3372307
  83.7198029  11.6373291  28.4549828  84.7901917  10.9720430  27.6167431
  52.6049614  53.2476463   7.4522438  52.5937309  53.4224625   8.3932781
  53.5069008  52.9852676   7.2681241   3.8241169  57.7606964  26.2130718
   3.8561790  58.0000610  25.2868385   3.4824860  56.8665504  26.2176952
  66.0648193  47.6319351  18.0630207  66.6785202  47.0515366  18.5132904
  65.2201309  47.4549866  18.4770508  63.5823898  56.4992867  16.5235939
  62.6312790  56.5028267  16.6313229  63.7806396  57.3433723  16.1180687
  43.1380272  51.0511894  17.0066853  43.4851418  51.7718849  17.5323696
  43.3214645  50.2671814  17.5242882  33.8861122  57.0526161  63.1615219
  33.8581657  57.8771973  63.6468201  34.5122223  56.5122108  63.6433716
  76.5004196  57.4975243  69.0492325  75.7259140  57.1177902  68.6342850
  76.4217758  58.4377747  68.8880615  68.7936096   2.8814371  77.1408157
  68.7110291   3.4595015  77.8992767  69.3704834   2.1776700  77.4377365
  76.8744354  40.1114426  67.4023209  77.8264008  40.1487045  67.3095093
  76.6408157  39.2268143  67.1211014  41.1212769  19.1171188  27.4174385
  40.9466171  19.3061295  28.3393936  40.8353691  18.2111530  27.3003387
  10.0261173   4.4331837  18.2842407   9.3449478   5.1055574  18.2718830
   9.8482733   3.8978279  17.5109386  59.7345428  45.1927567  56.2852402
  58.8131599  45.0061417  56.4654007  60.1341362  44.3314209  56.1641541
  46.2054749  65.1610641  60.5907745  46.5936203  64.6325836  61.2881165
  46.0906715  64.5501175  59.8629036  23.0312004  60.3170052  42.0343056
  23.3709278  61.0450249  42.5546951  22.1441498  60.1786995  42.3663368
   2.4149365   5.5199804  47.2677231   3.0067356   6.1767311  47.6347198
   2.5552039   4.7424998  47.8081703  10.2729845  54.6264572  82.9745865
  11.0084085  54.0176010  83.0429688  10.6157618  55.3596344  82.4635239
  65.9262238   8.5300875  85.5823441  66.7793884   8.4277487  86.0041046
  65.7424545   7.6711011  85.2020798  28.0942211  55.1703148  30.2443390
  28.1031132  54.8548698  29.3406544  28.2196865  54.3830109  30.7740936
  75.1250763  68.0592194  10.9608870  74.8961792  68.4789124  11.7901611
  74.3183746  67.6269226  10.6805458   1.0738717  25.2152195  37.4093857
   0.9122701  25.0625648  38.3404121   0.2935989  25.6776676  37.1035309
  31.3223419   1.7737657  48.9399834  30.9426193   1.7399435  49.8179932
  32.1674080   1.3327849  49.0273590  33.3307610   2.6991529  80.3358994
  33.8931694   2.8290284  81.0994797  33.8501511   2.1527832  79.7460327
  27.2692528  28.5345573  86.3106308  27.2291508  27.9224796  87.0454636
  27.8451004  28.1088581  85.6754837  37.6139069  10.0211983   7.3583121
  36.6954613   9.7719154   7.2555914  37.7112503  10.8050346   6.8176107
  29.7321968   6.3387542   4.1554723  29.9909306   6.2199812   3.2415900
  30.5217209   6.6646848   4.5875044  86.0656357  46.9317131  12.5679007
  85.6865463  46.4937630  11.8058491  86.9989777  46.9982376  12.3662195
  66.3907242  41.9299774  80.0483170  67.1938705  41.4598694  79.8242874
  65.7143631  41.2529335  80.0676422  72.8440933   3.9708805  61.2437782
  72.0113983   3.5678403  60.9979935  73.2805939   4.1462603  60.4101486
  17.0455742  58.0618515  20.3887386  17.8131962  58.5396233  20.7029362
  17.0831566  57.2213821  20.8452797  64.5250473  16.8099327   2.6175890
  64.7137756  16.1702747   3.3042128  64.6884613  16.3392448   1.8002869
  74.4361801  65.9943161  87.4420776  74.8997040  65.2212219  87.7641144
  74.2011566  65.7744370  86.5406036  21.4204693   9.6869011  34.7998505
  21.5771713   9.7109575  33.8558693  20.5940056   9.2131615  34.8934479
  58.1260376  49.9254875  18.6724129  58.9958801  49.6649666  18.9752903
  58.2410011  50.8215523  18.3560562  21.9668045  42.5576897  77.1505432
  21.6049061  42.9202156  77.9591446  22.9149933  42.5869522  77.2782745
  25.4950256  33.5514145   6.1152658  24.9756680  32.9171867   6.6094894
  24.8613033  33.9886589   5.5465436  59.2771111  69.9192810  13.4447708
  60.1956635  69.9669113  13.1797791  59.2201691  69.1203995  13.9689627
  72.5359802   9.7917080  80.2710953  72.9596558   9.0658884  79.8129272
  72.7008820   9.6187363  81.1979828  39.1095276  53.0445747  55.7825432
  39.0945587  52.2070694  56.2457848  40.0288429  53.3107300  55.7985306
  18.8771019  25.8798351  66.8656769  19.5529346  26.3280945  67.3741455
  18.0740719  26.0056877  67.3711853   7.9436126  57.1618042  36.2539215
   7.0183005  57.0113525  36.4472961   8.0575924  56.8367462  35.3608475
   6.9661112  17.4816589  31.5722122   7.6937294  17.9311867  32.0020103
   6.9804125  16.5976925  31.9391327  30.3358631  50.3750801  67.8083191
  30.0092411  51.2480545  67.5904465  31.2794247  50.4274979  67.6560898
  56.1591492  54.4993935  61.9253998  55.8361282  55.4003181  61.9103928
  55.3863182  53.9711609  62.1252327  83.5604095  22.4933834  62.3716087
  83.7444763  21.5927029  62.6382980  82.7180176  22.6962147  62.7783775
  85.3243561  41.8114433  11.5844049  84.8660355  41.6080475  10.7690487
  85.4009018  40.9691658  12.0326710  64.7673569  63.0140762  86.9583435
  64.5917282  63.4813881  87.7750473  64.0948792  62.3338585  86.9222260
  27.5282307  24.4541626  84.4072876  26.7516422  24.6768341  83.8939056
  28.2041664  24.2749825  83.7536545   4.1535320  24.3675308  43.3526039
   4.7826190  23.8440552  42.8561630   3.3017180  23.9902458  43.1328316
  78.7255020  21.1537838  11.3719273  77.9241867  21.5950699  11.6536951
  79.2622070  21.1037712  12.1629267  54.9912415  62.9494553  16.3749905
  54.9387779  63.5384178  15.6222610  55.6795044  63.3240700  16.9247074
  24.0080070  70.2030106   3.1583629  24.5692749  69.9932632   3.9048307
  23.5914860  69.3717651   2.9308414  66.6511841  34.6505089  30.2356625
  67.3961029  35.1842690  29.9592133  65.8936081  35.0637627  29.8214931
  63.9495010  42.5949860  47.9384422  63.0914040  42.1931267  47.8027649
  63.7610817  43.4118271  48.4005013  41.1613960  57.9692764   2.6386430
  40.9893761  57.7978745   1.7127590  40.5451851  58.6635056   2.8722260
  63.7655907   7.8205409  11.8280668  63.6102905   8.7108784  12.1433649
  62.9382858   7.5627284  11.4214573  16.4157467  60.0241241  33.6459274
  15.8743134  59.9285088  34.4294739  17.3013401  59.8096504  33.9391098
  58.9031754  48.5160637  12.2316437  59.4476662  48.5805130  13.0162487
  58.0709076  48.1628914  12.5460234  11.5894146  43.9892426  66.1833191
  11.4094944  43.0889244  66.4540405  12.5420027  44.0277901  66.0977478
  82.0717239  34.8205070  19.3546696  82.7284851  34.7819061  20.0499382
  82.5401077  34.5437469  18.5671101   2.2189469  20.7392292   4.5304766
   2.8410819  20.0639362   4.8009586   1.9884286  20.5061436   3.6311634
  80.9338760  31.4460869  32.1649818  81.3741989  30.5988464  32.2323036
  81.3359833  31.8652115  31.4041424  15.7801561  35.3509521  81.1896133
  15.7974310  35.3960342  80.2336349  16.1162663  36.2003593  81.4755630
   7.5890398  40.8861160  55.1525002   6.9560461  41.4631882  54.7252541
   7.0839896  40.4363785  55.8299141  63.4785309  48.1772385  56.5245171
  63.2448959  47.3893585  56.0337067  62.7420959  48.3155594  57.1201363
  82.5143509  46.2296906  10.5840101  83.2989960  45.6829872  10.6250000
  81.8694687  45.6892662  10.1276045  35.0825615  41.1643677  23.8592262
  35.3464622  40.9584045  24.7559814  34.1398010  40.9995232  23.8431492
  56.7928352  53.2396660  72.6685410  56.1692429  53.1547012  73.3897476
  56.7222061  52.4124527  72.1921310   7.6388688  61.9335022  62.1361389
   7.2740817  62.8094177  62.2623749   7.5113664  61.4972534  62.9785538
  11.7108240  70.9375458  87.8500977  12.0763502  70.0555038  87.7821350
  11.3252048  71.1039352  86.9899521  45.9213829  46.7763519  20.7114716
  45.1714821  46.2914543  20.3668633  45.9898834  47.5453529  20.1456318
  16.1461430  14.2670641  48.3487701  15.9896135  14.3907442  47.4125900
  15.5638218  14.8964787  48.7741737   0.8100709  68.2046432   4.3479118
  -0.1132539  68.3355789   4.5636864   1.2852751  68.6034546   5.0768580
  45.6939240  61.2707710  23.0057716  45.6397934  61.0365562  22.0792484
  45.9294090  60.4540405  23.4459171  54.7586098  49.2111206   3.8673925
  53.8259735  49.4218826   3.9120579  55.0533714  49.6019936   3.0448549
  41.1172256  68.3077850  40.9231224  40.1658592  68.3480988  41.0206451
  41.2937241  67.4021378  40.6684074  84.0298615  71.1361771  48.1974258
  84.5813522  70.4390640  47.8422928  84.3968735  71.9413452  47.8324203
  13.7125740  62.2598267  42.4013176  13.4979610  62.7132607  43.2165298
  12.8698463  61.9474411  42.0719872  63.4305840  12.9944887  10.8306293
  63.2593651  13.4122410  11.6746664  62.5907669  12.6104536  10.5787201
  77.6608124   1.5956339   2.0027885  78.5460205   1.9597731   1.9964778
  77.4783401   1.3937070   1.0850942  66.7746811  34.0178986  38.2200928
  65.9439240  34.3541222  37.8838921  66.5271225  33.4665337  38.9623489
  12.4957294  24.7336693  72.2401657  12.6886683  23.8181973  72.0378876
  12.9981403  25.2323475  71.5958557  83.1941376  11.3398638  41.3359566
  83.5023117  10.7407761  40.6559906  82.9726639  10.7714310  42.0735626
  36.9882164  53.0835075   7.9169502  37.5855942  53.5647125   8.4895020
  37.4090385  52.2328453   7.7924013  73.9181519  28.4505463  47.2644310
  73.3011932  27.7333069  47.4098816  74.2440338  28.6670322  48.1380272
   6.1612716   8.5423269  74.2046890   6.7664733   7.8265524  74.0107040
   5.2923985   8.1659384  74.0646057  64.8577957  38.2294579  33.6882515
  64.6211472  37.4204750  34.1418800  64.7564163  38.9135818  34.3500099
  -0.1143511  36.2925529   3.2992961   0.8389266  36.3241730   3.3798797
  -0.4319381  36.8890762   3.9771829   4.2281642  49.3361511  38.4127045
   3.4751353  49.3707733  37.8228073   4.8580294  48.7719383  37.9641914
  71.0134811  64.4177322  16.8375854  70.9447632  63.9797287  17.6859150
  71.6785583  65.0932846  16.9700069  57.1230659  15.5515881   6.6159267
  56.9412422  15.4438047   5.6823554  58.0613899  15.3813648   6.6984057
  75.2473450  62.9163971  67.3583450  74.3043213  63.0788422  67.3817444
  75.4974060  63.0875092  66.4503708  53.8017845  54.7461739  87.8147125
  53.4575958  55.5307312  88.2416077  54.6929398  54.6605988  88.1534576
  11.4831572   7.4465523  85.3020020  10.7268715   8.0332804  85.2981873
  11.2252769   6.7197185  84.7350388  37.1647072  46.6483269  85.9448090
  36.2085686  46.6609497  85.9880905  37.4285545  46.0563278  86.6491928
  75.7228928  20.1681995  42.5405197  74.9862823  20.4400215  43.0880127
  75.3918762  20.2321644  41.6446571  81.7117538  55.2973099  22.1752300
  81.7563782  56.1180496  21.6846867  82.4421310  54.7776184  21.8395176
  10.6524963  61.8281212  68.8821945  10.1501865  62.0143394  69.6754379
  11.5603781  62.0090446  69.1256104   5.3326979   8.6194201  23.7126007
   4.9087591   9.1267462  23.0204105   4.6557412   8.5138493  24.3810444
  44.3011208  71.0443802  86.2781754  44.2477798  70.4907379  85.4991608
  45.0914764  70.7476044  86.7292709  18.4840736   3.4839129  53.6184044
  19.1446018   3.0250337  54.1374054  18.4894791   3.0350935  52.7729645
  38.6899834   6.2694278  80.6511383  39.6257477   6.0785208  80.5868607
  38.6075592   6.7993455  81.4440002  68.0549164  20.3460293  48.4393921
  68.4926376  19.5186787  48.2390709  68.7352295  20.8854790  48.8423843
  12.2759418  63.2569695  35.2599754  11.8029776  62.5762978  35.7387466
  11.6463852  63.5766373  34.6136742  54.1187668  22.1145878  55.9944649
  53.2739792  21.7044449  56.1797981  54.7583084  21.4139042  56.1219978
  52.4358444   2.3888626  19.7573872  51.5858383   2.2058468  19.3571053
  52.3349991   3.2572351  20.1472473  49.6046791  64.4257965  54.2309303
  49.4916878  65.3152542  53.8957672  49.4830055  63.8641396  53.4654465
   0.7330835  52.7472916  74.3526154   0.2044140  52.0299759  74.0030441
   0.8908175  52.5058517  75.2653351  83.3725662  57.9134064  84.2816772
  83.7084885  58.4974556  83.6017685  82.9610062  57.1962395  83.7994766
  51.9746208   8.1951437   8.1431513  52.6017494   8.4994965   8.7991314
  51.1327629   8.1947289   8.5986805  54.2239914   5.6651702  18.9329567
  54.9694366   5.3465066  19.4418736  54.5365219   5.6708474  18.0282345
  53.0284691  16.3013268   4.0783062  52.9987717  15.6386213   3.3882535
  53.5966759  16.9871082   3.7274888  45.6666946   1.3923515  32.1422844
  45.9948692   0.7326608  31.5312672  45.4905472   0.9061783  32.9477882
  54.8883476  19.2527428  81.7639999  54.0673065  19.5833492  82.1284485
  54.6681137  18.3845768  81.4263382  79.4608231   7.0651307  50.0631371
  78.5061188   7.1323433  50.0475464  79.7250290   7.1957293  49.1524353
  39.7370567  12.1475019  13.3098850  40.2301254  11.3663225  13.5606308
  39.0508041  12.2207298  13.9731579  58.8771782  35.8465996  11.3315849
  59.3806496  35.2955627  10.7323275  57.9664001  35.5927010  11.1824284
  30.0059910  69.3731232  75.2905960  29.4142685  70.0235443  74.9123764
  30.8782921  69.7528229  75.1850052  47.1104546  49.1566124  14.0277643
  46.8047714  48.4003296  14.5285940  46.3534126  49.7411995  13.9906969
  62.9454651  61.9663925   4.9348373  63.1048088  61.3021660   4.2642813
  62.1990662  61.6310806   5.4315114  73.5098343  62.8564148  24.0236244
  72.8484344  62.6627502  23.3593349  73.6308517  63.8045197  23.9718513
  38.3532486  60.4343567   1.4664953  37.4660835  60.2616959   1.1512898
  38.3580132  61.3701324   1.6678357  42.5805702  35.8747940  81.5732040
  41.6599693  35.8157043  81.3177948  42.8261261  36.7788277  81.3765869
  61.7785950  22.5075474  31.1250877  62.5276070  22.2240009  30.6008587
  61.4094849  23.2435551  30.6369457   2.7963994   3.3162341  20.6326599
   2.8644929   2.4216816  20.2989368   1.9904863   3.3185017  21.1491203
  71.8724594  59.0975647  84.4692383  71.5115356  59.7395592  85.0806351
  71.9416809  59.5696373  83.6394272  53.5761528  21.3302269   3.7681217
  53.6480827  20.7358646   4.5149751  53.6407967  20.7605877   3.0015948
  58.6574860  38.9280968  52.7324104  57.8563309  38.4758034  52.9966278
  58.5818405  39.0138016  51.7820625  22.0241947  40.9949570  67.4694977
  21.9382610  40.3769417  66.7436142  21.6605568  41.8133774  67.1315842
   4.3321190  56.3947487  30.8973789   3.6890981  56.9462700  30.4517555
   4.6285667  55.7813873  30.2249660  23.2637043  54.1274757  21.9499969
  22.5608044  53.4999008  21.7817326  23.6188259  53.8671646  22.7999134
  61.7444458   6.5860090  72.2049942  62.2153397   6.6221499  73.0375748
  62.4005508   6.2962265  71.5711288  12.3578415  67.5622482  79.1485596
  12.9465523  68.2997360  79.3090744  12.8805208  66.9457626  78.6357498
  45.8751602  18.1900063  83.5571213  45.6404572  17.4572582  82.9877167
  45.0978127  18.7485256  83.5614395  30.0659428  49.0020103   8.9685459
  29.4834709  49.1009979   8.2154455  29.8041763  49.7013931   9.5673532
  19.4724827  51.4918594  38.1265221  19.6765957  50.5705299  37.9661369
  18.5233326  51.5495071  38.0168762  57.6614838   0.6286330  33.2823448
  56.7427826   0.7244056  33.5334358  57.8008537   1.3062136  32.6207619
   6.9488997  61.8344650  56.2415695   6.6759753  62.6371956  56.6858330
   6.9972639  61.1797714  56.9381828  10.2386713  43.5336723  22.4784527
  10.9938459  42.9455261  22.4734612   9.4837675  42.9551010  22.3707180
  41.5551033   0.7894487  49.5500374  40.9417992   1.5242342  49.5633621
  41.4962616   0.4444810  48.6591034  62.7320595  22.3399849   7.1485047
  62.5202789  21.5893936   7.7034774  62.9482841  21.9561100   6.2987294
  76.5818481  25.5208225  58.4750633  76.9625854  24.6451130  58.5413895
  77.2362366  26.0970478  58.8699989  15.2023487  59.9897308  62.7539978
  14.9366913  60.8146935  63.1603165  14.9714899  59.3202820  63.3980255
  76.6520081  47.8491402  47.5344772  77.5135117  48.2663078  47.5378342
  76.7520447  47.0883751  48.1067162  20.2860203  22.7497520  11.1941185
  19.4400558  22.3369961  11.0203104  20.0759830  23.6708469  11.3480625
  58.7477989  66.8141861  49.0059357  58.1359215  67.3775406  49.4797211
  58.5476265  66.9665298  48.0823822  86.0256653  16.5446358  11.1438112
  86.3677902  17.1624680  10.4976959  85.0932388  16.7525425  11.2037144
  44.1428680  50.5673523  79.6636200  44.3714333  49.6438179  79.5584106
  44.0636215  50.8979149  78.7688065  42.1400833   1.0644087  62.3194771
  41.9772644   1.1584975  61.3809319  43.0940514   1.0510968  62.3969193
  50.7572136  50.5307159  11.8602448  51.3216782  51.3035774  11.8429012
  50.9423637  50.0803566  11.0361528  63.1224594  45.5273819   8.9678879
  64.0723572  45.6422081   8.9950676  62.8540306  45.5339012   9.8866568
  26.4755402  53.6808090  79.9624710  26.1507702  52.8217850  79.6925888
  25.7339058  54.0872154  80.4108505   4.6825833  30.7059708  81.5987320
   4.0112376  31.3660393  81.7714615   4.1939130  29.9413071  81.2942276
  26.1915493   5.1773181  12.5352850  27.0406437   5.3005648  12.9596424
  25.9454594   4.2772789  12.7488298  62.0089378  56.2283745  75.5566711
  62.0287209  55.2799034  75.6841278  62.1587257  56.3471794  74.6187592
  13.8004150  38.9649391  56.3300514  14.3521929  39.5078354  56.8931084
  14.2877903  38.1467018  56.2342072   7.1889343   2.2340024  41.6962395
   7.8022146   2.9679403  41.7343712   7.5974197   1.6115595  41.0946274
  48.7839012   4.1588511  64.4980927  49.1767311   3.3181376  64.7328568
  49.5299225   4.7244163  64.2985535  13.9308052   7.8440251  24.9251938
  13.4390316   7.0752826  25.2140293  14.1224928   8.3226423  25.7316761
  85.7908096  34.3377876  57.6329765  84.8988419  33.9939079  57.6816940
  86.2264557  33.7828331  56.9860878  75.8248901  57.6826439   8.7886763
  75.4930191  57.1930199   9.5412464  75.0397034  58.0180321   8.3559809
  13.4183969  36.6125717  69.8471985  12.5931444  36.1305237  69.9003067
  14.0863752  35.9713364  70.0897980  57.3027382  67.8191986  21.6163502
  57.3374023  68.0717926  20.6937313  56.4316025  68.0899658  21.9062405
  80.8994827  29.1254101  12.6797018  80.0536575  29.4647808  12.3870525
  81.3742905  28.9354973  11.8705540  24.6702404  60.7693253  81.3213882
  23.9888535  60.5570946  80.6835022  25.2388268  59.9993439  81.3296127
  43.7438545  42.0158043  72.7925339  43.2526855  41.9055634  71.9783859
  44.6315460  42.2345009  72.5089798  81.7151260  11.2059946  88.3591232
  81.9128036  10.7676592  87.5314636  81.1787720  10.5766735  88.8413162
   0.7145422  56.0772514  71.0769424   1.1805506  56.8525810  71.3898773
   1.3707360  55.3805618  71.0932770  65.4343033   3.2270465  37.8874435
  65.5025864   4.1616688  37.6923752  64.9422836   3.1888740  38.7076149
  58.1314240   7.5942049  62.9662209  57.9417343   7.9369063  63.8396072
  57.3704071   7.8420582  62.4411888   7.5246191  53.8266029  77.0295029
   7.7031426  53.0388985  76.5158081   7.2156906  53.4972343  77.8734894
  28.0075912  61.1837616  26.8497124  28.3326759  60.4284668  27.3396893
  28.1729813  61.9312363  27.4243088  10.5763474  40.9490814  35.7768288
  10.4912577  40.9357758  36.7301445  10.8093510  41.8541069  35.5697670
  79.6831894  19.9980183   5.7113991  79.0866547  19.5853119   6.3359365
  79.1297226  20.2208138   4.9628868  85.2727356  35.0969009  45.5332832
  85.5714340  34.2050858  45.7112694  85.4361954  35.5713921  46.3483696
   8.6671658   7.0908966  69.4859009   7.8077788   6.8997226  69.1102142
   8.5054035   7.1698108  70.4260254   7.3166199  37.6129723  37.4027596
   6.9941826  37.1658897  38.1853065   7.7965240  36.9384651  36.9221725
  48.9182510   4.0395517  58.1499672  48.5901909   3.4017210  57.5161057
  48.1322060   4.4731593  58.4821548  46.8003082  32.7807579   0.8472480
  47.4221268  33.5010605   0.7436084  46.8427086  32.3064041   0.0169351
  55.4771729  10.4278736  44.8364220  55.0415154   9.5822649  44.9431000
  56.0438538  10.5038834  45.6040993  65.0194092   8.1625309  43.6378899
  64.5116959   8.1100597  42.8281364  64.8349609   7.3392487  44.0900154
  76.2406998  60.3201180  47.3441696  75.8599548  60.3194237  48.2223854
  76.5770340  59.4314842  47.2282333  33.1471634   2.0355449  74.2715225
  32.8039780   1.6954225  73.4452209  33.1336403   1.2838657  74.8639984
  66.6952362  27.5004272  46.2343636  66.2466507  26.7355347  45.8738899
  66.2055435  28.2484608  45.8924980  32.3374023  25.1002712  13.0987625
  33.1401711  24.9818897  13.6064844  32.1205788  24.2222233  12.7853136
  16.3064270  14.8027773   0.6852834  16.5769367  15.2308073  -0.1270264
  15.9156418  13.9762287   0.4018475  10.9072361   8.7098494  10.8525543
  10.8203678   9.5531149  11.2970648  10.6227427   8.8818312   9.9549370
  36.7987251  13.4254980  45.3383560  37.2328644  13.2004709  46.1612282
  36.5219955  14.3344564  45.4543190  56.5687370   0.5066403  73.2418442
  57.1609001  -0.1527932  73.6034088  57.1432877   1.2248133  72.9766083
  69.8790894  64.4348526  12.1898394  70.7894669  64.3608551  11.9035320
  69.5363998  63.5430069  12.1314373  27.6571178  44.8112144  84.3413696
  27.8790779  45.1142654  85.2217789  27.3525219  43.9125252  84.4671021
  65.3849945  53.4137001  50.3921432  65.5630569  53.7868767  49.5288582
  64.5158310  53.7430840  50.6208191  82.0754395  15.7543745  36.8411827
  82.1479340  14.8000298  36.8269196  82.6206284  16.0469322  36.1108322
  85.9920349  21.6239166  31.0560436  85.8276443  22.1860981  31.8131180
  86.3767395  20.8296051  31.4265842   1.7747542  44.6965294  71.8209534
   2.5758767  44.2201996  72.0390015   1.4723736  45.0518646  72.6567383
  86.0821915  11.9597378  48.2041435  86.7484741  11.8971310  47.5197563
  86.2321243  11.1916723  48.7553482  65.9368668  61.9980621  81.4710922
  65.4943085  61.6183701  82.2301712  66.7459564  62.3670044  81.8253326
  24.3490334   7.5717239   8.7095432  25.1510410   7.1597438   9.0309277
  23.7362251   7.5066142   9.4419756  77.4672546  67.5398560  24.3135357
  77.9012909  66.6875610  24.3515511  77.3726044  67.8014984  25.2294044
  74.0132446  59.1683655  53.9479942  73.5252609  59.9233208  54.2768478
  73.3425140  58.5877190  53.5885544   8.4486589  46.1789055  24.5977097
   7.6030011  45.7306976  24.5834732   8.7870054  46.0240211  25.4796181
  47.8405190  17.8169117  17.0987453  47.7864914  18.7548771  17.2818699
  47.5062523  17.7274761  16.2062778  69.2456512  53.9993706  84.7070694
  69.6757660  53.4211235  85.3370438  69.8421097  54.7427254  84.6182327
  49.3414383  39.2034035  74.4069061  49.0849152  39.4812202  73.5275650
  48.9848557  39.8780365  74.9847946  63.8944702  54.8491821  66.2812729
  63.9317131  55.3226547  67.1123352  64.4977570  54.1150360  66.3966293
  55.8869934  46.2364273  77.3765335  55.3154373  45.9597969  78.0927963
  55.7245102  45.5994301  76.6807785  62.2056198  47.7233849  21.9388790
  62.0052376  46.8859634  22.3569756  61.8332100  48.3800735  22.5273552
  45.6905251  58.5861855  69.6411133  45.8196144  57.8861542  69.0011749
  46.5755615  58.8251190  69.9165268  64.5207520  48.2420769   4.7684317
  64.6291962  49.1891670   4.8550296  64.4652328  47.9239731   5.6695194
  63.1109123  48.7642860  18.0031719  63.1826668  49.3825455  18.7303867
  62.8459816  47.9412270  18.4137993  66.5431366  18.7680359   2.8452253
  65.6987762  18.5835781   3.2566385  66.6563492  18.0652924   2.2052529
  19.3912716  25.9546089  77.1521912  19.4744339  26.9077797  77.1242065
  20.0412102  25.6763248  77.7974548  60.7572975  64.6547699  20.3287792
  60.9546509  64.3816910  19.4328384  59.9179268  65.1098633  20.2610664
  69.2170181  37.9894753  16.8993320  70.1068192  37.7483826  16.6417027
  69.2646255  38.1015358  17.8487568  71.4173431   6.0552311   8.4814529
  71.2480087   6.8537359   8.9814034  70.5917053   5.5720735   8.5149345
  59.0211143   3.2507768  85.0232391  58.8274727   2.4077406  84.6133270
  59.1666565   3.0407629  85.9457016  54.2424545  66.5853119  36.2713394
  54.0299492  65.8871918  35.6519012  54.4750061  67.3322830  35.7198143
  57.3452950  16.0002689  77.6744385  58.1553688  15.5381365  77.8899460
  56.8166351  15.9407578  78.4701843  29.5027161  66.3568878  72.2296524
  28.9340630  65.6674347  71.8868408  29.7488613  66.8693085  71.4595413
  31.5473709  29.9299431   5.2952852  30.8083916  30.5161057   5.1323252
  32.3018150  30.5131245   5.3786149  76.4048080  46.0704842   4.9770060
  76.2676086  46.8695030   4.4681125  77.2142181  46.2314148   5.4619684
  31.1878910  27.2878494  77.3741989  30.3688316  27.7049065  77.6414871
  31.7281132  27.2926807  78.1643753  53.4144287  54.8728065  47.4212341
  53.3851395  55.8117485  47.6049957  54.0119438  54.7927933  46.6777229
  22.9617157  68.3309937  21.6104450  22.7500992  69.2176514  21.3184109
  22.1125698  67.9327774  21.8017807  85.0206070  57.4475975  35.6074257
  85.4177628  58.0465927  34.9752083  85.0090179  57.9392700  36.4286156
  77.2390289  69.5040131   5.4111638  77.1044083  69.3275909   6.3422852
  77.6690445  70.3588943   5.3890872  52.6385117  30.0356770  26.6471252
  52.6767464  30.8581543  26.1589642  53.1606750  30.1988506  27.4325886
  81.3783417  45.9921913  13.7730885  81.1833038  46.9252701  13.8600340
  82.1627426  45.9614868  13.2253675  73.2929230  31.6528091  88.2412567
  73.9540100  31.3913555  87.6002960  72.5310745  31.8945293  87.7145767
  79.4846420  49.6217003  11.7871361  78.7929306  50.0293121  12.3083038
  79.8345795  50.3352394  11.2536182  84.0383759  33.8600540  41.4615364
  83.9456406  32.9126663  41.3610954  84.3983383  34.1554756  40.6252441
  56.5726547  44.4183121   4.5911174  56.5935860  43.4639397   4.5206327
  57.1431084  44.7231560   3.8855059  17.5610943  55.6022377  12.6030073
  16.7618046  56.1288071  12.6125202  17.3517761  54.8393860  13.1419659
   2.2907875  60.2903061  63.0533180   2.9502251  60.6721687  62.4740448
   1.5997570  60.9511452  63.0980568  68.1861420   9.8053160  13.0216246
  67.6990509   9.4195995  12.2934790  67.8117294  10.6803532  13.1234102
  81.9083405  40.2385025  37.5145569  82.8094559  40.3714828  37.2203789
  81.4028854  40.1516609  36.7063408  24.9274426  40.0360336  86.0998001
  25.4799633  39.7822342  86.8390884  24.0336285  39.9756470  86.4369736
  64.5388947  45.2574577  80.9866562  65.0252228  44.8359718  80.2780991
  64.1680450  46.0444756  80.5875244  54.2240295  50.6137505  73.8239441
  53.8354301  50.9617500  74.6265182  54.2878304  49.6711693  73.9778900
  10.2917528  53.8109207  13.8861217   9.6773138  54.5034752  14.1291494
  10.2159662  53.7467270  12.9340878  61.6468697  27.7572746  89.1832962
  62.5231705  28.1220722  89.3068085  61.7591743  27.0873890  88.5088577
  30.6601181  56.0084267  14.4951229  30.4475460  56.5614662  15.2469158
  31.5639210  56.2367477  14.2777691  14.5158682  26.6406631  33.1051674
  13.8561220  26.7819214  32.4261894  14.9107609  25.7973213  32.8836632
  62.6658630   5.8220906  49.6556015  62.6866264   6.3902183  50.4256859
  62.4762192   4.9514723  50.0053024  18.3420963  53.3519402  31.6711693
  18.1783638  54.0821762  31.0743656  17.7195473  52.6771317  31.4004307
  80.2043533  61.2147713  48.2856636  80.5352173  60.3911438  47.9273376
  79.5399933  61.4992905  47.6580467  53.3018074  67.4786301   4.3137474
  52.4683151  67.9283066   4.1747766  53.7139626  67.9553986   5.0341992
  69.9626160  19.4101086   2.9247274  70.2113647  18.7348900   2.2935097
  70.4042053  19.1550598   3.7347784  42.2071571  23.2400970  20.1643581
  42.3136406  23.8212547  20.9174500  42.7509155  22.4796295  20.3698959
  63.1216965  23.4813728  85.4881973  62.7573128  23.2379227  86.3391876
  62.5535316  23.0477791  84.8514709  55.9849892  59.9356842  10.1285248
  55.0667686  60.0349960  10.3800039  56.4502983  59.8285980  10.9581347
   9.8265781   7.4098058   0.6447626   9.9642372   8.2326775   1.1139793
   9.5467348   7.6772094  -0.2306887  75.8375015  36.8635674  81.2733841
  76.2132263  37.6432266  80.8644943  75.3967896  37.1927299  82.0567474
  47.1859703   7.9872766  31.3226395  47.1666412   8.2720375  30.4089813
  48.0632401   8.2192507  31.6273022   8.0524988  61.4924698  65.3476639
   7.1055107  61.4790649  65.2088623   8.2037630  62.2646103  65.8927765
  85.0242615  36.1760483  48.2366638  85.1690063  37.1214333  48.2757645
  84.0835342  36.0838127  48.0857849  40.2216415  38.5226135  22.8402729
  39.5919037  37.8905220  22.4936905  39.7407265  38.9899139  23.5233421
  62.1058464  46.6404419  62.7507362  62.6834145  45.8849068  62.8594398
  61.2676468  46.3554840  63.1146774  71.0977707  52.5477905  86.0703354
  71.8722458  52.0165253  86.2551880  70.5571823  52.4645805  86.8558807
   5.7137141  57.6542130  75.8021240   6.3556261  57.3393593  76.4385605
   4.9253788  57.8200912  76.3190842  64.5804520  64.9512329  57.4218102
  64.8773346  64.0499420  57.5473709  65.3528671  65.4857025  57.6060715
  82.5624847  51.5360985  12.6662092  82.3394775  52.1333618  13.3801956
  83.1548080  50.8979683  13.0639248   9.4431801  61.8272820  26.3901920
   9.4324856  61.5339165  25.4791183   9.9911079  62.6121063  26.3826866
  68.0240631  19.8855629  43.9424858  67.2948151  19.2824459  43.7986755
  67.6179581  20.7521305  43.9617424  22.2796803  27.9464130  12.4378719
  21.6287708  28.1854057  13.0977440  23.0900803  27.8270168  12.9330759
   6.9377012  22.4223709  31.5143490   6.3763418  22.9261894  32.1036491
   7.7287216  22.9538212  31.4244671  80.5145721  34.3283119  59.2905273
  79.8634720  33.6315498  59.2079124  80.0263367  35.1337967  59.1200523
  25.4141254  47.8191261  68.8272781  24.9796314  47.0768471  68.4071960
  25.7278671  47.4717941  69.6622391  16.9054565  61.0433922  39.5207253
  17.8372078  61.2550621  39.5778885  16.8101788  60.2410812  40.0340004
  41.4354897  -0.2186942  32.9131393  41.0036507   0.4188941  32.3446083
  41.0447388  -0.0744432  33.7749634  73.8239441  36.1291275   8.2295313
  73.2848663  35.9893227   7.4510150  73.5553284  35.4374428   8.8342228
   0.5155048  61.0155907   8.8957310   0.7163354  61.9267044   9.1096754
  -0.1786093  61.0711823   8.2389612  37.7666550  57.4358978   1.7240322
  36.8673477  57.5678177   1.4239126  38.1591682  58.3084450   1.6953062
   8.9290237  12.2981615   0.1794130   8.4460325  11.9117994   0.9099438
   8.2883911  12.8543911  -0.2637917   8.1843214  54.2096176  39.2973976
   8.3414440  53.5583878  38.6136971   8.2220993  53.7127533  40.1146660
  82.2960510   3.3867052  58.0261497  81.3392334   3.3932416  57.9998817
  82.5393753   2.5290945  57.6775360  49.1253700  63.5454102  67.1387482
  49.5251656  62.9818497  66.4763336  48.7071838  62.9381180  67.7491150
  56.8747444   4.2888942  63.1721268  55.9641495   4.0374551  63.0177650
  56.8282967   5.2086372  63.4331779  55.0694275  62.9033203  75.7886887
  55.8588982  62.4162941  75.5525284  54.3543015  62.4092216  75.3878174
  54.2887650  30.6299744  88.9720535  54.7189217  30.5440044  88.1212845
  54.5199738  29.8273315  89.4395370  44.4338951  66.1105499  63.1934853
  43.7752571  66.7456741  62.9123344  45.1827736  66.2721634  62.6196404
  44.2137527  63.3768387  64.0742493  44.5945282  64.2175980  63.8205490
  43.2684402  63.5255623  64.0519791  34.3281898  57.5655327  52.6834221
  35.1242371  57.4699783  53.2063065  34.5302582  58.2683144  52.0657654
  43.4846992   2.4974210  73.8266296  43.5240288   1.8553635  74.5354614
  42.5707321   2.7814243  73.8111496  56.6262093  50.4844017  23.8234463
  55.6939926  50.2736893  23.7704277  57.0618019  49.7571526  23.3789272
  19.2298431  47.9812813  77.9499664  19.3726463  47.0620270  77.7245636
  20.0106030  48.4311485  77.6270676   6.7297077  54.9922295  53.3954239
   6.7310982  54.1423874  52.9549751   5.8573475  55.0593719  53.7836418
   5.3209543  59.1728859  36.6583481   5.6836138  59.2695541  37.5388947
   5.4572048  58.2501945  36.4431610  47.7523384  53.7381630  85.0428162
  48.5021935  53.1468353  84.9774246  47.3451080  53.7052002  84.1771927
  56.2932167  36.8985138  30.9204426  55.4031792  36.5506439  30.9756737
  56.5633507  37.0110970  31.8318062  71.6982422  38.9867249  80.0973892
  71.5091553  39.7164307  79.5074692  70.9068756  38.8966713  80.6282883
  24.9987621  16.1368656  76.1391754  24.8246670  15.3682241  75.5959320
  25.9147263  16.0428314  76.4007034  10.1645918  22.6873589  30.6534481
   9.7477226  23.0840111  29.8885174  10.3006058  21.7730465  30.4049244
  78.4369736  34.0119247  20.6808681  78.3928375  33.7972832  19.7490902
  79.1889343  33.5164909  21.0054245  63.5899582  56.9733925  73.4550247
  63.7659340  57.8766251  73.1915131  64.4144211  56.5131340  73.2980118
  28.5102272  53.8237686   5.2997303  28.3198891  54.6609116   5.7230449
  27.6528358  53.4152107   5.1805916  57.1084404   1.2268832   5.9164982
  57.3775253   0.4435444   5.4367018  56.8125496   0.8980007   6.7653313
  14.3045931  58.3010063  64.6564941  13.9469919  57.4163589  64.7323151
  14.2640285  58.6527786  65.5457916  43.5733223  56.5229988  80.3975601
  43.2830086  56.3047676  81.2831802  43.3572006  55.7492294  79.8771667
  81.9591217  70.4265823  25.4999619  82.8852081  70.6444168  25.3943863
  81.9446945  69.4725494  25.5764713  15.8311701   4.1651440   9.1166000
  15.4274969   4.9580531   9.4695511  16.6470432   4.4685888   8.7184744
  72.9559326  51.1653519  82.1792984  72.9649124  51.9836845  82.6757660
  72.4614716  50.5572472  82.7287979  41.5760384  48.9115219  71.3725815
  41.5380096  49.7695007  71.7952652  42.0962067  48.3733940  71.9693069
  43.6398544  33.4912605  19.2886715  43.1155205  32.8496704  18.8094330
  44.5416527  33.3088074  19.0246601  18.2090073   2.3759763  88.1086044
  17.8530102   3.2583199  88.2133408  18.8465538   2.4575660  87.3993073
  41.7085304  30.1209621   5.4820509  41.6444283  30.8163586   6.1366844
  41.1434593  29.4244423   5.8164005  71.5337753   6.4615359   3.4721336
  71.6599960   6.9282675   4.2982454  71.5595016   5.5356927   3.7137618
  67.6353836  60.0905838  80.1183701  66.7332230  60.1382294  79.8020401
  67.6076279  59.4456215  80.8251114  78.1726456  67.6417618   3.7492292
  79.1015396  67.8615036   3.8206635  77.7539978  68.1399307   4.4512191
  26.8388577  50.0002365  67.3651733  26.9886208  49.7940788  66.4425201
  26.3397484  49.2548790  67.6991882  25.6258106  56.5138550  31.2856750
  25.8464851  56.9077110  32.1297226  26.4118023  56.0284195  31.0350742
  84.1827011  16.4326916  23.0555267  84.7632751  15.7068949  22.8266430
  84.4686356  17.1540356  22.4950485  62.3431358  60.0474396  73.4129028
  62.9352493  60.6660500  72.9851685  62.8361702  59.7272301  74.1682968
  24.7752151   0.2451811  11.8413830  24.5470638   0.1960025  12.7696934
  25.4345398  -0.4380850  11.7202625   1.7061640  17.0183449  81.4557037
   0.9947358  17.5650101  81.7892609   1.4877925  16.1344738  81.7511978
  68.8923950  28.6216640  40.7900314  68.6464005  27.7917919  41.1987305
  68.7146683  29.2809620  41.4608307  19.0763645  67.3021011  72.5129547
  18.1996918  67.3780823  72.8896561  19.6035137  66.9115295  73.2099533
   6.3129010  30.4601822  12.5233898   5.7634335  30.5734138  13.2989511
   7.1290512  30.9108696  12.7402077  71.7719879   9.1611767  24.2503281
  71.8969345   8.2859516  24.6172104  72.2853622   9.1577539  23.4424477
  64.7769623  44.0458336  87.0913315  64.6407547  43.9672813  88.0355225
  63.8981628  44.1670761  86.7318268   0.3236493  57.3202324  66.5595169
   1.1287819  57.4622192  67.0573502  -0.3762751  57.5905571  67.1538773
  81.3119659  67.0612946   4.8994308  82.1041260  67.2693405   5.3948531
  81.4743195  67.4193954   4.0267105   7.3435297   6.7212663  83.1391373
   7.0329924   7.5639977  82.8080750   7.1389141   6.0994692  82.4407578
  37.7050514  16.2084961   7.4974298  37.2325287  16.3729858   8.3134546
  38.6264496  16.3330288   7.7249193  29.1695442  28.7141151  78.3404694
  29.3917904  28.6489887  79.2692261  28.2483158  28.4579849  78.2961044
  24.5894604  30.3201065  17.6947937  24.2447071  31.1580448  17.3861904
  25.3725300  30.1732922  17.1642494   8.2939463  37.7958755  73.4081039
   8.4221258  38.3182030  72.6162872   7.3435817  37.7213974  73.4946671
  73.5057678  20.5671806  35.3191147  72.8040924  21.1981449  35.1585884
  73.3080368  20.2035236  36.1821823  83.8655243  65.9716873  21.7376118
  83.0125732  65.5977249  21.5165730  83.6583939  66.7815247  22.2039719
  44.7487488  63.1021614  50.3065605  44.7147598  63.9520416  49.8674889
  44.3994293  63.2705498  51.1816902   0.5759646  70.6125793  26.8523369
   0.5807851  71.2992401  27.5191936   1.4949576  70.5139999  26.6034050
   6.0841408  12.3438263  86.3923264   5.5641212  11.7896318  85.8103638
   5.8068981  12.0924892  87.2733536   9.1122360  38.8041573  21.7195110
  10.0370808  38.5593033  21.6888752   8.8992043  38.8190842  22.6525841
  59.7586517   2.5788174   4.5415845  60.2405014   1.7518117   4.5308061
  58.8784485   2.3394105   4.8316798   8.2773046  55.6142807  14.8006306
   8.9402122  56.1453896  15.2418880   7.4436865  55.9457474  15.1344595
  81.6640701  26.5444546  44.9358749  80.7076492  26.5656223  44.9680099
  81.9351425  26.5682316  45.8535843  51.3959770  59.4386787  45.3254280
  50.5360527  59.4556580  44.9053383  52.0182076  59.4677200  44.5986404
  69.3724594  57.2009125  29.8704014  70.2327042  56.8031807  30.0046577
  68.8329086  56.4921074  29.5201035  43.5811081  14.3860664   7.9934807
  44.3659744  13.8941803   8.2348652  43.6172066  15.1750927   8.5341902
  43.6180420  54.4505577  78.0233154  44.4168396  53.9621429  78.2223358
  42.9324722  53.7835884  77.9862061  50.2549477  44.6846161  56.5010529
  50.6317558  43.8297653  56.2925491  49.3087425  44.5443115  56.4658623
  15.8608990  62.4546432  -0.1168862  15.4052277  62.3336372   0.7161518
  15.7176590  63.3751793  -0.3367304  50.9514732  27.8396301  25.1663666
  51.0452003  28.7150040  25.5420933  50.0229301  27.7726994  24.9437523
   0.9391367  13.8424320  36.6294098   1.6451898  13.5462408  36.0549583
   1.3799469  14.3591824  37.3038635  16.6348667  44.3402557   0.0248281
  15.8158922  44.1813393  -0.4444888  16.3916607  44.9308815   0.7377388
  19.6618366  59.9184189  12.9393625  19.6726646  59.9644241  13.8953943
  20.0320587  60.7541161  12.6551485  85.9835510  13.0538692  63.2747002
  85.3122635  12.3989353  63.0832138  85.5321655  13.7120810  63.8031311
  54.0396309  28.6582985  13.3697557  53.7330856  28.5141659  12.4744968
  54.9844666  28.5113239  13.3259802  30.9591675   3.8965712  11.1368113
  31.3145351   3.3829725  11.8621817  30.6462784   4.7036209  11.5454712
  64.7551422  40.1078529  39.5156479  64.2001724  39.3499947  39.6997490
  65.6346207  39.7427406  39.4184799  17.3172073  19.6754704  59.8406792
  18.0392838  20.1710491  59.4543648  16.7765732  19.4183674  59.0937920
  28.9644775  48.9792480  85.9664230  29.5520954  49.6431732  85.6056747
  28.4981194  49.4294090  86.6707687   9.0787497  56.3523521  64.3782730
   8.3170176  56.9310074  64.4122086   9.3055134  56.2008591  65.2958069
  12.6394558  39.7432709  65.9670563  13.2348490  40.0884819  65.3017960
  13.1953859  39.5942345  66.7318802  12.9248877  49.2297935  34.5647545
  12.8701601  48.2851791  34.4200516  13.7361536  49.4921379  34.1297188
  50.9390717  20.0240498   4.8965106  51.8331985  19.8351269   5.1812477
  50.3939209  19.7893181   5.6474733  52.3190498   5.9535661  79.6825867
  52.5411682   5.8174205  78.7615204  51.4694824   5.5258203  79.7898407
  61.7420197   2.9961531  70.2915573  62.4050827   3.5243242  70.7360916
  61.9956055   2.0911376  70.4728622   6.1377888   9.9929743  17.3648033
   5.9317164   9.9030447  18.2952232   6.7356348  10.7393389  17.3229504
  47.4325485  68.9683990  72.5599136  47.9053230  69.1838379  73.3638458
  47.1410065  68.0657272  72.6880951  65.3273926  50.5134811  71.7183151
  64.9541245  51.3717155  71.5174789  65.1679306  49.9927826  70.9311142
  17.3045177   7.7784910  38.9908066  17.3392200   7.6651649  39.9406433
  16.3697205   7.7959399  38.7856750  55.8511696  44.5028915  48.3744354
  56.5240517  43.9184113  48.7234955  56.1577606  44.7227173  47.4947128
  20.3448544  12.8694611  43.3032837  19.8426991  13.0175972  44.1046143
  20.4375858  11.9181919  43.2511482  10.5137959  54.7830734   1.5400594
   9.5876951  54.5969048   1.3854331  10.5112190  55.5217972   2.1487548
  64.4377518  40.3434410  81.9421997  63.8211555  39.6114273  81.9281387
  63.9372253  41.0847893  81.6014557  74.7276611  63.6029587  71.7198181
  73.9362793  63.1925926  72.0684586  74.4171677  64.1429367  70.9930115
  43.7173538  54.4554863  41.9003944  43.8966713  55.2000961  41.3262596
  42.7952003  54.5527802  42.1378822  45.5702667  14.1067419  15.8887234
  44.8428459  14.7058210  16.0566311  45.2151794  13.4653997  15.2732363
  47.2845612   0.5042487  54.8428421  48.0035095   0.4959174  55.4747238
  47.1600342  -0.4157035  54.6095734   9.1366920  62.4653473  41.9163475
   9.8786240  61.8633728  41.8580513   9.4790964  63.2993546  41.5947533
  41.0881615  61.8889771  84.7254333  41.8447952  61.5210876  84.2689285
  40.6285744  62.3967400  84.0567169   3.0983529  42.8550377  82.8365479
   2.2580659  42.7622185  82.3876190   3.0514283  42.2340508  83.5634613
  52.2637138  65.3652649  21.2663879  53.1584435  65.3536224  20.9264584
  51.7204971  65.5656662  20.5041599  62.2622261  70.5542526  62.9320908
  62.8324471  71.2712631  62.6546326  61.8204117  70.8880157  63.7128830
  79.0479965  14.6119709  74.7240448  78.9940186  13.9036102  74.0825272
  78.5154953  14.3098392  75.4598389  70.9544601  34.4615555  15.8028460
  70.2806778  35.1413498  15.8139038  71.2545166  34.4069481  16.7101593
  51.0864563  69.0440063  71.0494843  50.4241142  69.3766785  70.4437866
  50.6396217  68.3514404  71.5362244  58.7324066  38.3199615  14.7995815
  57.9298592  37.8914833  14.5019999  59.3370094  38.2345428  14.0624294
  49.2990417  42.4650650  74.1730957  48.9029350  41.8513947  73.5544357
  50.2418213  42.3515587  74.0526352  59.6981201  27.8615646  84.9352646
  59.1248589  28.2819386  85.5762711  60.5684052  28.2111397  85.1266632
  82.4601898  29.6319313  77.9509964  82.1170502  30.1551666  78.6753616
  81.7895432  29.6953964  77.2709656  44.6553497  67.6267166  36.1297874
  43.8924675  68.1022873  36.4585381  45.4005280  68.1827850  36.3572197
   4.3276730  48.2634659  66.7386703   4.8169174  48.1707954  65.9211807
   4.5307164  47.4679756  67.2308044  22.0686417  18.4439335  81.3955536
  22.4818420  19.2911682  81.5619736  21.9681511  18.4091988  80.4442825
  73.9861221  33.8044128  51.7959137  73.9793091  34.6764030  51.4011803
  73.0680618  33.5334854  51.7940636  66.8699417  44.8375244  84.3270721
  66.6829224  43.9644547  83.9820938  67.1551819  44.6831627  85.2276459
   5.6759896  61.4206543   3.0546339   5.0067406  61.8958778   2.5621908
   5.2016096  61.0314293   3.7892754  60.1611671  51.2805061  47.4896851
  60.9002724  51.1788216  48.0893707  59.9853783  52.2214050  47.4835815
  81.6435318  57.6607132  20.6946278  82.2985001  57.8897552  20.0352459
  81.7244568  58.3440132  21.3600483  83.8404846  29.4755955  71.6394577
  84.7968369  29.4365311  71.6492386  83.5848007  29.3121281  72.5472794
  73.4842758  23.8554935  31.3734665  74.2023773  24.4321537  31.1126537
  73.1982727  24.1972294  32.2206078  70.5491028  16.9252644   1.9193779
  70.0595856  16.3886719   2.5428104  70.1227112  16.7636871   1.0777634
   1.1854839  31.4042912  69.5201492   1.3832880  30.7489414  68.8510971
   2.0405123  31.6556244  69.8694153  41.8179741  70.4240723   9.8789034
  42.7100143  70.7711639   9.8747330  41.6358490  70.2427063  10.8009491
  68.7655869  17.8758125  10.4973345  68.4685364  18.1400223   9.6265965
  68.7946091  16.9197578  10.4606314  83.5340958  22.0459518  29.6411095
  84.3651047  21.8138161  30.0555725  83.2534637  21.2434883  29.2011909
  22.6263275  29.8333092  71.5384216  23.4249744  29.4023685  71.2339783
  21.9163837  29.3393459  71.1282883   5.8745399  28.0272884  14.7678642
   5.1034069  28.0416508  15.3347673   5.8956709  27.1378593  14.4147329
   8.4291534  31.5115891  19.7923431   8.4029808  31.5827160  20.7465382
   7.9070196  32.2516327  19.4825916  27.8557796  56.7524261   4.1208496
  27.3696499  57.1613617   3.4048328  27.9901924  55.8491898   3.8339167
  41.7640266  15.9779129  18.7134857  42.4167595  16.6583424  18.5485954
  41.8584061  15.7760286  19.6443825   2.1943054  51.8875618   4.9175348
   1.4502863  51.9038773   5.5195322   2.8009369  52.5393715   5.2687836
  52.9060326  38.9784393  26.4770069  52.7464409  39.7229691  25.8969727
  52.7905006  38.2101555  25.9178810  69.2157059  42.4977989  21.4200382
  69.0172043  42.1742859  20.5413055  68.5472641  42.1004829  21.9782104
   4.6159701  46.7740211  18.3600006   4.5735130  46.4708290  19.2669201
   3.7077377  46.7550774  18.0583591  81.2907181  10.2580118  45.9877319
  81.6985321  10.7053547  45.2462463  80.8607559   9.4955378  45.6004410
  58.9239922  51.2361221  55.0275993  58.8105278  50.3662682  55.4106331
  58.2821274  51.7829132  55.4806557  63.5836220  29.5594521  69.6053085
  64.4545975  29.7162075  69.2405319  63.4135780  30.3235760  70.1561508
  43.9113846  66.8953094  43.3126564  43.9445000  66.9895554  42.3606834
  44.7675323  67.1998978  43.6134224  85.2903900  25.8882580  72.8336563
  85.8028336  26.0162010  72.0353699  84.7113190  25.1534252  72.6313553
  72.2827759  54.5320549  78.6652374  72.8135071  55.2032700  79.0942230
  72.5565948  53.7117500  79.0755539  54.2144394  24.2206402  67.7094345
  54.8996735  24.4480915  67.0809784  54.0388374  25.0365849  68.1780777
  86.4540176  71.0889282  46.2521935  87.1029739  71.3150024  45.5858727
  86.0449295  71.9235077  46.4810066  63.9616776  14.7882614  78.6086121
  64.6362839  14.4262037  78.0341110  63.7898293  14.0932083  79.2439041
  44.1295929  55.8151054  62.2008095  43.8282356  55.1964302  61.5354843
  45.0736389  55.6667938  62.2557030   1.7030059  42.4761772   3.2849767
   1.2271287  41.8908806   2.6957405   2.6165600  42.2003899   3.2102008
  29.1859703  13.3833742  45.5634842  28.4502125  13.9780817  45.4178314
  29.1859245  13.2291908  46.5081863  17.5218582  12.0702763  33.3571930
  18.2636757  12.1108980  33.9607544  16.8613281  11.5580807  33.8236542
  28.4863987  58.7912865  88.8596268  28.3947697  59.6446228  89.2834854
  29.0438271  58.9598083  88.0999527  52.0165672   8.9812527  13.6181488
  51.3489914   9.4188538  14.1464281  52.7841530   9.5493841  13.6835375
  47.9806099  51.4907036  11.6596060  48.7702599  50.9540405  11.7279921
  47.2872238  50.8693352  11.4374475  73.2553024  69.3912582  29.1980953
  73.2003021  68.9948959  28.3285542  73.0377884  70.3124619  29.0555973
  51.2275543   9.5866041  78.3721390  51.4952927  10.4381371  78.7177353
  50.2708092   9.6122198  78.3868561  32.9902802  18.5524025  10.6865826
  32.1603394  18.9920006  10.8714609  33.2210045  18.8382187   9.8026676
  70.4873810  21.7406216  58.4236641  71.2234573  21.9087639  59.0120087
  70.8364487  21.1340561  57.7706223  79.0370865  66.0640335  16.5478497
  79.6566620  65.4458847  16.9354649  79.3364334  66.1686249  15.6446981
  51.1843224  13.4885550  15.8480892  51.4885254  12.7645159  16.3953171
  50.2332535  13.3841600  15.8197174   8.7571192  70.5699005   1.8517575
   8.7534914  70.2267303   0.9581975   8.3473997  71.4319153   1.7789333
  23.2477818  45.4137192   0.9788427  22.6178513  44.8747444   0.5003844
  22.7081413  45.9806747   1.5298234  31.3611164  15.6230106   9.9739447
  32.1198769  15.5699768  10.5550671  30.6543427  15.9476824  10.5318804
  65.4545898  17.5887585  53.5592194  66.3420639  17.5117092  53.2089462
  64.9770508  16.8592281  53.1642914  39.5259323   6.7634988  49.5189018
  39.1327553   7.6199436  49.3511353  39.6354332   6.7322497  50.4693031
  61.1292458  12.1804609  65.7179871  61.0979385  13.1028690  65.4641876
  60.2934608  12.0245495  66.1577530  86.9962997  40.6386452  50.9067802
  86.5379028  39.7984657  50.9210320  86.5280380  41.1778107  51.5441704
  43.8011589  63.5424080  70.1091385  42.9113541  63.2881699  69.8645096
  44.1121788  64.0661087  69.3707352  58.0164871  70.3180618  74.7797775
  58.2552834  69.3936234  74.7118530  58.3764000  70.5971756  75.6216736
  85.4790192  24.0617657  84.4273148  85.6706619  24.7163887  85.0988617
  86.3157501  23.6223946  84.2754364  27.9193459   6.2872114  84.1162338
  27.7628403   7.2136292  84.2992325  27.1318550   5.9977160  83.6554947
  68.1324997   7.2943521  64.1724091  67.4723053   7.1738214  64.8549423
  67.9021454   6.6528144  63.5004005  47.2302895  23.9285030   0.0830499
  47.6098213  23.2990856  -0.5301552  46.7456322  23.3905621   0.7091168
  31.3129292  12.7007332  86.9863739  30.8071728  12.0189209  87.4286118
  30.8774872  13.5177279  87.2295685  78.4961319  20.3352642  25.3864040
  78.7200928  21.1836700  25.0039349  79.0540085  19.7095051  24.9244118
  53.7550507  58.9127159  82.4406738  53.3694077  59.4695320  83.1170349
  54.6335449  59.2693024  82.3090439  82.8579788  45.6502495  21.7558346
  82.0373993  45.3582039  21.3588657  83.5391083  45.1977997  21.2582569
  81.7707748  61.6898232  72.5960999  81.5886230  62.2270737  71.8251190
  82.0210495  60.8372154  72.2402115  63.3453102  38.8346672  87.0850372
  63.8062439  38.1445160  86.6081085  63.7136803  39.6492462  86.7429886
  42.6179695  50.4647636  54.0723267  43.1423149  50.4638672  53.2715187
  43.2414246  50.2529449  54.7670708  46.7241211   8.9927778  41.0828934
  46.0177498   8.3989258  41.3370743  46.2984886   9.8450012  40.9891739
  12.0210552  60.2132988  57.0052757  11.8178549  60.7668190  56.2512474
  11.9540033  59.3189278  56.6708527  60.3541603  40.2544632  81.4685135
  60.5322723  40.6755638  82.3094559  60.4645653  40.9525261  80.8229523
  81.3676453   8.7300787   7.4406610  81.9775696   8.9277201   8.1514034
  81.7359161   9.1761532   6.6780171  38.5217667   0.6482754  52.3291626
  37.7862740   0.1581489  52.6966553  38.9171181   0.0484586  51.6965866
  84.2017441  62.3904457  63.7747231  84.5277557  61.4911346  63.8091698
  83.7223206  62.4398956  62.9477158  76.6507111  63.6622620  58.4046593
  76.5366211  63.8658562  59.3329697  76.9054031  62.7396660  58.3913345
  71.3333435   1.3512257  30.5872841  71.3757629   1.6393852  31.4990940
  71.2998581   0.3960259  30.6392803  14.1798725  15.6181402  52.7726822
  13.4824610  15.4243298  52.1463547  14.8121977  16.1359406  52.2744026
  79.7690277  38.9241829  15.9413900  79.4976196  39.1983109  16.8174171
  80.1370087  38.0495644  16.0673771  41.8062057  46.7202225   0.5233720
  42.6647491  46.9837379   0.1921718  42.0001335  46.1892815   1.2958512
  49.1614609  41.6907501  17.0588703  48.2523346  41.4371719  17.2183018
  49.1097679  42.6050835  16.7803802  12.5071955  70.1003647  39.9298019
  11.9723339  70.5064240  39.2476921  12.4220781  69.1599655  39.7728271
   1.3888816  62.5086288  71.9167938   0.7050454  62.0650253  71.4149780
   1.1425490  63.4332542  71.8919754   5.2270322  20.3160114  83.3626480
   5.9846253  20.4616451  82.7960129   4.5684533  19.9274559  82.7868652
  62.1456604  45.5992203  17.8056946  62.6798439  45.6194191  18.5997181
  62.0344276  44.6677246  17.6154919   4.0178123  57.2998352  81.2213745
   4.7871838  56.7515297  81.3751907   3.9791131  57.8774986  81.9836273
   6.1466231   2.8509512  47.2109642   6.4073124   2.1102731  47.7583847
   6.9561377   3.3423598  47.0715523   0.4350047  47.0667458  39.6203766
   1.0766442  47.7725945  39.6997871   0.8158977  46.4679680  38.9780197
  42.8916283   5.6406975  33.7259369  43.4592361   5.4465542  34.4718323
  42.6049843   6.5423150  33.8713760  29.5275917  16.9996357  14.4345760
  28.8750248  17.6118393  14.7745695  29.2929783  16.1579781  14.8254728
  14.0808506  25.2735424   3.0174005  13.1922388  25.5044594   3.2881000
  14.2958307  24.4989109   3.5369782  28.0752678   6.1890979  14.1918488
  28.9017849   6.4067950  14.6227913  27.4495964   6.0907116  14.9095440
  14.4016581  49.0025330  11.4550867  13.7240000  49.4534874  10.9514465
  13.9417896  48.6581383  12.2206888  50.6048012  61.3974495  16.6153107
  51.2152519  60.6617889  16.6641617  51.1164474  62.1528702  16.9047756
  66.8077011  63.2393341   4.2011557  67.2727051  62.5109825   3.7894418
  67.3876038  63.5253792   4.9069314  52.6030769  60.3277054  62.8838310
  52.2485275  60.2584991  61.9974136  53.5356369  60.1361847  62.7844124
  73.2976074   2.8466318  42.9855118  72.5863342   2.6934175  42.3635406
  74.0131149   3.1910477  42.4510384  53.8036118  20.7858086  12.0870466
  53.3829880  19.9674091  11.8233614  53.5061874  21.4268303  11.4413986
  23.5480251  66.5291748  40.2725372  22.6355324  66.6809311  40.5186234
  23.8134899  65.7708817  40.7928772  52.9356003  10.3458624   1.4323467
  52.3436623  10.0873346   0.7259433  53.7817688   9.9735756   1.1840869
  21.9501781   8.1977835  48.2834473  22.0833263   9.0527792  48.6926956
  21.0037365   8.0594578  48.3201599  65.0113373  25.5381069  45.0636253
  64.6490860  25.9968510  44.3056297  65.1127167  24.6327991  44.7697334
  75.9140320  57.6748085  21.8653698  75.2872849  57.9594307  22.5305080
  76.1773529  56.7977676  22.1441097  60.0078087  27.2955437  23.5176697
  60.0768356  28.1072063  24.0203323  59.4265671  26.7405167  24.0376072
  76.2808838  44.2164955  54.8879242  76.6970291  44.5280380  54.0841827
  76.9000931  43.5812950  55.2475548  84.2888718  63.5863838  38.2264557
  84.4919968  63.7932472  39.1386948  84.4909210  62.6546211  38.1414413
  53.7392235  33.3514557  23.7213993  54.6346588  33.5189743  24.0152817
  53.2071342  33.4398041  24.5121632  17.9459457  60.0371132  59.1558838
  17.1008282  59.8017960  59.5388107  18.2317638  59.2448311  58.7011032
  39.0742455   0.7754791  69.6246948  38.6957550   1.5971010  69.3117828
  38.4045868   0.1172257  69.4389725  50.5913887  64.9344864   1.2552000
  50.4839211  64.4306717   0.4484448  51.0990028  64.3613205   1.8296934
  78.9828186  31.3708344  78.2077332  79.2137451  30.4848919  77.9284363
  78.9440002  31.3184319  79.1627121  27.9820995  43.6208954  13.1061087
  28.0848618  42.9744186  13.8044910  27.0481472  43.6015282  12.8973284
  74.7690430  32.6872787  28.2314968  73.9659729  32.2852173  28.5626545
  74.6629944  33.6206665  28.4152603  24.2935181  32.8571701  84.9077072
  23.8538628  32.7915077  85.7554245  24.3971901  31.9498997  84.6207581
  20.4301758  62.1088943  25.8581829  21.0123291  61.3836746  25.6314888
  19.5904331  61.8744316  25.4630985   1.2722418  10.7286491  74.7750397
   1.3199401  10.7686882  75.7302094   1.9350221  11.3510857  74.4758301
  75.0486374   0.3752320  64.0624466  74.9281693  -0.0221919  64.9248734
  74.6002274   1.2187532  64.1226883   9.1326904   0.3663714  46.8450966
   8.2229128   0.6505003  46.9334564   9.5615358   1.0796695  46.3723068
  77.8963394  28.8348198  74.6252594  78.6235886  28.6238804  74.0397339
  77.2172852  28.1979103  74.4028473  48.9358292   5.7302594   7.8979468
  48.9304848   4.7936063   8.0951366  49.6344757   6.0865722   8.4467325
  55.5046654  51.8549423  56.3634071  55.0479317  51.0427055  56.1445427
  54.9343872  52.5476952  56.0300789  82.0529022  65.9149704  24.6456738
  82.1884155  66.8470535  24.4751072  82.4792862  65.7612991  25.4887695
  83.1617737   4.5744653  52.3093834  84.0188446   4.5316162  52.7334328
  83.1272278   5.4513631  51.9271660  76.7948227  14.3773880  60.9829865
  77.2097549  13.7312164  60.4115639  75.8622894  14.3165627  60.7758217
  16.1063328  46.1060410  17.0967140  15.6148319  45.9802589  16.2850266
  15.5547018  45.7144051  17.7738838  74.9486465  27.5183926  61.2877769
  75.3032150  27.9531784  62.0633278  75.4898682  26.7358112  61.1834602
  11.5229301  39.9677773   0.2628650  11.1608744  40.5634689  -0.3931037
  12.1612463  40.4972229   0.7408502  62.8872566  43.2078781   0.3420331
  63.1617699  42.2927933   0.2829076  62.9228973  43.4086761   1.2772554
  82.7350311  34.0318260  15.8379326  82.3402557  33.8551559  14.9840145
  83.4768219  34.6051407  15.6448631   2.5038605  22.6354942  58.9097137
   3.2736347  22.4444771  59.4456177   2.7672133  22.4006538  58.0199242
   3.2722754  58.0303345  42.7972755   4.2270532  58.0152359  42.8636360
   3.0913961  57.7866287  41.8894653  84.2450180  38.6057968  44.8086815
  83.4305344  38.4606133  45.2901001  84.3160095  37.8506203  44.2248154
  23.3773937  14.4015093  69.7870560  23.5570011  15.3076334  69.5362320
  22.4292736  14.3102188  69.6923752  29.5928764  56.3197441  46.5036163
  29.6879368  55.6149940  47.1443405  28.9822941  55.9718323  45.8537140
  84.2852249  47.3670120  76.7980728  84.7137756  47.3064384  75.9443130
  84.1446838  48.3046684  76.9295273   1.3484570  43.7258759  57.9509506
   1.2883686  44.4885750  58.5261993   2.2789011  43.5011673  57.9475327
  71.8430252  10.3007059   0.5443419  72.6637421  10.3533058   0.0545536
  71.2816544   9.7377081   0.0113025  61.4934998   6.7915959  40.2098923
  61.6015434   7.7128162  40.4463463  61.0904770   6.3921347  40.9807587
   8.9164057  24.2323856  14.9407759   8.3872814  24.4336033  15.7126379
   9.6443415  24.8526402  14.9810705   2.2156186  30.2251778  86.4801483
   1.3982196  30.6497917  86.2197800   2.5866432  29.8971882  85.6610107
  17.4343643  51.9279633  85.5034256  16.9220638  52.0519638  86.3024292
  17.4222603  52.7842636  85.0758362  16.3829327  16.6473789  11.1981173
  16.7030106  17.4770641  10.8439903  15.8693438  16.2654095  10.4863892
  74.1532135  51.5022049   1.1226543  74.1414185  50.6677551   0.6538444
  73.6083679  51.3507614   1.8949476  82.4076614  52.6485023  40.0362587
  81.6458969  53.1595917  39.7628860  82.1860504  51.7463036  39.8056870
  30.6196785  31.5810204  80.6938171  31.4405766  31.9490929  80.3668823
  30.0454826  32.3385811  80.8061981  42.8381424  61.8388329  80.9510880
  43.7758293  61.8013306  80.7624817  42.4357224  61.2947578  80.2741318
  66.5593414  61.8780937  85.3115845  66.0748367  62.3988457  85.9521332
  66.6288834  61.0110626  85.7111435  41.9180145  14.8786840  70.9492950
  42.4180679  14.8962507  71.7653046  42.4791565  15.3246222  70.3148727
  78.2764359  21.5018101  34.9649925  78.7219925  21.8455372  34.1906776
  77.4023209  21.2667160  34.6537285  48.8207893  21.1784115  81.8824463
  49.2670593  22.0102806  82.0407867  47.8892593  21.3944874  81.9247894
  67.3702469  16.0056534  55.3792915  66.6388397  16.6025524  55.2212334
  67.0362244  15.3833399  56.0253410  77.5942307   1.4841398  29.9005527
  78.5157471   1.7423369  29.9197445  77.4734268   0.9681112  30.6976452
   5.9147015  53.1478424  64.6498489   5.3387618  53.4175911  65.3652191
   5.5214772  52.3411140  64.3169861  36.1631165  58.0956039  10.0492134
  36.1275787  58.9989815  10.3636532  35.3758087  57.9972229   9.5137701
  58.2593880  37.8383369  22.1702824  59.0389748  37.3383827  22.4122009
  58.5282288  38.3454361  21.4042492   4.3871727  53.5030518  40.8062706
   4.7533536  52.6404343  40.6112366   3.6058633  53.3192406  41.3278084
  57.5297127  55.1950874  17.0257645  57.3500061  54.2735176  17.2118950
  56.7710190  55.6624146  17.3753662  84.7220383  42.4885483   2.7766290
  84.2251968  43.1622086   3.2409136  84.7775955  41.7616768   3.3969514
  86.4486542  10.3500156  41.2000389  86.1870193  10.2775574  40.2821465
  85.8824921   9.7303104  41.6601067  56.5384750   3.1171920   1.4432662
  55.9169350   2.7461748   0.8169544  56.2630653   2.7666123   2.2903049
  79.0116196  23.5665531  60.1092567  79.7302170  23.0313644  59.7724800
  79.2319107  24.4588947  59.8419991  48.3693657  46.6399918  87.1335907
  47.5412140  46.9866524  86.8015900  48.8429298  46.3598289  86.3503418
  42.4632950  14.0020638  73.7388458  43.2287750  13.9521818  74.3113708
  41.9123917  13.2681332  74.0110321  64.4869003  23.6826782  11.1332989
  63.8012123  23.6819153  10.4654179  64.8841858  24.5510616  11.0676937
  68.2649231  29.3309612   7.1833873  67.5214844  29.9183578   7.3193903
  68.4710541  28.9992104   8.0572777  16.6492863  63.8332939  38.5686302
  16.3338604  62.9380951  38.6925621  16.4922905  64.2612381  39.4103241
  23.1403427  57.2083817  78.1474304  23.0808067  58.0746155  78.5503235
  23.5772343  56.6676865  78.8054657  20.3945141  18.7681828   3.9014647
  21.0514774  18.7095604   4.5951467  20.8758774  18.5695801   3.0982981
  20.5975456  29.4584541  65.2708359  21.3020229  30.1046734  65.2224197
  20.8652363  28.8643951  65.9720306  58.5972672  70.5751648  52.2426491
  59.4630051  70.1871414  52.3697701  57.9878044  69.8483734  52.3713264
  46.9037590  11.0996695  61.6216812  46.3029823  11.6987772  62.0648232
  46.4498138  10.2569809  61.6281891  79.1416626  44.9076767  55.6867447
  79.1737366  45.8019142  55.3468323  80.0141602  44.5541611  55.5135231
  14.3401194  16.1972294  46.3967400  14.2609024  16.1390629  47.3488808
  15.2834597  16.2169781  46.2356491  61.7980576  15.2541962  49.6422348
  62.4360046  15.0653076  48.9540634  60.9786072  15.4104338  49.1728477
  36.4246826  10.5642414  75.9870605  36.0369415  11.4367771  75.9194336
  36.8767548  10.5677748  76.8307724  40.4626503   4.6519728   4.2988553
  39.5541344   4.3799949   4.1690164  40.6755753   4.3604469   5.1853695
  77.0020370  34.6632385  60.7759132  77.6904984  34.2799911  60.2324333
  76.2615738  34.0639038  60.6823921  13.3651628  11.9943867  83.3388672
  13.5262337  12.8887796  83.6394501  14.2056170  11.7064476  82.9825516
  81.6818466  58.7977371  77.7386246  81.7167892  59.1658707  76.8557434
  82.4731750  58.2635231  77.8068695  80.0054169  38.7481880  52.6342087
  79.6132202  38.8855820  51.7719231  80.0527115  37.7966652  52.7269554
  23.3330898  17.9540730  27.4237995  23.6866093  18.6896610  27.9239674
  22.7087784  17.5381718  28.0183544  38.9351387  59.2039413  62.0606270
  39.7316437  59.4436417  62.5342903  38.2272339  59.6077461  62.5626640
  22.7827644  11.7706671  27.9720783  23.0662098  11.0202179  28.4943008
  23.5955544  12.1528111  27.6410656  54.3907089  60.5267830   6.6077871
  55.2268105  60.7734947   7.0031409  54.4900932  60.7455139   5.6812286
  10.0436010  48.5546532  32.6865845   9.7798481  48.2963409  33.5697289
   9.2729073  48.9920883  32.3247643  31.7964287   7.1132584  46.3480034
  32.2813301   6.9168839  45.5464172  31.5507698   8.0341835  46.2597961
  73.6825027  34.4197273  10.3408222  74.4163666  34.5717049  10.9362822
  73.0205002  33.9890060  10.8816204  19.6191444  55.0387573  19.9132290
  20.4032841  55.5011902  19.6174011  19.1438293  54.8338737  19.1080399
  39.2947845  24.8693790   9.6233072  39.8736420  25.3683796  10.1996336
  38.8503456  25.5337353   9.0966787  80.2027740  59.4705048  35.4043045
  80.1498260  58.5222092  35.5233002  81.1010895  59.6928062  35.6489182
  11.4859524  19.5314217  27.0151939  11.4902554  18.6021652  26.7856426
  11.7407141  19.9786720  26.2081642  63.4693642  47.6216583  72.3415756
  63.8675919  48.4226341  72.6822739  63.4750900  47.7367706  71.3913422
  84.4265671  66.4259109  19.1214676  84.3983078  66.1595230  20.0404186
  84.6740875  67.3501892  19.1475277  69.2781219  44.8411789  57.6244011
  68.7400208  44.1623726  57.2170906  68.7638626  45.6430092  57.5303574
  48.6618652   2.9039891   7.4424138  48.2410622   2.7076976   6.6053801
  47.9698219   3.3012857   7.9710541  69.6511307  70.0473938  43.4443665
  69.3251266  70.2111511  44.3293190  69.3357086  69.1690521  43.2316360
  78.1050568  63.7802658  37.6196251  78.2173920  63.9306641  36.6810112
  78.0209198  62.8302994  37.7015915  46.2506332  43.2952271  29.3754864
  47.0229530  43.8606873  29.3743649  46.6043701  42.4065666  29.3382320
  44.3438644  29.4474182   6.1835003  43.5113373  29.8605671   5.9545007
  44.1471329  28.5110416   6.2104883  56.1224174  18.5550518  49.8106079
  56.7744293  19.1585464  49.4543724  55.8661652  18.0119972  49.0651855
  19.5060978  51.0765038  33.3223305  19.8339863  51.6001358  32.5912132
  20.2906685  50.8342361  33.8142548  35.4254265   5.9314785  38.7789459
  35.6345367   5.9704142  37.8456764  35.6149406   6.8117037  39.1037827
   4.7617555  65.3636169  73.9826431   3.9581754  65.4693832  73.4734192
   5.3999391  65.9249573  73.5423584  75.8939972  25.7226334  41.5872040
  75.7487640  25.3595753  42.4608879  75.7037811  26.6560383  41.6810532
  84.8726425   3.3698435  37.2851257  84.3264160   3.5388336  38.0527954
  84.8948669   2.4156737  37.2123375  72.8573151   4.9257150  72.6873169
  72.4608841   5.3343992  73.4567642  73.4719391   5.5813642  72.3577805
  39.0846024   4.5748005   7.3765359  38.3698082   4.6129408   8.0120287
  39.8792763   4.5670891   7.9100747  62.2445335  42.6274567  76.8475876
  61.3711128  42.3436699  76.5777130  62.8371201  42.1985970  76.2302170
  43.9839630  57.5978508  52.4715004  43.4912262  58.4161530  52.4096336
  44.3751183  57.4876938  51.6048393  10.5370426  19.9378338  29.7711678
   9.9960365  19.3016644  30.2389641  10.4877234  19.6662006  28.8546429
  68.2450333  22.8912487  37.7105522  68.9644470  22.3279533  37.9958267
  68.6329956  23.7643795  37.6525955   2.5721412  25.8171329  45.1098900
   3.1233094  25.2954388  44.5265541   3.1387303  26.0241756  45.8530884
  69.1680222  52.1732216   3.1277623  69.4392166  52.3199615   2.2215872
  69.6030045  51.3584175   3.3789966  46.2966728  41.3529434  25.4997387
  46.9924278  41.0375938  26.0765495  46.4774704  42.2870445  25.3948746
  39.3688240  15.6104527  17.3523731  40.1550865  15.8562403  17.8398285
  39.6944466  15.0839825  16.6222839  67.9414139  21.0396023   8.1804810
  68.4024963  21.8346939   8.4478130  67.0348053  21.3194828   8.0541449
   7.9776406  17.5259457  83.8793335   7.6747994  18.4042492  83.6488953
   8.9044590  17.5217266  83.6401215   3.4393315  21.1010208  21.9997349
   4.1065578  20.8967266  22.6549473   2.6102152  21.0345364  22.4734192
  83.3502960  32.5192375  11.7027149  83.7120667  32.1110306  10.9161253
  83.8655472  33.3178291  11.8167200  30.0990791  47.7977600  11.8047791
  29.6974430  48.6294212  12.0563021  29.9361935  47.7279167  10.8641300
   7.2596450  66.6353531  68.9338379   8.0843115  66.1743927  69.0877075
   7.4559951  67.2471466  68.2243423  32.3547096  60.6460381   6.4950657
  31.4010315  60.5845108   6.5493422  32.6685982  59.8092690   6.8378882
  67.8598709  12.3790684  47.8722839  68.5985641  12.5451956  48.4579163
  67.9832077  12.9954290  47.1503983  73.6391907  68.8458328  75.3718491
  74.1721802  68.0924530  75.6259613  73.2731552  69.1688995  76.1951828
  11.4000244  29.1402760   9.2612267  10.8375893  29.3053360  10.0179653
  10.8587408  29.3698616   8.5058889  64.0994797  16.8393555  63.0273514
  64.2683334  17.6872730  63.4381523  63.8799171  16.2594242  63.7565346
  43.4512825  37.7202263   1.6625826  43.9960289  37.0293541   1.2855191
  42.5688744  37.5301361   1.3440688  13.7343473  49.7569046  87.3654404
  12.9009619  49.3601303  87.6189575  14.3249884  49.0141373  87.2402420
  74.0912552  28.8663311  65.2094040  74.4396210  29.2185555  66.0284348
  74.2371750  29.5619507  64.5682678  65.6297760  10.2996054  83.6137543
  66.0112762   9.8681126  84.3782883  66.2396851  10.1079302  82.9013596
  28.9058189  53.0597878  54.6592674  28.0415478  52.7783813  54.9593925
  28.8039455  53.9941521  54.4781113  26.3751144  36.6201591   0.6755691
  26.3316803  35.8915863   0.0562745  25.5508289  36.5723495   1.1598210
  39.9506187  50.6625557  31.3658428  39.9322662  51.1261063  30.5285759
  39.4896469  51.2432442  31.9712639  74.2556381  31.4800072  16.0089951
  74.4098969  32.2938004  15.5292253  73.3113480  31.3381023  15.9425440
  51.5795822  46.8165741  55.4021034  51.2732964  46.0565834  55.8969040
  50.8125076  47.1055832  54.9078369   2.8299680  35.1046371  85.0556488
   3.2217324  34.3717155  85.5305939   2.3310084  35.5808296  85.7193604
  19.4220581  69.2764206  64.1037674  19.4527130  69.9189606  63.3949432
  20.0263882  69.6178818  64.7628708  41.5808525  22.5044537  35.2783585
  40.6743317  22.7828770  35.1482506  42.0747566  22.9755173  34.6072464
  14.3372831  58.9789925  41.3538704  15.2062683  59.2578163  41.6425781
  13.7486982  59.2699127  42.0504112  46.3566704  39.3040009  20.7691383
  46.7651596  39.2218933  21.6308975  45.8731308  40.1290321  20.8109131
  47.1335106  54.7244911  69.3231354  47.2006073  55.1063423  68.4479675
  46.1963730  54.5746689  69.4478836  20.1620178  70.1007690  38.6873970
  19.2714424  69.8018799  38.5036125  20.7039261  69.3190613  38.5801697
  77.9717178  27.4492760  33.6291847  77.7170715  28.3038673  33.2812500
  78.6143341  27.6495667  34.3097382  43.6366425   4.1559010  59.1813469
  43.3459625   4.2067976  60.0919189  43.0890923   4.7906690  58.7192955
  59.0779953  56.0193634  20.6847324  59.7710762  56.0193901  20.0245285
  58.8837204  56.9456139  20.8280792  17.4518204  29.1775494  71.4177551
  17.6727581  30.0118999  71.0038986  18.2977715  28.7908440  71.6437225
  63.7352448  22.3176365  33.4292336  63.0165939  21.6986389  33.5581322
  63.8304634  22.3795471  32.4787941  85.5984268  55.7607880  48.6747284
  86.2529297  56.1835632  49.2307167  85.4509583  56.3832474  47.9626656
  77.1815948  11.9424086  32.3725815  76.6371689  11.5446129  33.0519829
  78.0452805  12.0266190  32.7765465  38.3416023   2.6790886  32.9968185
  39.0937386   3.2566025  33.1272163  38.0407104   2.4740953  33.8820724
   1.3551522  51.2623062  34.4126244   1.2968626  51.6730499  33.5499992
   0.5058823  50.8376389  34.5335770  77.8247147  11.2734537  17.0800972
  77.9601059  10.4773102  16.5662308  78.6887817  11.4774179  17.4378967
  65.5747757  35.9705238  59.4500656  65.9063721  36.7287025  58.9689865
  65.5163651  36.2694817  60.3575058  63.8931923  50.7220268  16.3311863
  64.2284698  51.3820992  16.9379215  63.9231682  49.9037666  16.8269558
  38.0379333  62.2886238  28.5598660  37.9259109  63.2353134  28.4734707
  37.3708839  61.9149628  27.9839668  41.5569382   1.5608162  80.4972153
  40.9034729   0.8988967  80.7232132  42.3916779   1.0933288  80.5271835
  21.9205742  30.5111942  84.3994141  21.1560593  30.9823780  84.0681458
  22.0143929  29.7626476  83.8102570  22.7509823  67.2722397  70.9012985
  22.5676632  67.5437927  70.0019226  22.3891354  67.9743729  71.4419632
  48.3121414  31.2667542   9.3471060  49.0203972  30.7248478   9.6948729
  48.7438469  31.8587589   8.7311573  61.1397400   3.6032245   9.6654081
  60.5860825   3.0980506   9.0700130  61.1740417   3.0775335  10.4645977
  52.7329292  47.7799835  31.3851357  53.4790115  48.3548508  31.2144852
  53.0381393  47.1895409  32.0739441  70.2356796  68.7274857  72.5879974
  69.6908417  69.2117996  73.2083435  69.6793518  68.0068130  72.2924500
  83.7087936  10.6676235   2.5656149  84.4213257  10.0503817   2.7315798
  84.1198044  11.5299311   2.6267021  31.8026733  65.8811798  17.5620346
  32.5105247  65.6017685  16.9814281  31.5371552  66.7356415  17.2219887
  68.4112625  23.4610176  84.4427185  68.5318756  23.8643131  83.5830460
  67.5365753  23.0740490  84.4051437   0.2109637  64.7634583  75.2212372
   0.8207632  65.1647110  74.6020660  -0.5885407  65.2836685  75.1412277
  19.2412701   1.7238643  32.6097641  19.6919899   0.8881215  32.7306709
  18.5963116   1.7525929  33.3164711  38.0981369  31.7719040  22.6913528
  37.6632538  32.5141602  22.2716312  38.5769806  32.1582298  23.4246292
  77.7541428  59.1874847  87.8133621  77.6924973  58.2349205  87.7422485
  78.4550247  59.4280434  87.2074585  72.1031113  37.7150726  57.7406311
  71.6606522  38.2270813  58.4176178  72.7501526  38.3156471  57.3706551
  64.7488785  12.5726604  71.3836212  65.6265259  12.7466516  71.7237625
  64.2904282  13.4090099  71.4646988  36.2731247  67.3869858  66.9382172
  36.8830109  66.6717300  67.1189957  36.2516975  67.8943253  67.7496262
  73.2364120  69.4596634  58.6777840  72.7619858  69.4936752  59.5084381
  73.9395370  68.8280640  58.8292313  78.8762741  70.1215897  52.1096191
  79.2558289  70.2035522  51.2347145  79.2400284  70.8596954  52.5986099
  25.6593266  15.3357410  19.4113121  26.0225163  15.6632280  18.5884647
  26.0082321  14.4479275  19.4905872  43.4807892  21.3152065  24.4379597
  43.9107094  22.0760498  24.8284969  43.4775162  21.4980125  23.4983845
  10.7451229   8.8887005  54.4957237  10.1057587   9.4932842  54.1189995
  10.7028751   8.1148014  53.9340057  78.2424850   7.2969718  47.0616684
  79.1401367   7.0566745  47.2912560  78.1239014   8.1686115  47.4390450
  74.5281754  15.4019766  34.2790451  74.7434998  16.3170528  34.0987625
  74.7131653  15.2916574  35.2116966  34.0217476  67.5011826  11.1821346
  34.5566673  66.7129974  11.2762127  33.4190063  67.2976303  10.4669399
   0.4466032   8.2631388  58.0273628   0.9789076   7.5530090  58.3859711
   0.8439968   9.0605593  58.3772621   6.7978287  46.0218506  16.8466549
   6.2272844  46.7437019  17.1105518   7.6825452  46.3342171  17.0362206
  69.9727249  34.9627686  22.9099884  69.3886032  34.4480858  22.3530903
  70.7668686  35.0727692  22.3870392   1.4432125  37.6726608  44.0679550
   1.9170648  37.3783646  44.8458252   1.5530063  38.6235428  44.0660973
  56.3428535  16.5915546  30.9230709  55.7392082  16.8500061  31.6195240
  55.8640022  15.9294195  30.4245644  24.4315815  48.1555634  73.0063324
  25.0014744  48.7877731  72.5684204  24.7027512  48.1840439  73.9238815
  62.2438736  62.5162773  14.4940100  63.1089249  62.3296623  14.8588305
  62.3252831  63.3943443  14.1217136  49.1817703  61.3187561   3.0613396
  50.0455055  61.7254677   3.1304712  48.7541504  61.7852669   2.3431907
   0.3954154  40.1368790  14.6242075   0.0943156  40.0791855  15.5309830
  -0.2470720  39.6317749  14.1258974  65.7726898  28.4826088  86.6523590
  66.1085739  28.6546059  87.5320358  65.8010406  27.5296211  86.5672455
   1.4008087  10.4151316  59.6105309   2.3398516  10.4420900  59.4269485
   1.2709209  11.0748320  60.2918205  83.2662888   3.3430846  15.7384615
  83.8993683   3.4066792  16.4535828  82.6121902   4.0130372  15.9373474
  71.7044754  60.2760658  12.0613518  72.0157852  59.4523087  12.4365082
  71.7880096  60.9102478  12.7734375  86.7235641  52.4972000  28.4768600
  86.9115524  52.2546158  27.5701923  86.2454071  53.3236732  28.4094563
  13.2717943   8.5361338  55.1964645  13.4523525   9.3719206  55.6266861
  12.3611898   8.6060772  54.9098701  57.9967766  43.1697693  49.0587387
  58.2334023  43.0483513  48.1392288  58.8228111  43.3839569  49.4923553
  71.6994019   1.3873930  63.1334534  71.6107178   1.3325891  62.1819458
  71.9080658   0.4939811  63.4064064   9.4114199  26.6940441  12.7028990
   9.3280745  26.5785999  13.6494493   8.5367556  26.5087051  12.3610735
  51.4693451  37.4760895  63.2886086  51.7949982  38.1953278  63.8297920
  50.6116753  37.7738571  62.9853401  78.5216446  55.7953339  26.6208916
  78.9177628  55.9569016  25.7646084  78.0084000  54.9963913  26.5004539
  37.5773735  52.8727608  87.1803894  38.4968910  52.8242569  87.4418640
  37.3058624  51.9594383  87.0889816  29.9044495  31.1952267  77.6473465
  29.0213947  31.4465771  77.3766708  29.8156853  30.2889614  77.9423599
  20.8360424   1.4691999  70.6597824  20.4649200   1.4186627  71.5406647
  20.9279556   0.5566400  70.3858871  29.2716427  69.7636566  87.2101135
  29.5761051  70.4130478  87.8440094  29.9681759  69.1075363  87.1860504
  71.7409744  37.6178322  53.8929672  72.0592194  38.4995461  54.0866966
  72.5075455  37.0560646  54.0070419  18.3011494  15.3026133  21.2077007
  18.1623478  15.5110073  20.2838287  17.4557114  15.4755793  21.6218853
  30.3179779  59.1342163  87.0219879  30.7494946  59.9878502  86.9854279
  30.1489182  58.9118996  86.1064377  85.4191589  39.9109344  54.4704781
  84.8887253  39.1336746  54.2951698  86.2082443  39.5720329  54.8932419
   2.3609965  33.0388718  66.2983856   1.5549276  33.2314835  65.8194427
   2.4860659  33.7956886  66.8709335   5.8018813  17.8876419   3.5909111
   5.7683473  18.1937008   2.6845801   6.5651474  17.3107872   3.6208274
  19.3586731  26.1333466   8.1620665  18.8745117  25.4432526   8.6154861
  19.7507572  26.6520348   8.8645372  11.6275091  27.4751358  27.0323391
  12.1598730  28.1208782  26.5677547  12.2584047  26.9664021  27.5416451
  51.6033936  59.5299911  84.2424698  50.6749077  59.6986580  84.0821762
  51.6274948  58.6418037  84.5985260  41.1613693  26.8243027  87.2882233
  40.9451675  26.6813698  86.3667755  42.1100006  26.9519482  87.2946472
  34.3092918  70.5978241  67.7005920  33.3760719  70.4031830  67.7869034
  34.6035080  70.0442810  66.9772186  20.0360374  65.4579163  74.6463928
  20.8663998  65.4673996  74.1703262  19.8486023  64.5291672  74.7825317
   7.7276158  40.4292755  69.0909271   8.2163267  40.8842659  68.4050827
   7.8506198  39.5001411  68.8964539  37.6108818   4.6962614  29.0135803
  37.3068771   4.0009246  28.4302101  37.1841087   5.4877725  28.6855469
  38.9808922   2.4011919  29.9748764  38.9516106   2.0518136  30.8655548
  38.4610634   3.2039230  30.0152645  38.9691696   8.9898043  54.2636070
  39.7781677   8.9290991  53.7556038  39.2617607   9.1308889  55.1640015
   7.2397070  35.6205673  50.1119270   6.5728164  36.0061531  50.6800957
   6.9154220  35.7730103  49.2243309   1.3821832  51.1058578  80.1421890
   1.7318143  50.5169029  79.4735107   1.6657479  51.9773026  79.8657608
  54.5732307  25.3931599  86.5248184  54.9238358  24.7072887  85.9565811
  54.2989006  24.9309807  87.3168793  46.6268387  65.7604980  32.5053711
  46.4270706  64.8390045  32.6702003  45.8679962  66.2346191  32.8453712
  77.6307068  61.5757027  63.3572197  78.4767685  61.1767845  63.5603600
  77.7563400  61.9796143  62.4985542  78.0910263  36.7315941  67.8771515
  77.9893265  35.9262276  67.3699341  78.7239075  36.5068054  68.5591812
  66.4028397  16.3624439  27.5089703  67.0395203  17.0685616  27.6197033
  65.8927612  16.6182041  26.7404385  78.2213211  44.9407005  33.8200912
  78.8089066  44.6231194  33.1344376  78.2694168  44.2734756  34.5047264
  68.8663864  66.0724869  62.5938950  69.1678162  65.7016068  61.7645454
  67.9133377  65.9897385  62.5609436  80.7935562  68.2856598  55.6129723
  81.1997604  69.0049438  55.1293869  80.4438248  68.6961212  56.4038162
  11.8337660   5.1659493  51.0724449  12.1051025   4.5696507  51.7703247
  12.5993805   5.2307053  50.5015945  63.8001595  51.6926498  42.6521416
  63.4866753  52.5786552  42.8336716  63.0544281  51.1282616  42.8560562
  25.7699394  53.6886635  76.0008163  25.3534794  53.8410721  75.1525421
  25.0558681  53.7592468  76.6343384  61.0457420  43.7001305  53.7235184
  60.7537460  42.8457375  53.4057426  61.9895134  43.5996971  53.8477898
   8.3347197   4.1599975  85.3834686   8.1629887   3.4655097  84.7475281
   7.8617449   4.9191775  85.0426331  74.4012985   5.9780927  40.8756828
  74.0441971   6.8437014  41.0742645  73.6320953   5.4136739  40.7982635
   2.8185096  41.7509270  62.8001213   3.5685914  41.1895103  62.6041069
   2.2141001  41.6059189  62.0721817  49.0494804  32.7966576  52.7703590
  49.5304146  32.9371147  51.9547539  49.4430161  32.0100746  53.1480484
  29.9558468  43.2901268  21.4239349  29.1828041  42.7689476  21.6407585
  29.6027565  44.1107407  21.0802078  12.1457548  57.8266563  55.5659866
  12.5794106  57.0024605  55.3448982  11.4661770  57.9260979  54.8992691
  67.9876328  56.5327415  67.0031128  67.2895126  56.9222641  66.4766769
  67.6589355  55.6631203  67.2310410  35.6618004   7.2580481  64.7910461
  34.9201584   6.7542753  65.1263275  35.3635368   7.5881634  63.9435234
  46.9203949  17.9661064  86.0615692  47.6309776  18.6040993  86.1269150
  46.6347237  18.0183563  85.1494904  72.7557526  23.0355949  37.4276314
  73.0627518  23.7785072  37.9473114  73.4955750  22.8179283  36.8606033
  23.0094090  19.8947659  89.2363434  22.5560665  20.2104950  88.4546585
  23.8439865  20.3635006  89.2349396  15.9164038  63.9733429  76.0920563
  15.3287935  64.2188568  76.8066711  16.7751598  64.2945251  76.3670349
  79.4070969   9.0643663  56.1399689  80.1842575   9.2835474  55.6259537
  78.8624268   8.5507870  55.5434799  24.9063759  65.8434906  10.8363819
  24.7796078  66.7575150  10.5819845  24.2647114  65.3590851  10.3169069
  19.6313801  65.1424103  21.1428337  19.8944302  64.5569000  21.8529129
  20.2451248  64.9499893  20.4339428  12.7870598   5.1508760  42.1496964
  13.1486187   4.2695351  42.0561829  12.2060041   5.2526174  41.3958702
  55.8745537  67.0174561  68.7020264  56.2120247  67.7850723  69.1636658
  54.9447670  66.9916687  68.9279938  84.3832932  31.8473225  29.5529366
  83.9512558  31.2685146  30.1810760  84.9557419  32.3969421  30.0881443
   0.1762767  55.1030807  60.5338402   0.2097814  54.9003372  61.4687233
   1.0931894  55.2002907  60.2768326  56.7560692  45.1807976   1.7453289
  57.4133224  45.6692963   1.2497259  56.0504951  45.8105621   1.8929428
  74.5951843   9.6011505  19.9636822  75.0039749   8.7407389  20.0575695
  75.3065796  10.1744452  19.6782284  32.0986977  63.3249817  70.3957443
  31.5304184  63.5407181  69.6563187  31.7109566  63.7874451  71.1387253
  18.4583073  71.0307770  87.7789688  18.0641499  71.8489456  88.0814056
  18.1234398  70.3665619  88.3813934  78.8250961   8.2971659  70.4774857
  78.9759293   9.2315168  70.3344193  79.5718765   7.8673973  70.0605469
  20.6982994  43.6566505  19.0005703  20.4529934  44.5468788  19.2526588
  21.5828133  43.7434959  18.6451511   5.8210959  12.8163233  75.7650604
   6.0135117  11.9931469  76.2140503   6.6595411  13.0865889  75.3906326
  70.3079376  24.3676586  24.5617905  69.7258606  23.6942024  24.9137459
  70.8938293  24.5812016  25.2879868   9.6484404   5.1354704  73.6776962
  10.1039104   5.6929178  74.3085938   9.9867373   4.2561941  73.8469925
  76.2607651  50.7947617  67.6485062  76.4995575  49.9469795  68.0233154
  76.9186935  50.9509888  66.9710388   8.4145842   9.6038446  25.9684696
   7.9811077  10.2969790  25.4705791   8.2463617   8.8068104  25.4658070
  57.4713249   5.3252316   6.7321267  57.5180817   5.9112191   7.4875498
  56.5932198   4.9468307   6.7765174  81.1950073  26.2112236  66.7189713
  82.0149918  26.0415573  66.2552032  80.5345993  25.7279224  66.2224655
  25.3970909   5.3302221  38.2216759  24.6312733   4.8094645  38.4636803
  25.0608997   6.2215891  38.1285553  77.7026520   4.2987833  41.8458748
  77.5192337   3.3989997  41.5757294  78.4257050   4.5752268  41.2828369
  36.2543335  65.1470337  80.3123779  36.3107491  65.3244019  79.3734512
  35.3726120  65.4282913  80.5567017  27.3989887  41.8434372  20.7407608
  26.4515762  41.7451706  20.8355598  27.7467079  40.9634056  20.8852139
  38.8749123  48.4678574  11.0872889  39.5978966  49.0648117  11.2800894
  38.7994537  48.4833488  10.1331930  77.7367783   0.0890819  56.0852318
  76.9495697  -0.0519820  55.5592651  77.4066620   0.3420890  56.9473457
  37.9320107  38.5555496  20.0454578  38.2386703  39.3224792  19.5617142
  37.5192070  38.9165344  20.8300037  55.4527473  53.2782211  23.8007526
  56.0925140  52.5673294  23.7612457  54.6038628  52.8401566  23.7397404
  29.4661579  40.6960449   6.4695144  29.2698555  41.4019165   7.0855036
  29.0048695  40.9425583   5.6678443  61.5339279  27.1306610  52.6099434
  61.3719597  26.8964157  51.6960907  61.3176155  26.3387203  53.1021538
  23.9725037  47.7225838  80.5866089  23.4581890  47.7646866  79.7804260
  24.8818722  47.7831345  80.2940063  38.4034805  32.6845589  12.5450430
  37.7672119  32.3833008  11.8964787  37.8705711  33.0420647  13.2552767
  18.9713669  34.5586853   5.8977938  19.3693275  35.4263496   5.8269706
  18.2533913  34.6745605   6.5201421  31.8374710  47.4129410  81.8301163
  31.2694817  47.8792992  81.2168198  31.2660561  47.1929741  82.5658646
  66.5254059   5.4588785  62.4643326  66.8466949   5.0150170  61.6794815
  65.7201538   5.8923473  62.1816635  30.6084194  19.9815063  28.8193283
  31.3596001  20.5747662  28.8208141  29.8515682  20.5536995  28.6928234
   6.3064356   5.3357019  62.6187744   6.5611911   4.4687576  62.3029594
   6.5189781   5.9259624  61.8958282  40.7944489  16.3474922  10.7336330
  40.1414719  15.7549324  11.1060915  40.6128883  16.3437347   9.7938175
   2.4209895  47.5197144  54.7552795   2.6298060  48.0788116  54.0069237
   3.2684128  47.3354836  55.1604500  68.6597824  26.4308681  73.2084045
  68.8544922  27.2619858  73.6414948  69.5154800  26.0907555  72.9470139
  57.2752304   9.0620842  78.9751282  56.6969566   9.0426855  78.2126007
  58.0773659   8.6322403  78.6784058  10.9565554  62.0164337  82.9356461
  11.5423260  62.7706108  82.8698883  10.6980810  61.9935417  83.8570023
  17.7159462  14.2414322  76.0746155  17.5727158  15.1877651  76.0615768
  17.2173710  13.9341373  76.8317261  72.3072128  56.2528458  64.6638336
  71.9620361  56.2942772  65.5556717  71.6963043  56.7770882  64.1459656
  14.3252020  38.0316124  76.8166122  15.2239389  38.3605919  76.8000031
  13.8728142  38.5364761  76.1408234  11.8912354  65.8535156  36.5929298
  11.8638906  64.9401321  36.3079529  10.9735842  66.1248550  36.6157951
  60.8563690  34.6033478  78.4144058  61.4843445  34.8911018  77.7517776
  60.0690804  35.1183929  78.2379379  76.9466400  64.7000198  46.5203018
  76.4392548  65.4528732  46.8236275  77.0948792  64.1777725  47.3086624
  54.4546967  11.1091566  66.8708496  54.3238335  10.9671421  65.9333267
  54.2354431  12.0310020  67.0063553  34.8205032   0.6499631  45.6244698
  34.1610794  -0.0250222  45.4638939  34.6170959   0.9801457  46.4995918
  79.7566223  44.3152580  31.5412235  80.4169464  43.7096863  31.2043457
  79.8006058  45.0690651  30.9529438  80.6640701  34.9599876  24.1747150
  79.7910233  34.5727615  24.1108456  81.1738815  34.3205528  24.6721554
  36.6746826  49.6719246  70.9352951  36.6407204  49.8657036  71.8720627
  37.5327225  49.2681046  70.8051987  71.8676071  48.5598030  51.7873726
  72.4590454  48.3567924  52.5120926  72.4187927  48.5074730  51.0065498
  18.6135406  57.2802162  23.8399258  17.7534409  56.9049683  24.0287323
  19.2268867  56.5608177  23.9899559  86.3012695  68.0374985  38.3929710
  85.6307526  68.3771515  37.8002815  86.1142273  68.4579163  39.2323151
  49.4779396  14.2472448   2.3309534  48.5458412  14.1142483   2.5034015
  49.5072670  15.0003214   1.7408279  47.1299515  41.8261414  32.3417549
  47.2000313  42.6792336  32.7701797  48.0361176  41.5665436  32.1753159
  60.6505852   3.9354742  68.0206299  60.9977913   3.4825616  68.7891083
  61.1914101   3.6244946  67.2946625  60.2729836  42.1285782  65.5184097
  60.4510994  41.8897285  66.4280548  61.0452347  42.6237602  65.2451859
  72.5901108  54.7568092  31.6132526  72.3392487  54.8183937  30.6915665
  72.7371445  55.6635017  31.8825569  81.3367691  52.9076080  10.5471334
  81.7964172  52.2276764  11.0397301  81.3131409  53.6585236  11.1402588
  30.4992962  18.8511448  87.3944778  30.7162247  18.6039848  88.2934113
  31.3209782  18.7513943  86.9137268  20.8422050  19.4471569  65.4944687
  20.1736240  18.8425808  65.1724091  20.6989594  19.4809418  66.4402847
  84.5328827  16.0344219  42.8446617  84.6435165  16.9848213  42.8175850
  84.9424896  15.7225285  42.0377045   7.8390584  30.6701965  56.9667511
   7.7035742  30.1827908  57.7793465   7.4972687  31.5448399  57.1522522
  76.7300644   6.4877892  86.1434555  77.3102036   6.9549513  86.7446442
  77.0595093   6.7089243  85.2723618  12.9964933  50.5077095  77.7338104
  12.8107843  49.7138443  77.2322922  13.9252844  50.6781616  77.5772095
  85.4206161  24.7029419  41.6561508  85.3443832  24.9897156  40.7461052
  84.5480499  24.8409882  42.0246658  45.9229431  26.4302044   7.6148052
  45.6142654  25.9983978   8.4113569  45.5712929  27.3186111   7.6723204
  52.6532822  51.6675568  47.0859871  52.4236832  51.7107048  48.0142403
  53.5820847  51.8972969  47.0580635  61.2585182  63.8548126  33.1893349
  62.0551682  63.9185333  32.6625290  60.5456238  63.9574203  32.5588722
  34.7783127   0.5394268  10.3019848  34.4812737   1.4196136  10.0711813
  34.0747490   0.1839083  10.8449745  10.6801481  26.0067139  40.5443611
  11.1746273  26.6132793  39.9931793   9.7933912  26.3667374  40.5609741
  86.0899353  11.9574137  73.3299103  85.2259216  11.9487267  73.7417755
  86.6941757  11.7282009  74.0360260  81.1603012  49.4272652  25.9073181
  80.8727264  50.1478424  26.4679451  82.1129990  49.4175911  25.9995041
  60.1549339  56.1001892  58.9566727  60.3422394  55.7093697  59.8101425
  60.1670609  55.3620491  58.3473816  42.5343895  21.7637215   4.9933558
  42.0367546  21.5696545   4.1990452  42.9323730  20.9279270   5.2368512
  73.8794098  20.6636868  25.6114635  74.6796722  20.2409477  25.9230652
  73.2211380  19.9688721  25.6236744  45.0608864   8.8774891  61.3992119
  44.6541023   8.6673012  60.5586319  45.4014778   8.0410128  61.7162933
  61.5769501  30.1084461  11.2472467  61.0017052  30.4742184  11.9192095
  62.2858772  30.7464142  11.1656866   5.9367390  42.4631996  82.5203018
   5.3188467  42.9513474  81.9761047   5.4912133  42.3681030  83.3621368
  14.8821840   8.7284374  14.7023191  14.6393805   8.7692680  13.7773275
  14.0490799   8.7780685  15.1710463  50.4827118  67.5951996  85.9412918
  49.9454269  67.8632812  86.6867371  51.1225853  66.9881973  86.3132324
  62.8297348  14.0121698  85.3640518  62.4669800  14.8958282  85.3024979
  62.1739883  13.5177870  85.8557968   8.2474060  49.2601891  58.3648071
   8.3544617  50.0026474  57.7702255   8.0923939  49.6593323  59.2208939
  47.3939972  64.6936569   4.2506161  46.6642494  65.2358780   4.5501170
  47.0963402  63.7943497   4.3879952  60.5890350   5.1486373   5.3891077
  59.6628265   5.3558192   5.2648425  60.6492882   4.2087889   5.2179751
  50.7621078  51.9184952   3.7733359  50.6282578  52.0887337   4.7057180
  49.9186249  52.1220589   3.3691952  50.3031502  36.0925560   7.1833019
  50.7516060  36.1919289   6.3435140  49.4809761  36.5703278   7.0737834
  10.0157223  45.2683716  35.2458534   9.3829288  45.3723869  34.5352287
  10.4588594  44.4421501  35.0529327   5.6640067   7.9015670  87.6985474
   6.5749278   8.1948538  87.7194824   5.6880980   7.0800757  87.2078323
  77.5436249  35.8150597  76.3086472  77.8948364  34.9780426  76.6124420
  77.8126907  35.8690338  75.3916321  41.0134811   7.3681865  43.5844345
  40.5419655   8.0532055  43.1104546  40.3474884   6.7080803  43.7766418
  24.9860630  66.6737366  32.0478020  24.2546253  66.2675934  31.5827427
  25.4819355  65.9367676  32.4044800  54.3341599  11.2378712   6.4824557
  53.4378052  10.9411440   6.3251781  54.8534546  10.4339170   6.4973483
  63.7671738   1.6130065  20.3123989  62.8970032   1.9332149  20.5501022
  64.3134995   2.3986521  20.2895260  40.3109894  61.4912033  14.2791061
  40.7259674  60.7141342  14.6535273  39.9582367  61.1937637  13.4404612
  81.2810974  68.7058334  82.8288345  80.7317123  68.4377365  83.5653992
  81.8471375  67.9514771  82.6652069  40.0796432  29.3873501  22.3279305
  39.5595551  28.9571323  23.0066452  39.7783012  30.2958527  22.3351040
  39.7894859  12.8364658  26.2265320  39.3901596  12.9347658  27.0908852
  39.0650864  12.9581175  25.6127892   9.0957518  61.9169922  10.2527332
   9.3436003  62.3713150   9.4475050   8.8498125  61.0376205   9.9655924
  85.4418945   4.7484646  33.1065483  84.5703659   5.1429572  33.1390152
  85.2811050   3.8069484  33.1692238  31.3168659  12.0636644  27.7835217
  32.0002213  12.4252968  28.3478584  31.6244907  11.1829624  27.5691319
  19.1415501  45.1697426  66.9793854  19.6230774  44.4194679  66.6308899
  18.6544685  44.8168411  67.7239990  21.2178383  68.9882278  10.4686041
  20.7356014  68.2559204  10.0846739  21.2705975  69.6353073   9.7652311
  73.8375244  40.4516029   9.3963737  73.2605133  41.0848579   9.8233166
  73.2519226  39.7532768   9.1037340  11.5186911   1.7675779  60.9230957
  11.3582716   2.0837696  60.0339851  10.6886253   1.3728620  61.1903458
   2.2089412  54.9742279   0.4451895   1.7740507  54.1323662   0.3096583
   1.5140100  55.5559464   0.7532591  70.9231339  15.7712736  16.3153667
  70.9333801  16.4678860  15.6589689  70.8525467  16.2313328  17.1517830
  54.8063164  11.4763565  74.6772232  54.3961105  11.3909178  75.5378418
  55.7460251  11.4819746  74.8592911  75.1173477   6.4100742  13.0496178
  75.8886948   6.1412277  12.5506439  75.3046951   7.3109636  13.3133030
   7.3982172  17.5984974   8.4311781   7.6359758  16.9180870   9.0610561
   7.1377749  18.3445320   8.9713955  69.6643066   7.2389312  19.6896877
  70.0391083   6.6773758  20.3682232  69.9995880   8.1128550  19.8898697
  53.4695206  48.6396675  15.4667959  54.3114014  49.0895653  15.3956299
  53.6979294  47.7390900  15.6970577   5.0884037   1.6303953  80.7512665
   4.5039253   2.3849502  80.8238220   5.4734249   1.7087260  79.8784180
  34.3324089  62.9775391  38.9605408  35.0338478  62.6628609  38.3902855
  34.4332428  63.9294128  38.9613380   3.6473091   8.7189837  81.8656006
   2.9031897   9.1982946  82.2299881   4.3049583   9.3927679  81.6931381
  56.9073486  32.9939308  85.5687790  57.8019447  32.7221603  85.3636627
  56.9746666  33.9343452  85.7340775  38.2741852  49.2310371   8.5949268
  37.3951073  49.4694977   8.8891897  38.1433983  48.8688927   7.7185841
  67.5196304  41.0266914  28.2193794  66.9686661  40.3865852  27.7688999
  66.8997955  41.6332207  28.6245499  28.0470238  21.1659641  69.3326950
  27.7229195  20.3788261  69.7704163  27.4038582  21.3398647  68.6454315
  86.5877762  22.3062534  24.8034973  86.6331711  22.6020317  25.7127190
  85.6623688  22.1062298  24.6626205  70.3016815  15.7423592  88.5731277
  70.6404800  14.8937731  88.8583527  69.5003815  15.5315189  88.0938568
  61.8186646   8.1842346  61.4765778  61.6061592   8.8996964  62.0758972
  60.9706726   7.8917894  61.1424789  60.0563354   3.5564098  48.2230263
  60.5715866   2.8011661  48.5065002  59.1612206   3.2240343  48.1557236
  67.7889328  67.2583160  42.9003372  67.6397095  66.5949020  42.2266502
  66.9494095  67.3317795  43.3542480  18.5244064   6.4223795  37.1134377
  18.4003544   5.5098772  37.3745575  18.2228603   6.9301763  37.8667259
  75.4872971  25.8799667  10.7168522  76.3251343  25.4269295  10.8117504
  75.4571838  26.4854946  11.4575691   5.7848639  16.1268578  15.2381411
   5.5955110  15.2153196  15.4605694   5.4330535  16.6305542  15.9721394
  84.9631195   7.8738580  24.4305611  85.0097122   8.0497227  23.4908085
  85.3712006   7.0141907  24.5338726  65.3103333  38.0341148  47.8831596
  65.6822815  37.2391090  48.2650681  64.9551239  38.5153084  48.6304932
  68.9279327   0.4384628  64.5040359  69.4450989   1.2066602  64.7462006
  68.7887650   0.5308260  63.5615234  61.9216957  24.7308807  57.3447914
  61.8016319  25.0005169  58.2553482  61.4665680  25.4008160  56.8346138
  51.6807289  54.3962402  80.3190308  51.7005768  55.3031540  80.6245499
  51.3387299  53.9003372  81.0629044  12.5571404  10.9637623  10.1307964
  11.9421034  11.3818722   9.5281811  12.9331369  11.6885347  10.6303587
  57.0003624  30.1413040  27.5655537  57.4508514  29.5928497  28.2078037
  56.3567429  29.5586319  27.1624603   6.9736485  61.5093231  36.1138611
   6.0322886  61.3875122  36.2372932   7.0782132  62.4519119  35.9841499
  68.3092041   1.5741993  66.9088745  68.0220642   1.2209833  66.0668488
  67.5424881   2.0352218  67.2492218  29.6011467  61.3666878  15.9834776
  29.3276653  61.4225540  15.0678797  29.9808407  60.4920044  16.0670929
  54.6573906  49.8855209  36.8487206  54.6197052  49.7654076  35.8998337
  55.0874252  50.7326012  36.9660263  75.7041550  51.9008675  76.4354858
  75.6325226  51.6410713  77.3539658  75.1149521  52.6506004  76.3519821
  63.0605278  62.7431374   8.9977102  63.8056488  62.8270607   8.4027443
  62.3066521  63.0227089   8.4783421  67.0610504  21.5134697  65.9380646
  66.7637558  21.2824745  65.0580139  68.0148087  21.5514965  65.8664017
   5.6866531  14.7309895  33.1025429   5.5205331  13.9867601  32.5239601
   4.8656421  15.2230988  33.1015167  37.8031387   2.5971467  26.3311882
  37.5619011   2.0903425  25.5558262  37.0773087   2.4627206  26.9405613
  48.4753036  60.9989777  19.1248741  49.1912842  61.0310783  18.4903889
  48.4192085  60.0770836  19.3762646  51.3019104  47.2022018  19.1010666
  50.5323143  47.6899414  18.8077049  51.1433563  46.3051643  18.8070984
  57.7713470  71.3586655  63.0988731  57.5803108  70.4396591  63.2863770
  56.9198036  71.7937775  63.1411819  67.0216141  32.4643974  86.7281189
  66.1119537  32.1817970  86.6337891  67.5355301  31.7416534  86.3678894
  68.4495468   2.3986311  31.1978455  68.3951340   2.6645381  30.2799320
  69.3018417   2.7213371  31.4905682  15.3334818  31.9008675  17.3403816
  15.7360802  32.5242958  16.7358284  16.0084572  31.2378273  17.4853611
   7.1306314  66.1864395  23.1171608   7.8725848  66.4282074  23.6714916
   7.1280494  66.8430328  22.4206638  58.1367531  31.2280293  76.7709045
  58.4979019  31.6218834  75.9767456  57.1885071  31.3093700  76.6687088
  17.6687164  22.5837765  86.2369156  18.1904793  21.8704128  85.8693466
  17.9071293  22.6019554  87.1637726  68.0627670  49.8814850  62.3590813
  67.4102249  50.0591660  61.6817017  68.1845856  48.9324760  62.3312454
   1.9004103  15.3515596  55.2691383   2.7200489  15.3916111  55.7619095
   1.4126356  16.1249237  55.5523643  60.9510765   5.0252151  14.9981718
  60.4774246   4.7841034  15.7942553  61.4050751   4.2238321  14.7375879
  54.8042755  57.0426521  86.5350342  54.8404770  56.0932961  86.4182205
  53.9468994  57.2937317  86.1913834  73.8914566  65.4505081  22.8594894
  74.5300140  66.0850601  22.5341778  73.1081772  65.6070251  22.3320351
  63.6811829  23.4847794  28.1978321  62.8013496  23.5740204  27.8315468
  64.2462616  23.9475231  27.5791359  73.7232590   0.7461166  48.1828575
  74.3224182   1.4870570  48.0920296  73.7636948   0.3002827  47.3367920
  61.1811371  70.6671753   2.7702003  60.3304253  70.4979248   2.3653884
  61.6656380  71.1637573   2.1107347  50.6311455  64.6875458  43.4843903
  49.8542366  64.9560852  43.9748268  50.3007622  64.4697495  42.6128159
   5.5738373   0.1221707  18.7885685   5.7949867   0.2674453  17.8686657
   6.0667505   0.7922625  19.2621136  48.9491692   2.1356146  73.1513977
  49.0926094   1.4742312  72.4744720  48.1306992   1.8734187  73.5728226
  29.0858364  67.5549774  17.2109375  29.8678684  67.9328918  16.8086510
  29.2313576  66.6095657  17.1755733   2.5176926  61.0000916  24.2872868
   2.1487467  61.6322327  23.6704330   3.3756413  61.3591042  24.5137100
  22.5429287  59.3108597  85.6155624  22.4947853  60.0872040  85.0577087
  21.9218025  59.4851608  86.3227081  57.1183167  56.7430534  10.0135403
  56.9699707  56.0612106  10.6687632  57.5987701  57.4253502  10.4824371
  27.9868603  48.6014214  14.7376995  28.2228699  48.0831413  15.5070601
  27.6977291  49.4413719  15.0942392  77.9764709  52.5947876  41.2219734
  77.4079285  53.0957489  41.8068047  78.7215271  52.3447685  41.7684288
  45.3679619  16.3365021   3.2223153  44.4973221  16.1470623   3.5720685
  45.2638741  17.1667080   2.7573879   8.8761940  29.8571301  17.6780319
   8.6339874  28.9931240  18.0112896   8.5908461  30.4654274  18.3597813
  63.9888229   6.7923026  32.8787880  64.8216324   6.8598027  32.4117737
  63.7445526   5.8700871  32.8008041  63.1316299   8.8529387  34.7327003
  62.4934921   9.2315683  34.1280098  63.4791565   8.0914965  34.2683067
  47.7418289  61.0238838  12.3351669  46.8538628  61.3593292  12.4585648
  48.0877495  60.9296417  13.2226849  72.5320663  22.8436928  47.5074120
  73.4746628  22.7130356  47.4040871  72.1386261  22.2992020  46.8255310
  48.8578911  67.2940292  37.0310707  49.6702919  66.8041611  37.1585922
  48.2085800  66.6270981  36.8078346  17.4487724  48.4572525  63.4316101
  17.7636566  48.2435112  62.5533218  16.4975376  48.3678589  63.3733597
  23.4425468  61.5487595  57.1931572  24.0408287  62.0993156  57.6983109
  22.5975895  61.6480713  57.6318092  20.6822071  14.7243710   7.4285126
  21.4401226  15.2437077   7.1600285  20.9232388  14.3746195   8.2863054
  40.0167427  27.6978664  81.4428101  39.3101006  27.0579567  81.5288696
  40.2229156  27.9495258  82.3430252  61.0923805  39.3459244  32.4517136
  60.5336800  40.0245056  32.8306732  61.4441376  39.7427216  31.6548138
  13.8302488  62.9349174  59.4092674  14.3600492  63.1252975  60.1834106
  13.3381414  62.1480026  59.6434250  61.6521873  49.7169228  53.6905327
  61.2437744  48.8871498  53.9373322  60.9376183  50.3531952  53.7183266
  59.1656570   3.7399390  35.9100227  59.0496292   4.6513448  35.6414909
  58.3570251   3.5220203  36.3735504   2.5677073  41.9728508  31.0573921
   2.2981248  42.4014969  31.8696842   2.9253101  41.1305656  31.3383064
  78.5037842  22.8388157   3.4375155  78.3240738  22.6514721   4.3588395
  78.5098114  23.7945099   3.3841844  70.1532745  14.9877357  34.9119339
  70.3380585  15.6096869  35.6156845  69.4409409  15.3916197  34.4162636
  76.8758545  41.4028206  17.5477333  77.3259430  42.1832848  17.2244225
  77.3622284  41.1542091  18.3337784  65.4136505  29.3504257  13.7223110
  64.9764175  29.1556225  14.5512323  65.0625992  30.2016029  13.4605989
  23.7528286   4.5873852  27.2874126  23.8651752   5.4427876  27.7020168
  24.2029381   3.9771278  27.8715515  28.1980324  70.8906021  37.2694702
  28.2617397  70.9455719  36.3159752  28.6471977  71.6747208  37.5851250
  83.4800949  27.9721718   8.3278198  84.2053070  28.5559597   8.1053505
  83.4466858  27.3455238   7.6050277  70.0078583  26.2098064  22.6295433
  69.9141693  25.6312008  23.3862934  70.7186508  26.8044167  22.8692207
  46.3979073  16.2993355  70.7379532  45.9421654  16.2876091  71.5796127
  46.1990471  17.1602688  70.3698807  66.3286591  70.0361938  12.2327728
  66.7593689  70.0416641  13.0875769  66.4223557  69.1353149  11.9231253
  82.9454803  53.2535095   7.9420190  82.2979202  53.4980850   8.6031380
  82.9588318  52.2966194   7.9623156  62.6946030  25.3211079   5.3177900
  63.6354065  25.4476948   5.4406576  62.4284363  26.0420513   4.7471523
  45.2651672  17.8996983  22.9135971  44.8157272  18.6974983  22.6347542
  45.9850273  17.8001213  22.2906094  42.8458557  11.1390495  35.2415009
  42.0185776  11.5831833  35.0555344  42.7119865  10.7318592  36.0973663
  79.6832352  43.5168953   7.5992780  79.6837311  44.0187607   6.7841940
  80.4100266  42.9016113   7.5021486  52.3249702  24.4989090  88.6578598
  53.0531960  24.5089264  89.2790070  51.9537201  25.3796501  88.7098160
  28.3498363  31.9736652  23.0085125  28.9560509  31.6918087  22.3234615
  28.3418369  31.2492638  23.6341419  16.2940369  69.0646973  42.2226830
  16.1433411  69.2902145  41.3047180  17.2454376  68.9915161  42.2982712
  54.7178917  11.2323418  56.6870766  55.5368805  11.6250105  56.3849182
  54.9470367  10.3248644  56.8875999  67.6865845  63.1687698  58.9067841
  66.8575821  63.2746925  59.3734474  68.3008575  62.8658829  59.5754814
  74.5141678  15.8104239  53.3256378  74.6457443  15.9193029  54.2674789
  73.5793915  15.9692001  53.1944542  62.7489433  43.9808731  61.7031593
  63.2377472  43.9551353  60.8805771  62.6893692  43.0650558  61.9751205
  40.1331902  69.8219147  75.5634232  39.9613457  68.8804932  75.5843430
  39.8116570  70.1428604  76.4059448  56.3559036  58.6381454  66.9171829
  56.0639038  59.4161606  66.4421463  56.5526505  58.9554596  67.7985687
   2.5130043   7.8798542  65.6380081   2.9203475   8.7199802  65.8489380
   1.6962477   7.8776598  66.1371384  73.9615326  60.4766159  70.3366165
  73.4623566  60.9613838  69.6793060  74.7649765  60.2184715  69.8848724
  73.8874283   7.1719122  87.9978485  74.2928238   6.3345003  88.2228394
  73.0671234   7.1810780  88.4910431  50.1250343  48.8017159  34.8251610
  50.2255745  49.7534676  34.8079071  49.8618584  48.6049347  35.7241859
  48.5359459  67.4013062   6.6728754  47.6014366  67.5706940   6.5535707
  48.9553375  68.2459106   6.5086298   7.3996587  14.3174973  88.4559174
   6.5228167  14.3300915  88.0722275   7.2718773  14.6190653  89.3553391
   5.9349136   1.9928026  60.4247665   5.8229599   2.8915036  60.1148720
   5.5311394   1.4530543  59.7451553  73.7597656  30.1249962   1.8354299
  73.3792572  29.7001400   2.6041555  73.0238876  30.5772228   1.4228741
  47.4179382  58.7852058  49.5176239  48.0486221  58.1360817  49.8292389
  47.4806290  58.7412643  48.5634918   7.8211370  26.1710300  45.7931290
   7.6569600  25.3793488  46.3054962   8.7745237  26.2159233  45.7205315
  42.4029236  10.5924482  63.6901703  42.0634270   9.8606825  64.2054291
  42.8288689  11.1602917  64.3323212  63.4799690  48.4721298  36.3878555
  64.3413315  48.2404404  36.0405807  63.6243858  49.2929764  36.8585892
  10.3263884  35.6286163   9.1037111   9.9484491  36.1673660   9.7987947
   9.6802397  35.6600227   8.3982048  55.9297447  54.3352470  84.9408951
  55.0495834  54.5397224  84.6250839  56.3970833  55.1698227  84.9047318
  26.4458733  56.4088554  73.5747528  26.7134743  55.4947968  73.6702652
  25.7385502  56.3852501  72.9302673  23.5880127  29.3544884  61.2682610
  22.8949718  29.8544617  61.6994858  24.3578129  29.9213238  61.3165855
   3.7048521  25.3401909  25.0637741   3.9648805  25.5391979  25.9632263
   4.3482852  24.6975441  24.7650585  85.1992569   7.5663710  86.0289764
  85.9971542   7.9389997  86.4041367  85.2376556   7.8021202  85.1020584
  29.3726540   2.9869902   9.1420116  29.8402996   3.2453046   9.9362488
  29.6596985   3.6157739   8.4798422  24.0480061  27.1341362  85.8051453
  23.2911263  26.6057549  85.5518188  24.0554180  27.0988083  86.7616653
  56.4686852  13.2842989  76.3870392  57.0711136  13.3875055  77.1236954
  56.8506279  12.5809546  75.8620071  15.1127977  58.8097916  80.7487030
  15.5356274  59.1362000  79.9544067  14.4156313  59.4413376  80.9257355
  34.9049644   4.5460958  78.3264389  33.9504280   4.5978389  78.2772827
  35.2098427   4.9855132  77.5325851  60.3545265  10.3949375  -0.0349452
  60.5144424   9.7956982   0.6941437  59.7982292  11.0800467   0.3357145
  38.7020836  51.7368736  79.3667145  37.9466629  51.8756065  78.7954712
  38.3566666  51.2303963  80.1018372  62.3674049  32.2150650  18.8320847
  62.2319412  31.5072651  18.2020836  63.2385521  32.0508652  19.1931534
  47.8158798  59.4545898   4.4534659  48.1053085  60.1713409   3.8889036
  47.2741966  58.9063416   3.8858120  13.6824713  61.8047066  50.8250046
  14.2082968  62.0866928  50.0765266  14.2177896  62.0204048  51.5886421
  12.6838961  66.2964172  51.3480148  12.0619535  65.6227341  51.6229210
  13.2438431  66.4317322  52.1124611   5.9844899  40.5969505   4.8811436
   5.6144443  40.2289734   5.6835723   6.6754284  41.1860123   5.1841974
  62.1606979  52.9592018  73.5967789  61.7807617  53.0671654  74.4686813
  63.0825081  53.1925049  73.7066269   6.8793020   7.3914022  31.8355293
   6.6957035   7.2774220  30.9030437   7.7133760   7.8604031  31.8598404
  21.0079556  68.5408249  17.9297523  20.6132336  67.7568588  17.5478783
  21.5269146  68.2139816  18.6646614  81.3438568  16.6368313  58.7798615
  81.5580215  15.8158379  58.3367653  80.4633408  16.8522911  58.4724541
   7.2578063  20.0069714  55.3043938   7.3019376  20.5903168  56.0620155
   6.3245025  19.9507961  55.0994072  22.9062614  48.2879677  19.6266403
  22.2335491  48.0519218  18.9879131  23.7267036  47.9958611  19.2294273
   8.4562988  25.0067863   5.0755296   8.8422031  25.3111305   5.8969216
   8.1617737  24.1159229   5.2648745  73.0701828  14.7838078  83.2502899
  72.9921341  14.5380945  84.1721191  72.5952606  14.0993319  82.7789307
  34.2788506  58.4909019  58.3814850  34.3978615  57.8663712  57.6659241
  33.8746490  57.9786034  59.0817757   6.6564927   6.2213421  77.9847565
   7.0924277   6.5214705  77.1871872   6.7801547   5.2721663  77.9826202
  71.8922806  25.0111027  69.8786774  72.1205978  25.9099751  69.6417618
  70.9406128  25.0246258  69.9805450  59.6510277  25.9838638  14.4428825
  60.5629158  26.2641411  14.3645582  59.4499741  25.5836201  13.5969429
  18.0852909   9.1177921  47.1791306  18.3409996   8.3012514  47.6082039
  17.4404621   9.5070267  47.7698250  85.8794556  21.7683525  76.4281540
  85.7249603  21.3340073  77.2670212  86.6619263  22.2999859  76.5742264
  46.1342621  57.0903168  20.4266262  45.8999023  58.0022545  20.2543545
  45.9043617  56.9534531  21.3456726   5.2294464  48.6030884  71.3589020
   4.6819959  48.3098183  70.6305313   5.5208282  49.4780273  71.1023712
  60.4570961   6.3587584  85.2140732  60.9922714   5.5704226  85.1227341
  59.6504822   6.0538487  85.6295776  70.9857712  60.1762238  36.6768723
  70.4357071  60.5034561  37.3886147  71.1497040  59.2605400  36.9024467
  36.0416260  44.8446121  73.8632507  36.8167076  44.3919067  74.1957245
  36.3738365  45.4044228  73.1614761  21.5092506  -0.1165799  64.2626190
  21.6982250  -0.1217743  65.2009659  21.2293262   0.7802983  64.0796356
  74.8815002  27.1207066  54.7464867  75.6082535  26.5088463  54.8634872
  75.2918854  27.9853687  54.7596703  73.5563126  46.0562172  76.1037827
  73.2504044  46.9620819  76.0583954  73.3214874  45.6813049  75.2549362
  29.8501320  54.4023323  60.5855751  29.3593388  54.2040977  61.3831062
  30.1542244  53.5500870  60.2734146  82.4106750  61.5748177  34.0290222
  82.0288391  61.9439240  34.8253822  81.9562302  60.7408562  33.9097748
  50.9724617  30.2623863   8.5918093  51.3223877  31.0399723   9.0267153
  51.7008362  29.9349155   8.0641069  75.4787216  19.5370560  17.7372646
  74.8576965  19.9295082  17.1236382  76.3123932  19.9641762  17.5403233
  82.9124222   8.5853634  42.6443787  82.2146378   9.1545362  42.9689865
  83.4293365   8.3730688  43.4215240  77.4830093  44.9736519  84.4963684
  78.0936508  44.6587715  85.1628494  76.6812820  44.4740715  84.6509094
  58.1396103  25.6865826  53.7911148  57.8382988  26.1509552  54.5720139
  59.0341492  25.4189529  54.0018387  50.3438110  10.6630621  25.8636723
  50.3502464  11.6161861  25.9516697  49.8121605  10.4980059  25.0849972
   5.5917916   1.0470082  43.4103813   6.0260844   1.5953058  42.7569351
   5.7483640   0.1506832  43.1131973  31.7822990   3.4433146  60.8038902
  30.8652058   3.4570374  60.5300636  32.0896416   4.3377876  60.6566124
  76.1310806  25.1337814  65.5179062  75.7468643  25.5863209  64.7670212
  75.7720566  24.2476082  65.4728546  66.9855194  57.0982628  55.4368858
  67.2388458  57.8284569  54.8721962  66.3271637  56.6216774  54.9312630
  44.3823547  55.2506180  26.5487442  44.8673325  54.5223656  26.1605701
  44.9076004  56.0242462  26.3441792  16.0748215  32.8510742  82.3755722
  16.2473812  33.7748680  82.1937561  16.9172745  32.5030441  82.6677704
  46.2095108  24.9353123  13.0397444  47.0414581  24.7633419  13.4807920
  45.5625076  24.9473476  13.7450647   3.0391676  15.7990961  23.1054821
   2.6511071  16.6674252  23.2134037   3.1720757  15.7117815  22.1615849
  18.6815891  16.9292603  41.5980225  18.1058884  16.8566284  40.8367538
  19.3748398  17.5268936  41.3178940  63.4065247   6.1391482  86.6492996
  63.0510979   5.5694556  85.9671326  64.3336945   6.2275672  86.4284592
   4.0121698  68.0873871  74.9680176   3.8344858  68.3330460  75.8759384
   3.1536453  67.8655853  74.6075058  22.9839649  70.4520035  16.8908997
  22.0973225  70.0948715  16.9413910  23.4732475  69.8070297  16.3801727
  78.9833908  17.0378151  26.8037033  78.8912964  16.2551270  27.3469791
  79.3827896  16.7213135  25.9934292  82.6610336  60.0373039  36.4961891
  82.3134689  60.5918770  37.1946754  83.1184921  59.3327141  36.9550095
  44.1390648  63.1335793  23.9455757  44.7654915  63.4694672  24.5866699
  44.5422325  62.3310394  23.6144962  19.8262405  66.5760193   9.7844334
  20.0101013  65.8621292   9.1738634  18.8794918  66.5373077   9.9200869
  50.5861206  36.3671722  20.9006348  51.4815292  36.6512947  21.0843506
  50.4845772  35.5571289  21.4003868  52.9906998  38.0206566  15.8924170
  52.9329071  38.9492073  16.1175499  53.5653305  37.6474609  16.5608139
  11.6643496  24.5663147   4.7773943  11.0003490  25.2528820   4.8403239
  11.2926302  23.8285713   5.2609134  83.5117569   6.2993097  37.8707733
  83.9535522   5.6585975  37.3135109  83.7093048   7.1444445  37.4670982
  42.2784424   4.1368213  40.4633942  41.9659500   3.7764225  39.6335182
  41.4970284   4.5088334  40.8723373  18.8339500   4.0217037  26.0578804
  18.4623604   3.4005606  25.4315147  19.4457092   3.5005088  26.5778217
  39.2217903  54.4156075  71.6423798  38.5296822  54.9563828  71.2618790
  38.7812805  53.6030998  71.8914108  62.8737946  19.3709259  45.7882614
  62.6212502  18.7338448  46.4565277  62.1001472  19.9241219  45.6802025
  20.7394142  57.3224754  67.5521622  21.5600338  57.5733833  67.9762650
  20.5801678  56.4267273  67.8496628  69.7077942  71.2350388  69.9801559
  69.5585861  71.9689865  70.5762253  70.6603470  71.1759491  69.9067383
  70.3778534  70.6567841  23.5733414  70.6243668  71.4750290  24.0045395
  69.4924316  70.8157272  23.2462387  67.2397308  50.5398369  69.2852859
  67.6652527  50.0264397  68.5985641  66.3035660  50.3973160  69.1455917
  26.9334812   4.6512980  55.5197258  26.1239338   4.6154041  55.0102425
  27.4700489   5.3047938  55.0710945  18.8444366  37.2849960  33.7031288
  18.8916397  36.6298866  33.0068321  18.0059452  37.1173172  34.1333046
  66.2759781  62.8822708  44.9811745  65.4873886  62.7152863  45.4973831
  65.9793777  62.8448792  44.0718536  53.5901489   1.1877509  39.8516617
  53.3301010   0.8198892  40.6962204  53.3095474   2.1020069  39.8920212
  64.3921051  65.0555420  27.0706329  64.7091141  65.6489944  26.3897915
  65.1750183  64.5918350  27.3677120  36.8323402  29.1475735  22.2437019
  36.0826149  29.3986435  21.7041550  37.3834686  29.9298477  22.2668209
   0.0539761  56.1800880  54.2491455   0.9609407  56.4000931  54.4618530
  -0.1123190  55.3652878  54.7231445  22.7495766  21.5608349  51.3902168
  23.5424061  21.1161938  51.6901283  22.0319939  21.0444946  51.7572365
   4.1167836  10.0757294  85.9847031   4.7159147   9.6671352  86.6094589
   3.6403992   9.3425817  85.5951080  52.0359154  55.0433998   5.4912419
  52.2292328  54.2210464   5.9413524  52.8575516  55.5333595   5.5241742
  76.3213272  30.6464863  41.0928116  76.9604111  31.3318748  41.2878685
  75.6927948  31.0653915  40.5048561  72.7115707  51.7524071  16.0341854
  72.4346848  52.6272049  16.3067551  72.9531479  51.3127861  16.8494186
  57.1722832  66.7453613  36.0204353  56.2937088  66.4802246  36.2925491
  57.1459961  67.7021866  36.0253220  75.3718414  12.0777092  30.1741066
  76.0984497  11.7674246  30.7144814  74.7677841  12.4841900  30.7954884
  32.7564240  62.9573975   1.3570107  33.7083473  63.0497589   1.3963697
  32.5693932  62.1791191   1.8819226  35.4296570  41.8146286  35.0560493
  35.2019691  42.4741936  35.7113075  35.7446213  42.3201752  34.3067436
  66.1176910  37.9242897  81.9278717  65.9730682  38.8679924  81.9967651
  66.2155457  37.7648773  80.9891281  20.8235168  66.4702988  41.1792908
  19.9590988  66.8808365  41.2009659  20.7175236  65.7195282  40.5950394
  83.5385437  15.1650972  54.3666420  84.3002625  15.2183504  54.9438629
  83.1198349  14.3361406  54.5984802  57.5099449  34.2852936  27.6396351
  56.8850479  33.7441826  28.1222706  57.3287926  35.1786690  27.9316826
  59.2386055  67.0862885  27.0373173  60.0191689  67.5410004  26.7207890
  58.8580399  67.6836090  27.6812191  35.8900261  33.7338600  13.8915710
  35.8627472  33.2341919  13.0755930  35.0050507  33.6582756  14.2484083
  65.6425476  53.6212044  76.4976807  66.1528778  52.9330559  76.9245911
  64.9169846  53.7893066  77.0989532  52.0971527  24.1890469  51.4789581
  52.2105522  25.0515499  51.8782845  52.0295525  23.5884666  52.2212296
  57.4139786   3.7588406  60.5632591  57.1640968   2.8805654  60.8503532
  57.4797592   4.2657132  61.3725700  83.6952591  12.5728121  25.4178219
  84.3919525  12.8799877  24.8377438  83.8353348  11.6280260  25.4809799
  63.3930893  57.1298599  24.7470474  63.6037560  57.6715355  23.9864960
  62.6163101  57.5410690  25.1261978  86.9111023  46.4991989  85.4361420
  86.0763168  46.9603043  85.5182648  86.7494583  45.6399651  85.8257828
  80.3722000  20.3920231  72.1013870  79.8199005  20.3840752  72.8831406
  80.8791809  21.2006359  72.1745148  17.6916580  52.5314217  49.4292412
  18.0256824  51.7148132  49.8004684  16.7539272  52.5156250  49.6206703
   1.9837186  30.4850788  39.4204369   1.3005536  30.7946320  38.8257141
   2.5634429  31.2385178  39.5321579  74.4135208  17.6206741  73.1706085
  74.9909286  18.0963573  73.7677383  74.2269821  18.2451591  72.4695740
  62.8610306  32.2513847  65.2526779  62.5831528  31.3524513  65.0767975
  63.8146057  32.2272415  65.1730118  19.7211552   6.0046296  84.8422928
  19.3600025   6.8383446  84.5410919  20.3994617   6.2506976  85.4712448
  40.8370171   2.7087750  55.2974281  40.8253822   1.8668953  55.7527657
  40.1866798   2.6137044  54.6015396  44.7789040  61.6833458  74.7817078
  44.1426926  61.4416313  74.1086197  45.5827332  61.2316132  74.5247498
  53.6518250  21.3895569  86.6540298  53.7459869  21.6522121  87.5696640
  54.1919746  20.6034260  86.5736008  83.5262756   1.8474087  54.1206741
  83.0418777   2.2482347  53.3989220  82.9426270   1.1642425  54.4506302
  14.3340445  20.2203484  38.5657005  13.7940521  20.1155472  39.3490639
  14.2392683  21.1435299  38.3312149  73.7916794   2.4343905  73.9284668
  73.7663422   3.2062643  73.3629532  72.9486465   2.4417994  74.3817520
  34.1384697  18.6534958  27.2747307  34.3615685  19.2893124  26.5948811
  33.1833572  18.6859646  27.3288898   7.9903250  45.5067596  27.1210461
   8.2000847  44.6251411  27.4292431   7.0357580  45.5571480  27.1709900
  26.4912071   5.4863701  49.1209030  27.1913719   5.5054512  48.4684982
  25.7310162   5.8502622  48.6671181  52.8156624  32.4028511  82.0796738
  52.2009010  31.6893578  82.2506485  53.1959915  32.6015053  82.9353180
  16.4740486  62.5624580  57.0245972  15.7311516  63.1162872  56.7845840
  16.0989151  61.6871338  57.1211052  53.8746109  32.1992416   5.5771651
  53.1583252  32.7560081   5.2719202  53.4488068  31.3825302   5.8377466
  80.8773499  56.1353912  64.4105988  80.3683243  55.3335686  64.2913971
  81.1340866  56.3900833  63.5243416   4.0678525  26.4605064  40.3096809
   3.5334268  27.1261902  40.7426758   4.9653349  26.6667156  40.5709000
  30.1169243  57.3650208  81.7052155  30.1517067  58.3170128  81.6117935
  30.2755222  57.2097855  82.6363373  83.1413116  44.3529282   5.3958149
  83.1456604  43.5500374   5.9169469  84.0604553  44.6170502   5.3551474
  53.7759781  14.4347515  76.1343689  53.8539467  15.1578407  75.5120392
  54.6573944  14.0646811  76.1832047  67.7030029  52.3695793  31.6687374
  68.1582794  52.9170799  31.0290546  66.7805634  52.6068726  31.5737133
  41.9421692  35.8141365  84.0771942  41.1129837  36.2764893  84.1993179
  42.1397591  35.9184761  83.1464386  63.4946136  43.1956100  18.2911186
  64.4134293  42.9311180  18.3365459  63.0556641  42.6495590  18.9433327
  -0.0564926  27.2197094  48.4490471   0.1848564  26.2935486  48.4346352
   0.6023196  27.6302128  49.0091248  65.2116470  31.8225822  57.1725693
  64.3746872  32.0737839  56.7818947  65.1143341  32.0307846  58.1017685
  78.0221558  60.3413811  74.7143097  78.2108917  59.4051094  74.6510086
  77.0871429  60.3842239  74.9146652  85.4713135   4.2676325  53.8843002
  86.0442505   3.8361244  54.5181580  85.2847824   5.1222396  54.2729988
  51.4346695  37.4972687  77.9443436  50.7920761  36.9460297  77.4977493
  51.7351723  36.9656830  78.6814575  66.0973816  28.2816238  24.3175354
  65.9003754  27.7893734  23.5205975  65.2398071  28.4973602  24.6839466
  66.4136124  49.4373817  86.4729767  66.3390884  48.9140205  85.6750031
  65.5083618  49.6012650  86.7373428  56.5568504  61.0999603  65.5496063
  56.8391457  61.6836891  66.2537384  57.3143311  61.0434914  64.9671402
  85.2160568  13.2482986  78.4057541  85.5779190  14.0622549  78.0553818
  84.4393921  13.5219727  78.8937302  75.5737381  58.9515076  33.8857613
  75.8247681  58.2208328  33.3206673  76.3051224  59.5657310  33.8221664
  36.4659691  52.4613800  78.2079620  35.8948860  53.2267876  78.1427917
  35.8851891  51.7519379  78.4829483  81.1854324  63.0794678  23.2701683
  81.9286270  63.6330376  23.0304623  80.9075165  62.6812553  22.4452953
  49.4823112  22.1901245  56.1865196  49.8467216  22.2939720  57.0655251
  49.4933662  23.0729790  55.8168182  59.9886627  23.2277679  16.8313885
  60.7801399  23.7324333  16.6440105  59.4963837  23.7732964  17.4448128
  85.5835114   3.5432682  68.2158966  86.4425583   3.8166502  67.8941422
  85.0099258   4.2862663  68.0283127  56.3123245  19.5779610  79.0073395
  55.8891602  20.2535973  79.5371323  57.2241898  19.5815125  79.2984161
  79.8705215  53.7059059   7.0975947  80.0791931  52.8508797   7.4739141
  79.0356750  53.9469757   7.4990358  41.3779564   1.5885987  22.3177204
  41.9996376   1.6844922  23.0392094  40.9658356   0.7378573  22.4681454
  36.6999931  31.7963352  82.5958786  37.1739807  32.2217331  81.8813171
  37.2736626  31.0814304  82.8716431  59.5825195  15.1848497  53.7969322
  59.5824051  15.8735247  54.4617310  58.9017792  14.5757370  54.0829468
  72.8165588  42.3283882  51.2242508  71.8869019  42.5294914  51.3316269
  73.0357132  41.7939415  51.9875145  22.4447479  30.5243168  76.4027710
  23.2388515  30.6940708  75.8960037  21.7286892  30.7421017  75.8060608
  72.0823059  48.0907440  30.6084938  72.3785706  48.9569702  30.8879719
  72.4157639  48.0000305  29.7158527  12.6618252  32.9680176  53.1440887
  12.5995378  33.3242073  52.2578163  12.4678316  33.7113266  53.7151337
   7.5225830  38.1126251  32.2125015   8.2366877  38.0069923  32.8410912
   7.3150768  39.0466461  32.2404747  23.3812408  65.2786865  62.2686958
  24.3206158  65.2004700  62.4350967  23.3223095  65.5587845  61.3552933
  51.6909485  19.0465775  63.5904732  51.0424194  18.8578014  62.9122353
  52.5220604  18.7564831  63.2145348   5.5516577  14.5625658  37.4243736
   5.7995744  15.2572479  38.0344429   5.8667383  14.8673687  36.5734596
  11.3144398  52.8877945  60.5805740  10.7974930  52.5147552  59.8665466
  12.1708612  52.4677315  60.5010796  46.8680382  28.0639248  10.7883472
  47.7727890  28.3564148  10.8984032  46.6935272  28.1717186   9.8533831
  76.7151566  30.9600105  47.4351654  76.1181107  31.0055370  46.6883698
  77.4531631  30.4380417  47.1203232  50.4708786  35.0544319  27.2648239
  50.6669846  35.1462631  26.3324394  49.7234955  34.4571381  27.2946854
  22.3820362  63.4821320  66.3704147  22.5306816  63.0118637  65.5500565
  23.2133141  63.9220924  66.5483017  25.3937378  37.0357857  12.6625566
  26.2487926  37.2440987  12.2860985  25.0599060  36.3224258  12.1185837
  23.1939220  14.3621559  82.5973587  23.4236794  13.8172712  81.8446655
  22.4503384  14.8846073  82.2967606  13.8898382  52.6034431  31.3549423
  14.3385019  53.4398384  31.4789295  13.4015608  52.4708099  32.1674843
  19.3858261  54.2031784  84.0496979  20.0220032  53.5010147  84.1856308
  19.7114582  54.9280281  84.5833511  69.6025162  56.4671097  18.4517879
  69.7478943  55.6178741  18.8687935  70.3155518  56.5480957  17.8183479
  27.7452240  65.1834030  45.2291527  27.4565029  64.6555862  45.9736481
  28.6917267  65.0459442  45.1908188  58.9024544  16.5738029  30.0533314
  58.0109787  16.8777599  30.2239590  58.8297806  15.6196585  30.0297108
  73.0008240  57.6316833  32.5693283  73.4351578  58.1106682  33.2751312
  72.0668335  57.7199287  32.7593727  31.6184807  33.6315041   4.1879592
  30.7890720  33.2249260   3.9369535  32.2456741  32.9085121   4.1999621
  13.7029533  15.8432961  10.5790424  13.9869738  16.0987015  11.4567280
  12.8729467  15.3875351  10.7190495  18.3968849   8.5205841  19.5925674
  18.3366699   9.0883665  20.3608303  19.1104870   7.9161782  19.7967701
  20.6554184   6.6023421  18.1932545  19.9331245   6.0714211  18.5288849
  20.2489529   7.1771469  17.5447063  62.9837379  35.6681442  57.9335785
  63.4782333  36.0848656  57.2278557  63.4605751  35.9011879  58.7301636
  29.3657398   4.0900087  50.2230492  29.2082119   3.4120262  49.5659676
  29.5130825   4.8871861  49.7140961  30.9850655   9.7105408  58.5451584
  31.7332020  10.1812057  58.1777382  30.2207031  10.1953201  58.2337532
  36.8975945  55.0400658  85.3058777  37.1447487  54.2823524  85.8359833
  36.7566948  54.6831627  84.4289551   1.8322723  16.4792652   2.7805300
   2.5128920  16.5477848   2.1109824   1.0111067  16.5740414   2.2978950
   2.0932395  28.2627144  27.8987083   2.2320616  27.5508480  27.2740421
   1.2869563  28.6861401  27.6040058  64.4455414  60.4478455  52.1118240
  64.7604065  60.0996094  52.9459839  63.6658707  60.9530869  52.3422050
  85.7447891  42.9869614  16.9993553  85.5573578  42.9189377  16.0631542
  85.8815155  42.0828934  17.2825546  46.0286140  19.3819141  70.8445663
  46.2061577  19.8461971  71.6625824  45.2003365  18.9285011  71.0014191
  22.5679626  67.3165131  55.0479546  22.2711449  67.1855087  54.1474152
  22.9320602  66.4696198  55.3057251  66.2113113  42.4836082  65.6113892
  66.6597290  42.9129066  66.3399887  66.2519531  41.5506248  65.8214417
  20.1586208  59.4467087  76.9939423  21.0986862  59.4850044  76.8177490
  19.8159924  60.2699738  76.6459885  11.6740170  60.2608604  88.6438522
  11.7634821  59.4452782  89.1368561  10.7368107  60.4539375  88.6683044
  74.9019089  18.4982338  14.8339539  74.6204453  17.5845356  14.7874212
  74.3207855  18.8951225  15.4827976  60.3249016  18.1064510  78.4502792
  61.2750244  17.9902821  78.4521332  60.0440292  17.7692051  77.5996323
  33.1960640   5.5884790   6.3963237  34.0657272   5.1895537   6.4242082
  32.9506493   5.6924300   7.3156705  21.3208179   2.6276495  64.2239380
  20.9237843   2.9777071  63.4264030  20.7892609   2.9875309  64.9339828
  56.3882256  41.3300667  23.2228165  56.8987770  41.1254463  22.4394245
  55.5555611  40.8766479  23.0912342  62.6149445   3.0428097  50.2941208
  62.6883087   3.0068636  51.2478294  61.9691277   2.3701482  50.0780602
  21.5917587  59.5951080  70.3200760  20.7173843  59.9842644  70.3361969
  22.1552715  60.2554054  70.7234344  63.7851105  68.9411774  46.1359940
  63.4856567  68.0952225  45.8029594  64.5709534  68.7347946  46.6420441
   3.9773388  50.8390465  66.7203369   4.2468452  49.9245186  66.6352463
   3.8180974  51.1264572  65.8213043  49.8295975  71.0917053  61.2909622
  49.4591141  71.4225082  60.4727058  49.8942070  71.8632431  61.8538055
  74.2956696  20.7750206  39.9820747  73.8609009  21.6230831  40.0715065
  75.1545563  20.9837456  39.6146622  73.6522675  32.5803413  84.7023392
  74.1830368  33.3763504  84.7320786  73.2850876  32.5701828  83.8184204
   5.0339675  19.7145653  49.2662354   5.2828741  18.7910099  49.3026085
   5.6253548  20.1464615  49.8826447  67.0610580  65.1066818  13.6049843
  67.6943512  64.5835648  13.1135426  67.5827408  65.8050995  14.0003195
  45.3545418  31.6239376  69.8710556  45.6426773  32.5104790  70.0884399
  44.9574051  31.2965221  70.6780930  77.5159531  25.3978958  76.5242767
  77.1105423  24.5312061  76.4973221  78.2288895  25.3487358  75.8874588
  24.6782265  50.1241112  63.3321266  24.1827621  49.4525566  63.8009109
  24.0883923  50.4152489  62.6367378  36.6789970   2.2028260  78.8826523
  36.2771149   1.3849611  79.1755981  35.9384689   2.7715738  78.6720047
  81.5502090  53.4227600  29.5379047  82.2973709  52.8246689  29.5545330
  81.6742172  53.9823112  30.3045559  42.4772263  16.9198017  12.9197206
  41.8528481  17.1428089  13.6101208  41.9524956  16.9002895  12.1194029
  82.0920258  69.5887375   6.3199196  81.5656052  69.3707428   5.5507693
  82.7452927  70.2084656   5.9952388   5.4294610  46.0222626  73.5914764
   4.6232810  45.5284729  73.4415512   5.9735246  45.8301849  72.8277130
  28.8889256  16.1654205   5.2375369  29.2451630  16.7976360   5.8617411
  27.9884434  16.4549980   5.0908713  60.3914680  32.5164948  22.3511639
  59.5019684  32.4422455  22.0054626  60.7694931  33.2602386  21.8819351
  76.6918716  30.2725716  23.9096909  76.7735138  31.1236496  24.3400764
  76.1581955  30.4464817  23.1343365  27.8899384  53.2245903   9.6564293
  28.7214031  53.5607567   9.9909267  28.1052551  52.3613167   9.3034029
  40.5595436  13.9568863   3.2034595  40.7887917  14.7737179   2.7602189
  40.2632179  14.2304392   4.0715551  66.8069153  22.2632732  81.3713531
  66.5096741  22.1108284  80.4743347  67.5815201  21.7087040  81.4645004
  84.3245163  57.2837029  26.6861153  85.2010651  57.2857704  26.3015366
  83.8059311  56.7354126  26.0973225  48.1102333  56.3370171  39.1414871
  48.9622421  56.6829033  39.4073410  47.5222321  56.5704842  39.8598022
  31.9186363   1.6349089  57.9874611  31.7258511   1.6169523  58.9248734
  32.0498428   0.7163734  57.7522812  40.6570244  44.7603683   5.4607697
  41.5485802  44.9720497   5.7374430  40.1066856  45.0381546   6.1930237
  71.0692368  24.8245773   2.5562403  70.9626083  23.9147263   2.2786934
  70.5528030  25.3288517   1.9275672  51.6862717  51.7777596  33.5954399
  51.4230194  51.6577873  32.6830063  50.8616409  51.8721542  34.0722122
  47.8624611  21.0314922   5.9047480  47.2155571  21.3964157   6.5085506
  48.5554123  20.6932621   6.4718895  36.4724770  63.4248047  24.0970993
  35.9627914  62.7262383  23.6866646  36.8836670  63.8834457  23.3644333
  64.4759521  12.5944777  63.3881912  64.4490051  11.6379356  63.4112625
  64.7152328  12.8489084  64.2793961   8.9431009   6.6798296  56.4531517
   8.1018600   6.3237028  56.7390213   9.1225567   6.2348299  55.6249008
  43.3046494  40.7803955  22.5929031  42.8812141  41.6363945  22.6576939
  43.2183800  40.5397110  21.6704807   6.9861197  35.4525986  31.6702461
   6.2850008  35.0777206  32.2032852   7.2739282  36.2227821  32.1603661
  22.0823631  62.4324608  32.8849335  21.1655197  62.1720352  32.7965584
  22.2634296  62.3573990  33.8218498  78.9428101  37.7256660  30.5862064
  78.1904755  38.2257423  30.9026756  78.7875061  37.6281013  29.6467419
  19.5232315  56.0057182  36.7418404  19.5901947  55.4076500  37.4861946
  19.9186573  55.5268097  36.0134773  67.6910934  31.8655548  10.9738550
  68.4691925  31.5507050  11.4339151  67.7338333  32.8183289  11.0552893
  30.9477577   1.7968578  76.8228760  30.3364868   2.3956139  76.3938370
  30.6563892   1.7695342  77.7342377  18.0463066  37.7995720   5.9114451
  18.9501038  37.6044769   5.6638150  17.5283871  37.1169891   5.4847426
  76.0436554   0.8945494  53.7434807  75.4126740   0.2639191  54.0904579
  76.1066666   0.6826310  52.8121643  75.6025467  23.9565449   7.8877821
  74.7105942  23.6219196   7.7946534  75.5201492  24.9000034   7.7487531
  24.6461029   8.0709467   3.8537776  25.5139351   8.4383116   4.0215354
  24.0415783   8.6838560   4.2722554  11.1351557  25.2920246  80.0398941
  11.0005207  25.4461403  80.9749603  11.1469679  26.1671085  79.6521835
  55.3440170  49.3089485  55.4005966  56.2799416  49.1201363  55.4686394
  54.9637146  48.5080490  55.0398216  24.7371845  41.6304817  77.8400192
  24.4282112  41.2434273  78.6591339  24.3363380  41.0945358  77.1556854
  16.6100121  20.0189571  40.3129120  17.0329037  19.1732426  40.1640511
  15.8927078  20.0428448  39.6795616  86.2131577  44.4038582  77.9914627
  86.4437637  44.1651154  77.0936584  86.7516861  43.8310547  78.5374603
  57.9659538  33.4356956  63.0605316  58.3476982  32.7446518  63.6017914
  57.4855080  33.9862976  63.6787834  53.9278793  66.6265717  89.1404572
  53.3975639  66.3264008  88.4022827  53.5583344  67.4792557  89.3697891
  54.3210754  58.5561943  59.8007050  54.6871681  58.4081573  58.9287567
  54.4550438  59.4902649  59.9612961   8.4983978  57.3992233   3.0192995
   8.0900440  57.1423187   3.8460279   8.4531841  58.3553505   3.0167701
  49.8828659  17.6492100  73.1892700  50.4145012  16.9415131  73.5536346
  50.4442329  18.0546246  72.5284119  61.3280525  61.8284874  60.2740822
  61.3347130  61.3138428  61.0811310  61.9210625  61.3601875  59.6864853
  12.9498930  21.7542362  48.1358757  13.7415485  21.2271404  48.0277824
  12.4205933  21.5524502  47.3642807  16.4902878  42.4325638  26.1277275
  15.5597563  42.2406960  26.2440453  16.5528545  43.3827820  26.2246780
  34.9695282  39.3197441  80.0419846  34.3377151  39.3630791  79.3242340
  34.5290184  39.7495117  80.7751160   5.6750760  69.9611969  61.4874344
   5.1620417  70.4379807  62.1398926   6.0786881  69.2445679  61.9771042
  31.6287804   6.2706928  42.5169296  31.4702129   6.0883627  41.5907288
  30.9235344   5.8136640  42.9751701  41.0916328  49.6495171  10.5247269
  41.9253349  49.9608688  10.8771868  41.3308640  48.9206123   9.9522762
  57.5882034  53.4678383  55.6712799  56.9236870  53.0397072  56.2110481
  57.2601357  53.3837929  54.7759933  59.3059311  25.6082191   2.0809984
  58.8634949  24.8542042   2.4707963  60.2349854  25.3789368   2.1038420
  63.5205688  40.5569038   3.6363573  62.7115936  40.1990051   3.2707107
  63.4958229  40.3091545   4.5606084   6.1043930  49.1546936  26.3945560
   6.6625123  49.3078690  27.1569691   6.6960669  49.2289619  25.6457996
  53.8536034  67.4981461  16.3183174  53.4546700  68.2997894  15.9800215
  53.6042900  67.4779892  17.2422600  28.9241962  34.7959557  86.5149765
  28.5538425  34.1959839  87.1623535  28.7742310  35.6670380  86.8823395
  65.2978516  13.0436697  26.4733982  65.6448822  13.6998987  25.8691101
  66.0747070  12.6298342  26.8495140  50.6991615  24.3811741  20.4829693
  50.4952164  24.3993988  19.5479259  51.3014297  25.1140423  20.6110783
  84.4116745  49.1092949  13.0678158  84.4163589  49.5025253  13.9405012
  85.0571442  48.4043465  13.1192961  10.5218925  51.9008789  23.4549885
  10.9005871  51.2421379  24.0371265   9.8851299  52.3639259  23.9993706
   5.3017898  42.3837738  89.3883514   4.6293983  43.0610313  89.3145447
   5.7760739  42.4256439  88.5579681  77.3260117  56.6997375   4.4293242
  77.4003067  57.1183167   3.5717089  77.1444702  55.7807732   4.2323999
  33.0996819  42.3106766  73.9027557  33.2826767  43.1086884  73.4068451
  32.1646118  42.3610573  74.1010895  79.8379288  47.7983971  65.1560974
  79.4044800  47.8058739  64.3026886  80.2123184  48.6751175  65.2422638
  42.4665833  67.1284409  78.1837845  42.6919899  66.3035355  77.7537231
  43.1980972  67.7117081  77.9815063  64.9826050  64.9421997  17.4358616
  65.3031693  65.3823013  18.2231216  65.5365906  64.1660233  17.3529758
   7.3294930  67.9721527   7.3096290   6.8206120  67.3269501   6.8187218
   6.8220224  68.7807617   7.2399402  80.4508972  59.6591301  27.5416813
  81.3509064  59.6147270  27.2188129  79.9833374  60.1669540  26.8785610
  37.5530472   1.6109223  66.7203751  38.0532227   0.8004406  66.8161697
  37.4530373   1.7203040  65.7747192   2.2923009  68.2779617   2.1300094
   1.7375386  68.3723450   2.9043238   2.7123320  67.4247589   2.2388585
  69.2716827  53.3629608   0.5154752  70.1991882  53.4696236   0.7266487
  69.0629807  54.1178398  -0.0348253  17.6312885  69.5512848  67.5811310
  17.1788120  69.1112213  66.8615189  17.4178905  70.4774551  67.4675293
  58.4469528  46.4651070  83.5943146  58.5347328  45.7482338  84.2225037
  58.8557320  46.1341515  82.7945633  29.5886173  68.8950882  45.4780426
  28.9802246  68.2749786  45.8799820  30.3318443  68.3578491  45.2037849
  44.7780952  44.8729172   5.7735524  44.7320633  43.9235497   5.6603537
  43.9341812  45.1094398   6.1583834  85.6461868  43.9260750  73.4396057
  85.7931824  43.2028160  72.8300781  84.9347076  43.6230621  74.0037079
  17.1208420  51.4348907  41.4543915  17.5330620  51.9695435  42.1329536
  17.5791721  50.5957527  41.4992752  69.9800491  15.6230230  67.2858963
  70.0216217  15.9707546  68.1767349  70.8817520  15.6699209  66.9681549
  72.0548859  39.4018707  49.0418549  71.1176682  39.3293304  49.2223854
  72.4006577  39.9141083  49.7728043  64.4891739  19.6285210  72.0383987
  64.3524780  19.9064865  71.1327057  65.1091156  20.2655678  72.3934784
   4.8713255   6.5453725  48.3221703   4.7535338   7.4859672  48.1893616
   5.5920825   6.4803567  48.9486809  34.1471481   5.6316333  23.1207428
  35.0734825   5.3964720  23.0675316  33.8679771   5.3126464  23.9789639
   0.1503412  18.5974522  38.8113251   0.2829295  17.8689919  39.4179535
   0.8007475  18.4574604  38.1231346  21.1298771   3.8091431  41.7769241
  20.3315945   3.3951771  42.1049614  21.7289200   3.7993371  42.5234413
  -0.3276084  29.5834866  72.0574417   0.0997956  29.7984161  71.2283630
   0.2874625  28.9980888  72.4992905  59.5735207  20.9284916  69.4826965
  58.8524132  21.2591705  70.0183105  60.1651001  21.6752758  69.3900681
  81.2742538  36.0317879  63.0600052  80.8002396  36.8041687  63.3681793
  81.3354187  36.1506767  62.1121902  37.7647057   6.2910013  43.0275459
  37.6194916   7.2365460  42.9945335  38.0749054   6.1272736  43.9181671
  62.3787003  62.0321350  85.5781403  61.7270050  62.3753548  86.1894760
  61.8875351  61.4331512  85.0158157  29.6201897  32.9102440  71.7422714
  29.2334728  33.6834755  71.3314285  30.5640450  33.0299911  71.6372452
  28.9974174  23.4109230   2.7738969  28.0590954  23.5819798   2.8546574
  29.2107582  23.6648502   1.8759892  41.5031662  31.0798664  79.0443268
  42.3857269  31.3800545  79.2615967  40.9796677  31.8804703  79.0094681
  42.8037796  10.5543737  37.9474373  41.9763794  10.5494547  38.4286995
  43.1797943   9.6890135  38.1086731   1.6821297  69.9923553  36.9465752
   2.1443412  70.5372849  36.3096771   2.3459163  69.3804855  37.2647438
  37.0611649  68.2336884  72.3744202  37.8460388  68.5093155  72.8479538
  36.8488274  67.3756180  72.7416611  58.5045700   6.9928718  82.1912003
  58.1857567   6.5038490  82.9497833  57.9257355   7.7532115  82.1358643
  61.6455421  36.7400360  84.4795837  61.8096771  37.1179199  83.6155853
  61.0853271  37.3801651  84.9184799  52.7417831   9.7287579  85.9007492
  51.8885536   9.5542421  86.2979584  53.3697968   9.3072186  86.4873734
   7.0450153  49.2319946  20.0609188   7.9917035  49.2859955  20.1916771
   6.6955562  49.0181351  20.9260063  47.2165565  34.7616234  24.7517033
  47.5883713  33.9862671  25.1721878  46.5249214  34.4187241  24.1857624
  55.4669495  62.9094315  25.2243252  55.8943596  62.0741043  25.4134941
  56.1189575  63.5703011  25.4574890  43.8526917  60.3697433  70.2281494
  44.2300987  61.2017517  69.9425583  44.5524673  59.7306252  70.0937195
  22.2113819  14.1133595  29.4751987  22.1146011  13.3322544  28.9304600
  22.3960381  13.7733946  30.3507309   6.6688557   9.8985720  58.7207718
   7.4944162  10.0841722  59.1682510   6.9293399   9.6256208  57.8410721
  31.9230385  68.7187805  21.3884220  31.4853077  69.2137299  20.6958542
  31.2746353  68.6644745  22.0904598  43.7493820  31.7409687  75.5466919
  43.7637177  30.9194221  76.0377045  44.6025887  31.7764568  75.1142426
   4.8982143  41.2459564  59.2506790   4.8035789  42.1984673  59.2508278
   5.7320280  41.0880394  59.6934547  10.6909313  38.3849983  80.1192856
  10.8569193  39.3193321  80.2445755   9.8310871  38.3485680  79.7002716
  72.6840668  46.4847527   7.4120946  73.4289169  45.8906517   7.5041332
  71.9177704  45.9112091   7.4204702  37.6975021  24.5417995  21.9512482
  38.3158989  24.2820740  22.6341534  38.2452011  24.7158108  21.1857548
  74.2415390  47.9051247  83.5617294  73.5475616  48.4831581  83.2446976
  75.0492325  48.3969879  83.4136353  75.0678253  60.9083099  18.2069740
  74.4048996  60.3673668  17.7778587  74.9181824  60.7732315  19.1427040
  47.2541504   5.2404785  16.6013870  46.8547134   4.8809314  17.3934784
  48.1618385   4.9382033  16.6324692  81.0552826  71.5408478  48.1351433
  81.9234390  71.4227219  47.7496796  81.1663589  71.2982788  49.0544090
  72.2258682  58.2039185  21.4654388  72.8124466  58.5297546  22.1480751
  71.8022385  57.4405823  21.8579712  61.9410019  52.5451889  62.7493286
  62.3897934  51.7264061  62.9600677  61.0707169  52.2731934  62.4580231
  66.4497910  66.9136200  66.9877625  67.3816071  66.6956177  66.9670181
  66.2392197  67.1511459  66.0847321  42.0857277  24.3138218  27.3352585
  42.5609741  24.9462700  26.7963886  41.2524567  24.7429695  27.5294876
  54.5187874  16.9813900  43.7886238  54.9181786  17.4407692  43.0499153
  55.2360878  16.8585529  44.4104118  56.1935043   9.7616262  86.0878296
  56.9547005   9.4503536  86.5776443  56.2321320   9.2864685  85.2577896
  53.3710251  17.8484402  16.8718243  53.1851883  17.0613785  16.3597374
  53.4018593  18.5533161  16.2249622  12.9651175  10.6746893  27.9955578
  13.6377926  10.0048580  27.8728104  13.4509602  11.4570312  28.2565727
  10.4804182  15.9292459  77.8285675  11.4280977  16.0225925  77.7315063
  10.3442535  15.8360291  78.7714386  29.8887367  34.3627739  21.5985966
  30.7311440  34.3919029  21.1450157  30.1006336  34.5625763  22.5104141
  60.1418381   1.0358496  62.6296196  59.1881104   0.9777123  62.5726013
  60.4511757   0.1719932  62.3570518   6.0250344   6.7688971   6.9908190
   5.5304527   6.1817927   6.4190421   5.5741005   6.7184453   7.8336387
  41.4491577  39.5321922  76.3608627  41.6462898  38.7991638  75.7777328
  42.2158012  40.1017876  76.2971725  21.1555367  70.6063843  69.7719803
  21.9787865  70.2570496  69.4307175  20.4968224  69.9610596  69.5152969
  14.1797142  70.8443756  73.1781082  15.0199661  71.0175552  72.7535858
  13.9942293  69.9271393  72.9768448  37.2051048  16.5748024  22.9566765
  37.8286591  16.1007996  22.4064636  37.6192741  17.4237862  23.1113396
  61.7862091   8.5360470  48.0499878  61.6868401   8.0446138  47.2346039
  62.0613289   7.8816113  48.6920586  32.6869354  46.9012527  22.4396915
  32.9870796  46.6799088  21.5581284  32.2581558  46.1051331  22.7536545
  44.0845757  65.5066147  21.1348915  43.4093933  65.7262878  20.4929390
  43.6580048  64.8896408  21.7295494  66.4361877  53.5668755   1.9667934
  65.8879395  53.5958748   1.1826930  67.3286819  53.4799767   1.6319276
  76.1381912   1.4238032  74.9257202  75.2540283   1.7281350  74.7210999
  76.1393356   0.5015323  74.6695023  12.8326578   4.7922802  79.9825363
  13.0760021   5.1907721  79.1469421  12.1302900   5.3493733  80.3180313
   1.8340676  53.3305321  42.1042709   1.1235774  52.7441139  41.8443680
   1.4520936  54.2067490  42.0535583  62.0999146  14.0591660  45.9132385
  62.5870094  14.6705523  45.3608093  62.5903931  14.0358391  46.7348938
  54.5741196   2.0601716  28.7447262  53.7778130   2.5309365  28.4987392
  54.5644379   2.0569336  29.7018719  80.2111893  24.4280853  81.9471283
  79.4338684  24.9473953  82.1528473  80.5759048  24.1943913  82.8007050
   2.3655396  11.1121225  43.9323311   1.5277795  11.2329693  43.4853592
   2.5592661  10.1803102  43.8302193  24.5414391   2.1846776  57.7420998
  24.0243168   1.3803523  57.6987724  24.0499039   2.7538338  58.3342896
  74.9178848  30.3673515  86.4713058  74.9861679  29.5769253  85.9357758
  74.6024399  31.0394688  85.8671646  51.7514725  41.1011658  17.4026852
  52.0420990  41.9800034  17.6464424  50.7965240  41.1625366  17.3794594
  73.2252121  56.5693474  25.2661400  72.9203110  56.0414581  26.0041122
  73.8499527  56.0053978  24.8101864  27.7459354  67.5711517  57.1061897
  26.9879704  68.1294403  57.2794838  27.3991680  66.8547821  56.5744019
  22.1295719  60.8414879   9.6986523  21.9537392  60.9918556   8.7698336
  21.8280125  59.9470787   9.8577757  45.5678825   1.4975638  76.5221329
  46.1322594   1.7122957  77.2648315  46.1647148   1.1458149  75.8616104
  67.7510605  61.4794312  24.3689098  67.9536743  61.3580170  25.2965069
  68.2422180  60.7887001  23.9240627  70.9658127   4.6227355  15.5226583
  71.7003632   4.2159052  15.0631475  71.2992401   4.7933421  16.4035397
  71.4291458  41.2129059  83.4832306  71.6253433  41.4732895  82.5832672
  70.8222122  41.8821983  83.7993088  14.2167416  64.4481735  47.1819458
  14.3936405  64.7314301  48.0789986  14.1696663  63.4937172  47.2370415
  66.4749527  62.5323486  51.4130516  65.6414185  62.0759354  51.5276871
  66.5578918  63.0793800  52.1941452  16.0530148  13.3339205  13.4707546
  16.9027061  13.2054739  13.0491400  16.1459389  12.9188395  14.3282528
  22.5802593  14.0194092  12.7053843  22.4366817  13.1250534  13.0148125
  23.4296761  14.2659979  13.0713291  86.1208344  36.8194466  77.2939835
  85.7789230  35.9707451  77.5751266  85.3738403  37.4138260  77.3643799
  38.3685226  61.4674683  16.1889381  37.5017319  61.3642769  15.7961845
  38.9483299  61.6412163  15.4474068  48.0281792  14.8307762  29.7810478
  47.3413048  14.7321825  29.1217155  47.5884628  14.6556234  30.6130371
  56.5848885   6.8433018  37.3744469  57.2459793   7.2718410  36.8308105
  56.8406906   7.0531416  38.2726479  15.2967987  54.7720833  28.7201633
  15.2701502  55.7280769  28.7601414  15.0419960  54.4884491  29.5981503
  82.7811508  67.5737305  79.5351791  83.6445465  67.3120041  79.8549957
  82.2894058  66.7546616  79.4755859  48.9894485  20.7483349  88.3454971
  49.5544167  20.2444572  87.7597046  49.5301971  21.4881706  88.6220169
  34.4241028  68.6024399  65.4236374  35.0009193  68.1232910  66.0185547
  33.5615425  68.2099609  65.5584717  41.4642487   8.4905739  34.4961548
  41.2193527   9.3502684  34.1538315  41.7870560   8.6676750  35.3797073
  84.5415802  19.9327316  25.1271286  84.3433151  20.4725151  24.3619118
  84.6414413  19.0476665  24.7765312  55.0868416  17.7772083  11.9160194
  55.0838013  17.3006477  12.7461472  54.1950378  18.1141262  11.8299952
  17.6041584  19.6205387  55.5606766  17.1842651  19.4468460  54.7182083
  18.4750042  19.9453125  55.3318100  68.1561737  15.4104271  29.2613544
  68.1352692  16.2565632  29.7083988  67.2851868  15.3225088  28.8742027
  72.0129623  64.2095718  36.6439171  72.5187759  63.9231491  37.4044075
  71.8751602  65.1459656  36.7867813   2.4475267  31.1428452  49.0538559
   1.9040904  31.9293213  49.1024742   2.7536426  31.0074253  49.9506187
  56.0171738  13.6113377  71.7624741  55.1416779  13.5935097  72.1490326
  56.5749359  13.9762459  72.4494781  12.1257067  37.8767395  19.4497776
  13.0725164  37.7906609  19.5610123  11.7526951  37.3622437  20.1655903
  34.1140251  12.2170353  86.5025787  34.3479233  12.1760035  85.5753021
  33.2517967  12.6325665  86.5139389  72.3315582   1.8761823  39.6914520
  71.3755417   1.9122484  39.6604309  72.5697937   1.2480080  39.0096359
  59.0995483  20.8780441  62.1690178  59.2071342  21.4119415  61.3818626
  58.9527206  21.5125084  62.8705368  32.4134521  60.8794289  17.0616894
  31.6096973  60.5396614  17.4550972  32.8177223  60.1174278  16.6467800
  34.1249084   5.9338808  75.7794418  34.5781975   5.4978704  75.0578766
  34.0876999   6.8538957  75.5178680  67.4580994  52.1161423  78.2443924
  67.4782486  51.1776848  78.4318085  68.3594208  52.4073486  78.3824081
  10.1828108  61.9360771  85.5169830   9.6479311  62.7287025  85.5603714
  10.9955149  62.1707420  85.9649506  72.5991745  28.7888508   4.0056143
  71.7471008  28.5836811   3.6207623  72.8059158  28.0284348   4.5489879
  32.1110458   9.5246181  19.4676228  32.8123207  10.1573181  19.3122787
  32.5633736   8.7314138  19.7547798  27.9223366  33.2498970   7.7467742
  27.3638458  33.3309402   6.9736295  28.2791653  32.3633461   7.6926112
  33.8182449  39.9143829   3.4994967  32.9195366  39.7419701   3.2187316
  34.3342781  39.2192650   3.0911388  50.2774124  53.2179947  46.3105736
  49.4860344  52.9213333  46.7599564  50.9689255  52.6432533  46.6387711
  29.8209171  69.0759659  23.3931789  29.7914104  69.8783188  22.8720398
  28.9020576  68.8573685  23.5485649  36.4631004  29.3432026  74.4016571
  35.8743820  30.0132332  74.0542374  36.9572296  29.0402222  73.6399002
   6.7717571  16.5183411  28.9552288   5.9603786  16.0459652  29.1416607
   6.9443307  17.0213604  29.7511063  19.6833687  13.0412769  61.2670364
  18.9122276  13.6069164  61.2267075  20.4240017  13.6379871  61.1591797
  49.7379799  12.2006950  35.3995018  50.2810974  11.4510126  35.1561317
  50.2424774  12.6523714  36.0760384  10.6249952  29.6765461  79.9196091
  11.4083853  29.9973888  80.3663635  10.0176497  30.4160957  79.9403076
   8.4853086  38.6947479  44.4712906   9.2418804  38.5703659  45.0443192
   8.5090084  39.6236649  44.2415390  25.6082745   5.5314455  34.8278999
  25.6471272   5.9775143  35.6739197  26.0927639   4.7172060  34.9639778
  25.8377628  29.8070602  82.5986252  26.0233192  30.5841217  82.0713959
  25.5257111  30.1536865  83.4345169  26.3223953  47.9130325  78.1966629
  26.1781101  47.1107674  78.6984406  25.5119667  48.0352936  77.7022018
  86.1541290  34.6867332  68.4177780  86.0051346  34.1930542  67.6113586
  86.1925507  35.6005707  68.1355362  58.2246819  63.1388054  74.4337463
  58.5439301  62.3250847  74.0436478  57.4376297  63.3520813  73.9324570
  66.8281174  71.4793167  25.4708691  67.1931229  70.6772919  25.8447094
  67.2176666  71.5357513  24.5983429  46.0317421  60.9968452  60.6617165
  45.2478294  60.5921478  60.2903214  46.0824432  61.8537712  60.2382355
  56.7342186  55.0384369  88.4946136  56.8940659  55.3366318  89.3900223
  57.5420914  55.2462273  88.0251541   8.4009037  33.4332542  84.7603836
   8.8379793  34.2764816  84.6413727   7.4774618  33.6154594  84.5863495
  40.4769211  20.6506195  14.1821632  40.2974129  20.2188492  13.3469486
  41.1546631  21.2949581  13.9778986  17.0820770  12.6175871  21.4108467
  16.1324444  12.6035976  21.2915401  17.4359894  12.5038624  20.5287781
  26.6547222  64.9160538  79.2785187  27.2659416  65.4677353  78.7903671
  25.8708878  65.4564667  79.3774643  72.1030273  50.8013115  27.5163364
  72.6382828  50.0866127  27.8612118  71.2056580  50.5617104  27.7477646
  52.0295525  59.1387177  23.4517498  51.2183533  59.4004173  23.0162067
  52.7239265  59.4393349  22.8654842  80.0025330   5.4412241  77.4520874
  79.2687149   5.0942492  77.9593811  80.7787094   5.0587120  77.8613052
  74.3610611   0.6174171  19.7903461  73.5881729   1.1820929  19.7942333
  74.9507751   1.0229535  19.1547318  26.9200459  38.9513702   3.7611716
  26.3453884  39.7136307   3.6907277  26.6747837  38.5424080   4.5911269
  26.9239502   0.4643006  88.5343018  27.8669624   0.5141388  88.6907501
  26.5991001  -0.1253095  89.2147827  12.2743998  28.4645653  84.8293076
  12.4346914  29.2525215  84.3100204  11.7210150  28.7620907  85.5514374
  29.7602825  62.7695427   7.4934759  29.5216618  63.4596710   8.1123562
  30.7132320  62.7079048   7.5591912  82.9196625  58.6417236  65.8108978
  83.7236862  58.8812065  65.3499985  82.5206985  57.9668808  65.2616730
  28.9140644  37.1129532  82.4621124  28.0885468  36.8303261  82.8556519
  29.5829124  36.8520393  83.0951996  76.5410156  62.6541328  10.0519905
  75.8916397  62.3574219   9.4144125  76.3104706  63.5675964  10.2212896
   0.7096105   4.0837464  36.8680878   0.3650485   3.5325937  36.1654205
   0.0356578   4.0552306  37.5472069  25.9177322   1.0219665  53.5893707
  26.3339233   1.3728069  54.3767242  25.1092281   1.5266342  53.5006866
  63.3570175  62.2718925  18.4352722  62.7783508  62.9989967  18.2056999
  63.6045227  62.4406090  19.3443966  12.2152319  38.4930649  22.2511406
  12.8211603  39.1400337  22.6124039  12.4775209  37.6666260  22.6566486
   8.3231030  43.7897835  81.4803085   8.1833353  43.1087723  82.1382751
   7.6683674  43.6091499  80.8058319  62.3969040  36.7635880   1.4275792
  63.2005119  36.9674454   0.9491547  62.5397034  37.1270447   2.3015022
  55.3496819  52.6879120  68.5342331  55.6146049  52.3999252  69.4077911
  56.1104965  53.1608086  68.1969528  66.6367416  58.3121986  86.7002106
  65.9438171  58.7741547  86.2283020  66.1710510  57.7476959  87.3172226
  12.0882683  68.8150864  29.8702068  11.5098772  68.2635956  30.3970451
  11.6524630  69.6670380  29.8484097  21.6058235  65.2057114  18.9173813
  22.1457653  65.2549591  18.1285419  22.2007236  64.8849030  19.5951786
  26.4728794  51.7370415  21.4168301  26.3977470  52.2112350  22.2449169
  25.7485294  51.1114960  21.4324665  63.0166855  53.9757118  47.3313370
  62.4208069  53.9353828  46.5833168  63.7056236  54.5806961  47.0563965
  17.6619911  32.7280006  74.4933701  17.6485577  33.6389389  74.1996994
  16.7571030  32.4315300  74.3958206  50.2990799   4.5301347  72.7843704
  50.0503120   5.0915413  73.5186462  50.0223274   3.6528888  73.0490952
  64.6555099  67.5900574  75.9796066  64.4877472  68.4509125  76.3630219
  63.8343353  67.1120758  76.0955353  68.5631027  19.8458977  38.5811005
  69.4033356  20.2567368  38.3775063  68.7565994  19.2512722  39.3058167
  47.4003105  35.5655174   1.4974535  46.7555580  35.3680801   2.1768229
  47.2582779  36.4899712   1.2938617  44.1106300   0.2871552  38.8586044
  44.8340569  -0.2481652  39.1846657  43.7066994   0.6497735  39.6470108
  74.3058472  54.3035698  67.1425095  73.6490326  53.8856735  67.6994553
  74.3631210  55.2006264  67.4715118  62.6099358  54.3958282   7.2067099
  63.1041145  55.1952934   7.0253968  62.4260712  54.4355659   8.1452436
  52.8146782   3.4081335  23.2145271  52.8044624   3.7005119  22.3031311
  51.9217415   3.5591295  23.5245228  60.6559906   9.8697643  54.2706108
  60.3901024   9.7308407  53.3616371  61.6088676   9.7798080  54.2578506
  85.3542862  69.6187820  17.8034058  85.7086334  70.4938889  17.9610729
  85.2049408  69.5875244  16.8584442  69.9707260  24.4372635  81.6334991
  69.5593796  25.3015537  81.6284866  69.6182480  23.9997540  80.8585281
  67.4657898  44.8115234  54.6177444  66.8910141  44.7763138  53.8531380
  67.2153549  45.6178322  55.0687180  53.7993889  56.9085693  21.7922516
  53.9679451  57.8507805  21.7848721  53.5348473  56.7055473  20.8950157
  44.5564384  60.9064369  87.1172485  45.4566269  61.2312355  87.1372986
  44.6128883  60.0729752  86.6499329  55.0708885  12.7116470  47.5584869
  54.1251984  12.7979259  47.4382401  55.2671394  11.8171787  47.2798386
  82.6958847  41.2327805  31.6131535  81.8432999  40.8422318  31.8050098
  82.5403748  41.7817230  30.8445778  43.4028625  59.6738815   7.6765671
  42.8682442  59.1711884   8.2911558  44.3004303  59.3929062   7.8544922
  11.4353294   7.0797372  21.2309875  11.4757376   7.9483080  21.6312180
  11.2868614   7.2512016  20.3010464  57.0235367  15.1157160  86.6534805
  56.3152466  15.5170698  86.1500168  57.0560455  14.2111864  86.3420334
   1.2630360  41.0771446  44.0794640   0.9070536  41.2633934  43.2106590
   1.8255440  41.8269005  44.2735901  76.7096710  49.4707718  83.5355835
  76.9607925  50.3844795  83.4002609  77.5354614  49.0184212  83.7078705
  75.7798386  53.3084373  85.3880310  76.3406448  52.9673653  86.0847397
  75.9385529  52.7253036  84.6457367  67.3789139  65.6772766  82.1402359
  68.0954666  65.1670380  82.5176392  66.7383575  65.7503662  82.8477554
  67.4864655  66.9831924  30.4283314  67.7601395  67.0642624  29.5146790
  68.2660751  67.2143936  30.9332962  75.5149307  60.4516907  56.2005501
  76.2902832  60.0821571  55.7780533  75.4131393  61.3154755  55.8008690
  47.9214363   7.5087214  38.9190216  47.8229141   6.5861402  39.1543274
  47.8507118   7.9769416  39.7508850  58.5835381  60.0592957  76.8638840
  58.9637337  59.1832047  76.9282608  57.7910843  59.9386406  76.3407364
  38.8073349  52.9987411  11.1171618  39.4933167  52.7317009  11.7290020
  39.0471764  52.5797005  10.2906561  44.0422974   0.0128930  17.7902946
  43.1579933  -0.0531617  17.4299126  44.6022263   0.1533744  17.0267639
  81.9595566  11.9981289  44.0653381  82.0666122  12.9237547  43.8462753
  81.4009933  11.6505060  43.3700752  26.4192009  65.4692307  15.4963140
  25.9737949  64.6602325  15.2446060  27.2722034  65.1817169  15.8218193
  69.3868561  18.1506939  47.7728043  69.5618896  17.3312531  48.2355309
  68.9289169  17.8827705  46.9761009  60.3801537   2.2321098  24.8322411
  59.8455582   1.5587335  24.4115200  61.2401161   1.8248392  24.9362907
  57.4990616  46.3199730  71.7008667  57.8702202  46.6829567  70.8966751
  56.6830826  45.9045677  71.4218445  83.7990036  26.5802631  18.0066547
  83.2013702  25.9266758  18.3698254  83.4889526  26.7171192  17.1114616
  45.4119873  58.7854385  85.8360214  46.1893311  58.2275085  85.8099060
  44.8596344  58.4600563  85.1251984   6.2943821  53.1424637  58.3307724
   6.1615300  54.0646286  58.1112404   5.7817459  53.0098305  59.1281738
  60.4950104   3.6298673  31.9721088  61.3135376   4.0860491  32.1674156
  60.1473045   4.0806408  31.2026062  81.1382675  65.4867401  78.9161682
  80.2530441  65.5785065  78.5637665  81.4586945  64.6635666  78.5474625
  59.4595413  27.0344448  77.7409210  58.5737991  27.2704525  78.0165863
  59.9111176  27.8726807  77.6425629  10.3078842  47.6615524   2.4275548
   9.4308777  47.5244675   2.0693660  10.2101250  47.5051651   3.3668194
  20.2428856  59.7202568  42.3442841  20.3083839  59.2834778  41.4950676
  20.1507969  60.6485367  42.1297035  22.5304909   7.5139875  31.3943443
  22.6426811   7.0439639  32.2206154  22.5315762   8.4384327  31.6426029
  32.2517738  28.9774647  75.3839493  31.8060970  28.5068817  76.0883408
  31.9505787  28.5499058  74.5822601  76.6220093  46.0526199  82.1624680
  77.0075226  45.6959419  82.9627151  77.3650894  46.4133301  81.6787796
  71.9350815  46.2905235  80.7325058  72.6409531  45.8584251  81.2134094
  72.3391953  47.0796432  80.3716507  73.9789429  17.3599529  11.5551081
  74.3000946  18.2547569  11.6665668  73.6058121  17.1316071  12.4064970
  34.1167412  47.2957878  86.3047028  34.1596642  47.0716209  87.2342987
  33.7691193  46.5091705  85.8844452  46.5172195  20.1643276  13.6403675
  47.1633224  19.6025295  13.2123928  45.7980385  19.5740242  13.8652096
   4.6132441   9.0362873  49.7879486   4.7463040   8.7487907  50.6912041
   5.2014241   9.7844896  49.6856308  74.9228210  15.2524519  75.4587555
  74.0666428  15.6461983  75.6265411  75.5406036  15.8139973  75.9269943
  51.7064438  19.3966446  82.6378021  51.0666695  20.0291729  82.3109512
  51.2719955  18.9790726  83.3815155  32.1177673  68.8578262   1.9401990
  31.1955261  68.7571793   1.7044674  32.3812408  69.6816864   1.5302266
  54.3617477  14.5611048  56.0896683  54.1616325  13.9005661  55.4264412
  53.5856438  14.5811176  56.6495781  51.9443169  59.9165039  29.8324203
  52.6086121  60.6003380  29.7469177  52.1613464  59.2847023  29.1468849
  16.8240566  46.5819435  40.4476547  17.4147987  46.0364876  39.9282951
  16.0387421  46.0460396  40.5586624  63.1428680  41.9087486  35.4795532
  63.3184471  40.9695168  35.4226036  62.5370102  41.9949532  36.2155800
  58.9574089  28.5954151   4.9883389  58.3791504  27.8499165   4.8268428
  59.2708015  28.8479881   4.1198778  15.1854296   2.1384912  10.7719765
  15.5776653   2.8894296  10.3264723  15.1644659   2.3916516  11.6948538
  21.4486027  70.3109131  47.6206856  21.1276188  71.1072540  47.1975517
  21.9110470  69.8407745  46.9268913  25.5286732  18.8159771  75.2141418
  25.3020134  18.9949017  74.3015442  25.4201145  17.8694725  75.3067474
  24.1235695   8.1561584  17.5666027  23.3155422   8.5205660  17.2053108
  24.0143185   8.2251072  18.5150452  34.6078033  58.4193916   4.5393591
  34.6196480  58.1200600   3.6302426  34.7430954  57.6244125   5.0550508
   5.4729896  34.0288773  52.4303474   5.4549227  34.5588379  51.6334496
   6.3734808  33.7089119  52.4848366  35.3855286  70.9207993  40.3077393
  35.1352386  71.3850632  39.5089645  35.9064789  71.5550995  40.8001900
  85.1668625   1.8019743  47.1905060  85.1470184   2.6954424  46.8476448
  85.7084961   1.8594537  47.9776230  48.4556007  48.6712646  23.7583809
  48.2252922  47.7423592  23.7762985  49.3527527  48.7020454  24.0906487
   8.5885773  56.2932472  20.7779274   8.3055201  55.5818291  21.3523788
   7.8997622  56.3552170  20.1161690  71.2643051  31.2894268  70.7887878
  70.4605560  30.7870121  70.6553345  71.3809280  31.3068676  71.7386932
   7.9193444  48.7117462  67.4772263   8.0318975  48.9412117  66.5547791
   6.9850335  48.8374519  67.6430283   0.5354096  58.1398888   5.3635311
   0.9486669  57.8716507   6.1842003  -0.3438077  58.4196625   5.6183577
  82.1947250  12.4558096  51.4829140  82.6358337  13.1543446  50.9994850
  82.1407166  12.7831068  52.3807983  43.1011162  26.7512035  11.8101091
  42.5288048  26.2145061  12.3584223  43.5561714  27.3238907  12.4275141
  52.2979469  59.5677795   7.9970431  51.5205727  59.6325302   7.4423065
  53.0225639  59.8187714   7.4241862  76.4932175  56.4572220  79.3535385
  76.7557068  56.7496567  78.4807205  77.2591629  56.6246529  79.9026489
   2.1304328  56.5204544  28.5441723   2.2984080  57.4425468  28.3498497
   2.6614788  56.0410690  27.9082413  40.4938583  51.8327065  60.6533966
  40.4558144  51.9289818  61.6049843  40.8395844  52.6690865  60.3416748
  53.9846268  47.6791229  19.6100597  53.0780792  47.6465874  19.3045387
  54.3213272  48.5093307  19.2729836  50.2851906   7.3714547  34.0188065
  50.8766670   7.9931455  33.5946732  49.8219566   7.8914299  34.6755219
  24.4771690   4.0889850  77.2394943  24.0603600   4.7429705  76.6784134
  23.7475052   3.6025622  77.6231766  73.4170074  53.8013039  69.8449249
  74.3582077  53.7097549  69.6966629  73.3475723  54.4342155  70.5596466
  11.7698078  12.1412783  34.4939423  10.9881945  12.6672974  34.3247757
  12.4539309  12.7831602  34.6841888  76.0722961  53.6016693  78.7978058
  76.9649353  53.2724190  78.9028168  76.1678162  54.3834152  78.2537613
  15.1641998  61.5009575  15.9628582  16.0872631  61.6358871  16.1772881
  14.7304420  62.3019905  16.2568531  50.9364166  40.3432961   7.2427740
  51.5054512  39.5798721   7.1447120  51.3607140  41.0265312   6.7237377
  13.5168390   0.4245441   8.6201458  14.1585512  -0.1057236   9.0926428
  14.0437803   1.0088589   8.0750389  31.4003048  42.4773674  13.3180933
  31.5121689  41.5307693  13.4056711  30.7284946  42.6998062  13.9626274
  53.1026611  46.5295982  26.3004360  52.1875114  46.5791359  26.5766220
  53.5936890  46.4273529  27.1157112  19.0676041  55.8858032  70.4993744
  19.5786839  55.4377518  69.8253708  19.4433002  55.5826492  71.3259201
  59.6514130   4.3871956  71.2166061  60.3898659   3.8835001  70.8742447
  59.4147186   4.9801059  70.5034027  21.1306515  33.0720940   6.4076266
  20.5365677  33.7965775   6.2116170  20.5987644  32.2859764   6.2837353
   2.9874940  25.9725075  78.4181900   3.8181734  25.4969120  78.4144745
   3.1928070  26.8163090  78.0156097  43.1033134  67.5685501  24.7239990
  44.0189934  67.7090607  24.4831200  43.1198158  66.7946396  25.2870445
  69.2194443  47.4263535   0.7075973  68.8904953  46.5792999   1.0084755
  68.8176422  47.5474625  -0.1527054  13.7186480  10.4633169  16.7484798
  12.7784815  10.2920952  16.8032627  14.0190239  10.4436693  17.6571159
  36.3848152  47.0767632  19.5656548  35.6392670  47.2809486  19.0011177
  36.3110962  46.1364937  19.7290325   3.0204926  11.6191959  63.2772827
   2.5871079  12.3927774  63.6378136   2.4304495  11.3133135  62.5884323
   1.9580772   5.4653997  53.7514610   1.2014183   5.8940015  53.3514633
   1.6212940   4.6244092  54.0605659  25.2958374  45.9335823  70.9427872
  25.4904537  46.5528526  71.6462555  24.9292583  45.1707115  71.3898697
  34.7232513  55.1282501  60.4915886  35.0291405  56.0213623  60.3334351
  35.4926414  54.6672287  60.8258591  33.9168892  53.7947845  34.7275314
  33.6592102  53.8195457  33.8060036  33.8603516  52.8698196  34.9672699
  77.8842087  42.2368431  35.1639328  77.1216507  41.7799606  35.5189056
  78.1128922  41.7444496  34.3755875  62.1499252  23.6404037  45.5038109
  61.4224129  23.3764267  44.9405403  62.9250755  23.2662983  45.0849762
  67.3444290  42.3849258  63.0883865  68.2158661  42.0202255  63.2427254
  66.9901505  42.5377312  63.9643822  50.3756981  59.7063446  58.5311966
  50.1871033  59.7729492  57.5951271  49.5625343  59.3802376  58.9167480
  63.0819130  69.5708771  72.4050751  62.2735291  69.4826355  72.9100189
  63.7622681  69.7081528  73.0642471  29.8574238   6.9485917  58.2425461
  30.0250416   7.8279238  58.5815315  29.5118885   7.0933065  57.3616982
  24.3513336  52.6878357  46.3941841  24.7894802  52.1955566  45.6999741
  23.7144909  52.0730400  46.7584534  63.4283676  40.2266960  54.0246773
  62.6988258  40.1033287  54.6319466  63.1887283  39.7112389  53.2545433
  77.7749481  27.1208649  50.7230110  78.0681458  26.3850479  50.1855736
  77.3448334  27.7122097  50.1053200  45.7387695  13.0799494  53.3240242
  45.3680763  13.9076548  53.6301689  45.1886253  12.4078054  53.7262650
   8.6326513  42.4812775   7.1025591   7.8910522  41.9272842   7.3461919
   9.4019480  41.9975090   7.4031968  22.0960636  48.5534935  58.1638260
  21.2758141  49.0441399  58.2156601  22.0605202  48.1167145  57.3128319
  55.7418098  66.6025620  30.8032627  56.3140564  66.3898926  30.0660152
  55.5166130  67.5238266  30.6736794  13.2467194  18.4307175  36.0337791
  12.5753193  17.9789772  36.5450363  13.4274139  19.2298393  36.5287361
  60.5059395  69.9696579  86.5609360  61.2606850  69.3810425  86.5720444
  60.0508804  69.7602692  85.7452698  83.6966095  47.6529961  58.7719688
  82.7731400  47.8885155  58.6826706  83.6840973  46.7431717  59.0691185
  67.8047028  41.0068359  49.8509140  67.2533112  40.7294197  50.5825119
  68.4247894  40.2873840  49.7320824  73.3656693  58.7714348   7.7512608
  73.1973495  58.3901672   6.8895555  72.5977554  59.3152847   7.9266849
  86.0047836  18.2274837   9.0900269  85.5558472  19.0699787   9.1599598
  86.2514648  18.1633949   8.1673813  53.0120926  21.6335678  28.7721996
  53.6142082  21.0699100  29.2579765  53.5817795  22.2071457  28.2596626
  79.4631577  59.1653786  69.4745102  78.5521011  58.9042206  69.3402939
  79.8114243  59.2825470  68.5906525  72.2255249  53.0588341  41.3068352
  72.6917191  52.2700081  41.5836906  72.6280823  53.2939720  40.4708405
  83.4092941  26.2942600  47.0228806  83.7975464  25.4737434  46.7191696
  84.0878372  26.9516563  46.8691368  64.6669083  63.3282661  11.1887903
  64.1129150  63.0008888  10.4801664  65.3287888  62.6473923  11.3094301
  41.5821228  69.7949524  50.6072159  41.6207809  70.7166290  50.3517685
  40.6469231  69.6082535  50.6895485  31.4227657  51.5323181  30.9084816
  32.0236588  51.2646713  31.6038418  30.9008617  50.7503014  30.7287769
  65.4349747  47.4302750  50.2279701  66.0176086  47.1153183  50.9190331
  65.6732330  48.3504066  50.1147079  50.2334785   5.0401020  30.0535793
  50.2695274   5.1005859  31.0081863  49.4366379   4.5406623  29.8751545
  28.3934612   1.4772919  68.3616104  28.3063393   2.2677414  67.8288498
  29.0165672   1.7180110  69.0471954  70.2599640  50.3728867  59.3669968
  70.2309494  50.2212715  60.3116684  70.0409317  49.5245934  58.9814339
  44.6279716  12.2463617  63.0104752  44.0755615  11.4676180  63.0785599
  44.5208626  12.6902847  63.8517189  25.2593021   4.0179296  24.3684235
  25.1528931   3.0786242  24.5188065  24.4208488   4.2982383  24.0014706
  19.7419834  11.5132437  63.5814629  20.6582279  11.6020498  63.8438377
  19.7214718  11.8207312  62.6752243  60.9122238   9.0400534  72.3612518
  60.0250549   8.9226732  72.7009430  61.1772461   8.1655254  72.0763092
  59.6074944  14.7838650  87.4850235  58.7258301  14.9663706  87.1600800
  59.8328476  13.9357357  87.1027679  61.4445686   2.8641727  36.9258690
  61.4375000   3.2861524  37.7850037  60.6365814   3.1604846  36.5068321
  72.8954468  14.9416761  43.3741608  72.4364929  15.7550144  43.5841064
  73.8234329  15.1642380  43.4485779  61.5918083   8.1332378  28.2603664
  62.0978889   8.1545715  29.0725613  62.1958046   7.7726555  27.6112137
  74.4887695  43.6059456  19.6034794  73.9407425  42.8454132  19.7971153
  73.8803711  44.2565842  19.2531185  29.4591312  64.7774200  42.2133865
  28.6240139  64.3617630  42.4279442  29.2781448  65.7162399  42.2591591
  61.2725105  14.8757534  13.5253401  60.5493889  15.1858711  12.9802208
  61.7544403  15.6693544  13.7580929  69.8720016  42.4393082  52.0222397
  69.5120010  43.3223801  51.9396973  69.1062775  41.8653908  51.9993134
   0.4119998  -0.0610026  10.8261099   0.6141168   0.4081270  10.0166054
   0.1812752   0.6269407  11.4503956  61.0631218  39.2578468  49.8389244
  60.1061630  39.2369499  49.8338966  61.3218956  38.3461914  49.9736481
  66.2410278  53.7319717  24.0683441  65.7055435  54.2591782  23.4754353
  66.5652924  53.0144119  23.5241108  35.7748833  16.0954494  44.9656754
  35.9311333  15.9798756  45.9029388  35.5034294  17.0092506  44.8790054
  42.4484024  23.4981689  74.9418640  42.8298149  24.3750763  74.8995743
  41.6795998  23.5981922  75.5032578  38.6641846  69.6217346  50.9890671
  38.7962646  69.3967438  50.0681076  37.7417183  69.4261475  51.1534843
   6.9845223  37.1037865  13.6480227   7.4714527  36.4910660  14.1991158
   6.3822203  37.5408096  14.2500820  28.9187946  71.0979080  47.2462540
  29.4557266  70.4195862  46.8366013  28.9806175  70.9182510  48.1844101
  46.0628242   3.3418515  21.4196987  46.6201019   2.5698726  21.5183163
  45.6506615   3.4507782  22.2767220  75.3489075  66.6370773   5.3653259
  74.7147903  66.9668121   6.0020366  74.8177643  66.1814423   4.7122393
  41.2487183  63.5504608  35.0130005  40.5313911  63.9715042  34.5392952
  41.4899673  62.8023796  34.4667397   5.1552591  51.9200783  78.9084549
   6.0861087  51.9066238  79.1311035   4.8859539  51.0024490  78.9492111
  21.2246170  56.3132133  49.6579399  21.1741543  55.3848648  49.8856468
  21.9708557  56.6424789  50.1588860  10.4654112  46.2230606  67.4687881
   9.6990404  46.3819618  66.9177399  10.7307873  45.3279495  67.2576447
  30.4203148  13.0165911  25.2988262  30.7499981  12.6800747  26.1320724
  30.2721996  13.9486485  25.4587116  64.7104111   8.1321220  21.0471287
  65.6563873   8.2764597  21.0242767  64.4677353   8.2789631  21.9613400
   7.7293644   7.8416610  19.6919384   8.6046000   8.1478796  19.4544010
   7.5987458   8.1593637  20.5853786  11.2216434  66.9308014  31.8412590
  11.0973225  66.1500549  31.3016281  10.4345942  66.9744492  32.3842888
  65.9186020   8.0097771  65.8614502  66.5060806   8.7463608  66.0304260
  65.1821976   8.3948374  65.3864136  73.3340378   0.9165505  67.5813141
  73.3027344   1.4127921  66.7633896  73.4688263   1.5793842  68.2585983
   3.5629976  71.5685272  31.5514870   2.9626331  72.1273117  32.0450020
   3.0186360  70.8425903  31.2466640   3.4775641  11.5693865  80.6617966
   2.9030092  12.3307238  80.5812759   3.6304033  11.2881908  79.7596893
  16.8885727  11.8866653  49.3916321  16.5679188  12.7465096  49.1194534
  16.4402466  11.2697325  48.8131638  79.0849533  50.9380417  49.5476494
  78.8833466  50.8558731  48.6155357  80.0350189  50.8325539  49.5974197
  27.5960312   9.0981140  15.2920132  26.8881264   8.6001635  15.7008486
  27.4769382   8.9567289  14.3528328  76.0216599  59.4071426  63.0694542
  76.6993179  60.0680122  63.2117996  76.4173737  58.5894737  63.3712044
  18.0330315  49.8547134  47.5136490  17.2150879  49.7003326  47.9862633
  18.2869034  50.7445335  47.7585945  62.5860863  66.4789047  84.1065063
  61.9625092  65.8564682  84.4806137  63.0445442  65.9810715  83.4295959
  74.2774734  41.0019455  33.5941849  73.4244537  40.9481544  33.1632576
  74.8718796  41.3118324  32.9108963  60.2980194  53.6553802   3.5210738
  61.1470413  53.6956863   3.0808809  60.5135155  53.5819626   4.4508071
  77.5970001  25.1032562  17.3927765  78.1551895  25.6829243  16.8744736
  77.0940323  25.6936607  17.9537392  38.1408157   3.3094983  68.7477951
  38.0858231   2.7789075  67.9530106  38.7465858   4.0156827  68.5228958
  13.0031919  10.0284510  62.4937363  12.8093758   9.5906267  61.6648941
  13.5310984   9.3959179  62.9810219  82.1313095  16.1913414  85.2268600
  81.6393127  15.7250853  84.5510101  81.5615158  16.1698685  85.9956894
  60.7071877  27.5430527  82.0892868  60.6751823  27.3957577  83.0345459
  59.8640404  27.2231579  81.7683487  86.5041885   0.1634918  15.6544390
  85.6063919   0.2707074  15.3402901  86.7990189   1.0538830  15.8455210
  79.8930740   4.2849250  25.1037502  79.4107285   4.0766630  24.3036232
  79.2620926   4.7558932  25.6480713  72.9487991  45.1053734   3.4509556
  73.7952042  45.0613327   3.0060983  72.6836700  46.0216522   3.3711624
  20.3338299   1.0160937  36.8685608  19.6883526   0.8342478  36.1855392
  20.2387733   0.2916438  37.4869232  53.1314240   5.5295210  45.9180222
  53.9384232   5.0331931  45.7814903  52.5137329   4.8897171  46.2720566
  47.2908058  36.3540382  57.3181305  46.4774513  36.2566757  57.8133087
  47.0103798  36.4035645  56.4042702  75.5498962  36.3554115  62.3279228
  76.1522598  35.8036575  61.8289642  75.4409409  35.8980026  63.1616707
  52.7816696  48.6860695  49.8970833  52.8383904  48.4937134  50.8330383
  53.6582336  48.4997330  49.5607147  15.5286560  12.3917084  73.5921860
  15.9553528  11.7926636  74.2048111  15.2089558  11.8270521  72.8884964
  55.4253159   2.0599844  23.5181236  54.5781174   2.4114804  23.2443790
  55.9456558   2.0364628  22.7150497  70.3332291  70.2964554  31.1254101
  70.4415894  69.3460922  31.0895405  69.4928513  70.4252701  31.5651989
  38.7070045  17.5104294  82.2789383  39.3556938  16.9355659  82.6850967
  37.9688950  16.9348316  82.0786514  79.3524094   4.2104926  32.5716896
  79.9994431   4.1373119  31.8701019  78.9834900   3.3307199  32.6500015
  27.6529427  13.2514534  88.0762787  28.0682220  12.4432030  88.3771210
  28.3658276  13.8894148  88.0441208  31.6269245   2.8396573   6.6897912
  32.2164879   2.9296787   7.4384866  31.8908062   3.5388706   6.0917120
   5.3870668  35.0471115  15.4776211   4.9216423  35.1397934  14.6463432
   5.2309484  35.8744164  15.9330606  37.3478699  53.9894600  60.8371849
  37.4829636  54.9076309  61.0715790  37.7756042  53.4978447  61.5383224
  33.7747536   2.2235532  53.5673828  32.8320808   2.3821931  53.6166992
  33.8883781   1.7002079  52.7740135  79.9077988  56.9856873  28.4909592
  80.1836166  57.9000587  28.4270535  79.3797684  56.8393860  27.7060966
   7.9524097  27.6659451  77.4136734   7.6890130  28.3136845  78.0673447
   8.5238819  28.1477718  76.8157654  74.5512085   6.9869041  71.7087860
  74.0461578   7.7728558  71.9171906  75.4435577   7.1952672  71.9854279
   4.5723453  23.0751247  60.5556870   4.1242566  23.8577328  60.8765831
   4.8901253  22.6397800  61.3467140   2.0416250  32.9188499  58.3219757
   2.5874417  33.5148811  58.8348732   1.3097835  32.7060623  58.9010773
  19.7525215  47.7812500  61.4390602  19.5914497  47.5652351  62.3575516
  20.2482033  47.0354424  61.1009750  19.4149475  57.0376587  55.7576866
  19.8417168  57.8910103  55.8344307  19.4547863  56.8330956  54.8234482
  54.7333260  55.3713226   8.7858934  54.7121391  55.3113060   7.8308120
  55.5081329  55.9004288   8.9754992  33.3592758  16.5779266   5.4541545
  33.1097107  15.9906197   6.1676102  32.8183899  16.3000965   4.7149086
  52.2272530  15.9033346  15.3403091  51.9038696  15.0137262  15.4826126
  51.8906975  16.1453762  14.4775352   8.1122570  59.5260353  71.2220154
   8.8423996  59.8890114  70.7206497   7.7572947  60.2733650  71.7033997
  21.7214489  46.8432159  21.7632484  22.4236298  46.5926132  22.3635597
  22.0856304  46.6899834  20.8913975  83.9041061  50.9994240  53.8990440
  83.2564774  51.0517883  54.6019363  83.7397156  51.7756310  53.3635864
  32.6540146  59.3341522  32.7082710  32.1532440  58.7446251  33.2721176
  33.0953522  59.9285088  33.3150635  76.6499939   6.3473964  17.8729496
  77.3018570   6.4845295  18.5603333  75.8110123   6.5180192  18.3010101
  70.0939865  28.0098000  85.9683380  69.6685104  27.3647156  85.4034805
  70.9959717  28.0487423  85.6503220  58.4354782  22.4454670  11.0467997
  58.1109390  23.1204853  10.4507666  57.7700691  21.7581043  11.0153074
  33.1644592  53.8549728  72.9517593  33.9293289  53.3535767  72.6692581
  32.7157631  53.2789879  73.5707474  60.9034119  25.4652805  72.2169647
  60.8617020  25.8350010  73.0988922  61.5020752  24.7226620  72.2966461
  65.0278625  38.5062256  42.5527420  65.6710510  38.8204346  43.1882057
  64.6124039  37.7584496  42.9822197   3.1836374  27.8159561  76.4394379
   3.4271252  28.3663635  75.6951294   2.4079168  28.2395515  76.8069382
  15.5895500   7.0945730  47.2688522  14.8454571   6.8501773  46.7185555
  16.0798740   6.2805934  47.3839645  36.1973801  64.5863266  75.4115753
  35.3148155  64.2667236  75.5990753  36.3560600  65.2558517  76.0770035
  18.5930843  36.3470306  14.8388920  18.6448212  35.9185600  15.6932726
  18.1687698  37.1863251  15.0171576  62.6474495  64.5142975  12.7596645
  63.0792580  65.1267471  13.3552141  63.3452034  63.9233971  12.4764605
  67.2952347  58.7446136   4.5118594  67.1862946  57.8080597   4.6768794
  67.4576492  58.8046379   3.5704505  68.3531570  56.7287254  61.4504738
  67.8746414  57.0820122  60.7005119  67.6803894  56.3125954  61.9894066
  18.3464108  15.8125181  50.7568665  18.9696331  16.2672653  51.3234596
  18.2149334  14.9632769  51.1784515  44.5064392  34.1931572  88.9453125
  44.6059380  35.0694008  88.5731125  45.4027100  33.8726158  89.0462418
  33.6708107  50.3476219  15.7093554  34.5501938  50.4445038  16.0747757
  33.8108597  49.9481430  14.8508472   7.1647410  52.6113968  34.0693970
   6.2803154  52.4347801  33.7487259   7.2240605  52.1223412  34.8900909
  31.8829994  34.7612610  23.5274506  31.7471333  35.5442772  24.0609875
  32.6884842  34.9391098  23.0418606   7.1093078  33.2812805  57.1787453
   6.1747503  33.4499664  57.2986603   7.5426598  33.9231682  57.7412529
  55.1768074  33.7638664  60.3349037  54.2825661  33.9799461  60.0705643
  55.5108185  34.5690002  60.7304077  10.5696058  10.0605936   1.1097747
  10.3539906  10.8739767   0.6535405  11.2609987   9.6645060   0.5793770
   9.2026577  48.2941513  71.7706070   8.6662502  49.0804024  71.8721390
  10.0376682  48.6160927  71.4309845   3.9710405  50.2381554  23.1893711
   4.9062285  50.3708153  23.0342693   3.7481136  49.4687996  22.6653214
  10.2576427  51.2513695  41.6464310   9.3631830  51.5877380  41.7014885
  10.2518120  50.6799774  40.8785057  31.0925732  58.8035316  63.4746284
  30.4985390  58.4821739  62.7963371  31.2705498  58.0371742  64.0198364
  86.4624557  39.6126900  46.0571823  85.7346344  39.1012077  45.7037926
  87.0151443  39.7988815  45.2981682  84.3948212  45.8302116  30.7190628
  84.7310486  44.9364510  30.6529102  84.9518967  46.3398438  30.1307068
  70.4111633   5.6188154  24.7979240  69.7962341   4.8912945  24.8917542
  70.0056763   6.3389564  25.2808456  50.2765503  56.2131958  47.4625854
  50.6332092  55.6427078  48.1434441  50.6411972  55.8696251  46.6469727
  56.3351479  31.7112980  61.9883347  55.6276512  32.2449493  61.6265297
  57.0958862  32.2922440  61.9912720   4.2122188  16.2771530   1.3595154
   4.9706674  16.8121967   1.5934297   4.1139789  16.4006710   0.4154159
  11.1521606  67.2757645  46.3334885  11.4062681  67.6449814  45.4877090
  10.8047848  66.4092789  46.1219254  42.5129089  54.5865593  67.6698837
  41.6461143  54.9750671  67.5517120  42.3584976  53.8197594  68.2216110
   2.2436113  62.1508255  14.8130236   2.9580538  62.4759560  14.2652149
   1.4502060  62.4874115  14.3965511  56.3322487  32.1673546   1.4215804
  55.5902328  31.7469730   0.9869295  56.2673340  33.0883675   1.1690799
  30.0418015  16.2829075  32.8851852  29.6744251  16.8020020  32.1697769
  29.7616291  16.7376728  33.6794930  71.9948502  17.0343628  38.9800568
  72.1013260  16.0838318  39.0172386  71.6691208  17.2044926  38.0962067
  18.0825233  63.8993530  25.5322723  17.8209381  62.9920769  25.6893101
  17.3476791  64.4200363  25.8565006  72.9093323  56.2585831  41.0916977
  73.3521576  56.2819748  40.2434082  73.1700745  55.4211235  41.4749794
  21.0289879  64.4885712  81.2708893  21.9548683  64.4615326  81.5122299
  20.6194324  65.0221329  81.9519196  55.1518097  46.7990761  86.6903992
  55.9364700  47.2259979  87.0343170  54.9261055  47.3054810  85.9101181
  78.7572632  20.9601650  74.6769638  78.5237427  21.8517685  74.4186172
  79.4826508  21.0711040  75.2915649  48.9150772  42.1663666  28.9382038
  49.3872299  42.9584160  28.6813736  49.1235962  42.0533180  29.8655510
  67.2826614  33.4525681  72.4283981  66.9226379  32.6120262  72.7114334
  67.8806915  33.7059364  73.1315308   3.7252071  58.1548462  77.6781693
   2.7898331  58.3571129  77.6980591   4.1511049  58.9627609  77.9647217
  36.0010567  16.5174103   5.1755967  35.0605087  16.4607582   5.3440871
  36.4072037  16.1356621   5.9537635  86.4402924   1.0997967  28.4792061
  86.7878647   1.6625905  27.7873306  85.4919128   1.1209491  28.3513451
  11.1537743  45.4579430  60.8375740  10.7943487  45.9529991  60.1013908
  10.6449871  45.7501259  61.5938759  72.6164093  24.4122429  33.8975182
  72.3276215  23.5872822  34.2877464  72.5563278  25.0483284  34.6102715
  43.3302422   0.9726313  20.2671852  43.0371742   1.8580341  20.0517673
  43.7226143   0.6465251  19.4572887  80.4342422  55.1693726  12.1000042
  80.6272583  55.9874840  11.6421032  80.9048157  55.2428474  12.9303026
  26.5125828  54.3273392  66.2317810  25.7469425  53.9546661  66.6689835
  26.7677002  53.6649857  65.5895691  63.6142616  27.0724373  59.5755234
  63.4158516  27.5998974  58.8017960  64.4752350  26.6955490  59.3941193
  80.8653030   2.4717708  49.1619873  79.9486084   2.1999834  49.2070312
  81.1433029   2.2311809  48.2782097  63.7606506  41.0160484  68.4289017
  63.3006973  40.5209923  67.7509689  64.6766510  40.7538681  68.3370514
  46.8045807   9.6783009  28.2919235  47.2814636  10.1833544  27.6333370
  45.9172897  10.0368662  28.2725220   1.8420701  26.4707108  57.4445152
   2.7834542  26.6419716  57.4709282   1.6170765  26.2301693  58.3432655
  66.5927963  18.6732368  78.0378952  66.5812836  19.5698051  78.3729553
  66.8568954  18.7631054  77.1222534   3.8299224  54.2991104  81.9375687
   4.4614859  54.6966095  81.3381119   2.9891231  54.6830063  81.6887436
  53.4419479   2.2670584  65.6646194  53.9324875   2.8548672  66.2391510
  53.9401741   1.4498274  65.6763077  44.7994423  64.7267685  35.3588562
  44.0587006  64.2509460  35.7345276  44.5596085  65.6494751  35.4443893
  45.7514381   7.2039518   2.8185108  44.9898186   7.5452161   2.3497832
  45.4110680   6.4648023   3.3225317  39.7882729   8.2390289   5.8089252
  39.2378349   7.4963670   5.5605226  39.9554596   8.1114788   6.7427406
  31.0493526   7.2365260  79.8769455  31.0655708   6.3279600  80.1777420
  31.9238148   7.3853831  79.5172424  27.8169651  12.2617216  15.1234636
  27.2485714  11.5017433  15.2483387  28.6976566  11.8932657  15.0537844
  12.3971653  15.4660378  40.6758728  11.6176567  16.0201473  40.6363678
  12.7743616  15.5203180  39.7978058  67.3096771  32.6218758  23.8515930
  67.4538422  33.1115799  23.0418797  68.1502304  32.1997452  24.0290890
  68.1991043  34.1044273  59.4617424  69.0119324  34.5884399  59.3158684
  67.5186234  34.6581383  59.0788803  53.8807373  13.5896664   4.9540176
  52.9839783  13.4354668   4.6568961  54.1202393  12.7879210   5.4188561
  30.3486958  49.9480629  75.6292343  30.5265217  49.6173706  76.5097122
  29.4752655  49.6165733  75.4207535  63.1908836   4.0814500  25.5694256
  62.6231194   3.8216062  24.8439198  63.8375816   3.3784516  25.6311169
  51.7951775  47.4192924  82.7186661  52.3091469  48.1521111  83.0578537
  50.9715652  47.4590950  83.2047882  32.5510864  58.4656601  42.7007790
  32.1090012  57.8416786  42.1250687  33.3442307  58.7107887  42.2242622
  18.3150311  20.2016106   2.8639359  17.6196537  19.5440331   2.8804998
  19.1093349  19.7158928   3.0861752  83.4648819  64.4286957  15.4939308
  84.4055481  64.6039276  15.5198441  83.1257095  65.0380630  14.8382864
  52.6118164  12.8122196  57.3797531  51.9531479  12.1481047  57.1764374
  53.4490776  12.3686743  57.2437553   2.0846858  13.0307398  14.2241993
   2.0604031  13.9649630  14.0171509   2.0173044  12.5952625  13.3744631
  51.2097511  51.7345810  30.9373970  52.1512680  51.7289772  30.7649250
  50.8650780  52.4182281  30.3628864  36.2237892  25.1119690   1.0186216
  36.9641533  24.9232540   1.5952291  36.0495911  26.0440083   1.1497338
  15.6294546  42.4721451   3.3759346  15.7428341  42.3304253   4.3157706
  16.3869610  42.9983521   3.1199629  58.5170364  42.5619850  73.2563705
  57.6409569  42.9356575  73.1610718  58.7502861  42.7282257  74.1697083
  73.6865768   3.0411172  69.2494202  74.3174133   3.6249325  69.6706467
  72.8427811   3.2862458  69.6291046  78.5213013  48.2351952  58.5965652
  77.9429855  47.7908440  59.2165070  79.2040482  48.6246719  59.1428261
  55.9343605  19.8131161  85.4139175  55.0321159  19.5294285  85.2665863
  56.4478302  19.3208942  84.7733765  76.6124191  46.7585526  24.2938232
  77.3420639  46.2468300  23.9445457  76.4434509  46.3775024  25.1554966
   5.1829200  69.8592682  88.1328278   4.3803477  69.6912613  87.6389847
   5.4433804  70.7429810  87.8731384  82.3153839  22.2852764  14.0457726
  82.2178268  23.1630764  14.4147949  82.8955994  22.4046745  13.2938862
  85.8259277   9.1749773   3.8251505  86.4845276   9.4601488   4.4585166
  85.9189758   8.2227821   3.7951500  31.2334766  39.3608437   3.6883142
  30.9032688  39.4096184   4.5854292  31.1595230  38.4352493   3.4558630
  31.8827324  33.0848389  28.3279800  32.2054596  33.7152176  27.6840096
  30.9984665  33.3864784  28.5361137  51.6043625  66.9297714  37.2268906
  51.7517357  66.3447952  37.9700699  52.3875847  66.8312225  36.6855202
  20.6053352  23.6579857  18.6431847  20.8931866  24.5014153  18.2938957
  20.7047424  23.7448578  19.5912361  29.4081497  35.7702942  15.2447767
  29.2270451  36.6958580  15.0811663  28.5973625  35.3215637  15.0049982
  12.2599936  42.7404747  82.6728592  13.1446009  42.4937401  82.4029999
  12.2858543  42.7161827  83.6294022  86.1859741  15.4443092  74.3991165
  86.3334503  14.8939524  73.6299667  85.2624283  15.3132648  74.6138687
  15.6691122  51.5902672  68.1531296  15.2404022  50.8078079  68.4998245
  14.9725504  52.0631027  67.6976547  60.4352646  41.5467606  87.5436707
  60.8134727  40.7561340  87.9285049  60.5000267  42.2046623  88.2359161
  72.3980255  70.6167908  69.2204819  72.8963699  71.3984909  69.4588776
  72.3768158  70.6288528  68.2635880  75.5512238   8.3949499   1.9370478
  75.0449677   7.6001339   2.1049967  75.1563797   9.0552320   2.5065727
  26.1890202  10.4888391  25.9894218  26.1366634  10.0060349  26.8142796
  26.4417114  11.3755589  26.2465343  31.3870564  52.4801559  19.1463871
  30.5257587  52.5810432  19.5516281  31.7427578  51.6812439  19.5355453
   2.3251684  26.5045967  19.6262627   1.8217515  27.0598431  19.0308609
   2.8162918  27.1203098  20.1702538  85.5836182  26.8794403  10.1542320
  85.3746109  27.6445274   9.6183319  86.0573502  27.2356644  10.9058428
  50.9979172  54.7749023  19.8924370  50.7667389  53.9788208  20.3710251
  50.2841797  54.8933830  19.2657223  63.7973824  50.3116913  -0.2407566
  62.9368706  50.0110474   0.0514181  64.4181442  49.7597046   0.2348472
  40.6844864   8.1766701  65.2075348  40.0473824   7.5547152  65.5589600
  40.1964417   8.6746845  64.5517731  63.0735207  60.4615135  88.0593185
  62.3483620  61.0187912  87.7768021  62.6783752  59.8519173  88.6826096
  23.7987423  53.5369225  60.7487793  23.4748287  52.6445007  60.8708229
  23.1138191  53.9731102  60.2419777  33.6354218  15.8241081  11.6732006
  34.2867317  16.2675552  11.1297112  33.6133842  16.3328419  12.4837160
  12.3326826  63.5602341  86.1113358  11.9610472  64.3828888  86.4297028
  13.1956491  63.8016319  85.7748108  86.3684845  33.7655411  63.6067429
  85.7708969  34.1930504  62.9932632  86.9800110  33.2842712  63.0493851
  26.7517395  48.6190796  31.8891392  26.3090343  48.4889069  32.7277679
  26.0651379  48.4943924  31.2339573  60.8902855  48.1151314  35.3479996
  61.7403831  47.9412651  35.7521439  60.5116730  48.8160515  35.8786583
  58.8683548  70.3618927  47.9287605  58.6525040  70.8989029  48.6911659
  58.3330612  70.7229996  47.2221527  80.6977081  40.4600830  44.9020119
  79.8291092  40.4593086  45.3042221  81.1822891  39.7850990  45.3772087
  32.9123154  52.2205391  12.3233166  33.7273026  52.7076569  12.2018986
  32.7097893  52.3205872  13.2534809  47.1845779  23.7148457  23.6390076
  48.0040436  23.9466839  24.0759945  47.1752052  24.2521439  22.8468876
  10.5338306  47.9397621  15.6396389  10.6895542  47.8932533  16.5829411
  10.2889156  48.8515663  15.4819832  64.5595932  43.4940529  23.2253094
  64.1284027  43.7966003  22.4260788  64.5156403  44.2432327  23.8194733
   9.3576078  46.8340378  74.1306915   8.4807539  46.7670441  74.5086746
   9.2252216  47.2854080  73.2970428   5.4389420  45.1215477  55.6708603
   5.3765731  45.7993889  54.9979019   6.1073842  44.5197296  55.3434029
  17.0081367  56.0200844  83.9830093  17.4900150  55.2416763  84.2624817
  16.2917461  56.0973549  84.6131210  47.8452301  11.1420107  73.8846359
  47.1456909  11.2221661  73.2362137  47.8603249  11.9908085  74.3268433
  37.5466232  32.8901901   1.3096488  36.7209244  33.3742714   1.2987822
  37.6506615  32.5739021   0.4122243  65.4366302   0.4361517  16.8259163
  64.4860306   0.3242244  16.8182430  65.5661469   1.3755386  16.9563389
  79.3070908  65.4564438  42.0678635  79.8503723  65.2833405  42.8367043
  78.5202789  65.8730316  42.4194489  53.2983322  48.1510315  76.7347870
  53.9454193  48.0488358  76.0368881  52.4570770  48.1798630  76.2790527
   4.7237639  11.4607315   3.2577722   4.1890097  12.2523556   3.1977639
   4.3690519  10.8804512   2.5842102  83.1084976   1.2995765  21.0950928
  82.1515732   1.3185437  21.1083622  83.3364563   1.3624220  20.1675606
  25.5382805  16.9684391  47.5970001  25.8119049  17.8325768  47.9046135
  24.5986748  17.0574436  47.4374657  31.7823448  53.9620171  17.1341095
  31.7679043  53.3258896  17.8492069  30.8693371  54.2319527  17.0352001
  22.9833889  71.0334778  37.7785149  22.7995167  70.2809906  38.3408203
  22.6973782  70.7573624  36.9077759  40.2380867  18.6766529  72.3484268
  40.2624855  19.4467297  72.9164200  40.7852745  18.9138355  71.5997238
  73.8889542  24.8793201   2.2643287  72.9401932  24.9887753   2.3283803
  74.2334137  25.7723885   2.2611058  15.8508768  69.0008316  12.8099775
  14.8961058  69.0222626  12.7452888  16.0319042  68.3180466  13.4559431
  65.0985641  38.9595146  72.1205826  65.9183197  38.4920692  71.9601822
  64.5825806  38.8173943  71.3269882  78.3682251  28.6643276  44.0807343
  77.4118958  28.6273060  44.0637283  78.6450653  27.7541504  43.9750481
  76.0015564  15.8981724  21.3757153  76.8541183  16.0734177  21.7740288
  75.5798950  15.2813702  21.9740410  21.0980740   5.7705774  11.4844379
  21.4937344   6.6348267  11.3714876  21.1862736   5.5871654  12.4197521
  75.1928024  70.0850830  35.1067085  74.7473602  70.7902298  34.6370506
  74.9703293  69.2932816  34.6170311  76.4035873   5.4325619  77.0861969
  76.4113998   5.4483848  76.1291580  76.7752838   6.2765164  77.3427353
  30.3256569  29.7793293   2.2972212  30.6669178  29.8473244   3.1889331
  29.3964214  29.5797901   2.4109557  72.1082535  67.4964447  36.1686058
  72.4616699  67.4318314  37.0558205  71.8715057  68.4188232  36.0716782
  68.4418945  41.6583481  25.4816742  68.4894180  40.7526512  25.1755848
  67.9733887  41.6053658  26.3147011  17.7572708  43.4986496  19.2785740
  18.0662785  44.4045868  19.2740498  18.1615582  43.1115646  20.0550728
  44.6935005  50.5023499  55.8204460  45.0999374  51.3089905  55.5036278
  45.2220573  50.2490425  56.5772133  82.7631226   8.3041306  68.4836655
  82.8577576   9.0967684  67.9554596  83.2413559   8.4954405  69.2904663
  67.9590530  58.4727211  69.1152267  68.6483459  59.0891609  69.3624191
  68.2843933  58.0572701  68.3166122  76.4289856  46.4199715  69.3077850
  76.7003784  46.3381844  68.3935165  76.1138229  47.3205452  69.3844223
  65.4217529  37.1291084  62.0436516  64.6399231  37.6633110  61.9036598
  66.1286240  37.7643700  62.1577034  81.6949234  13.5954285  15.8731422
  82.5235291  13.1165705  15.8915615  81.9393768  14.4877462  15.6276951
  52.5937614   7.6791792  73.7080612  52.2832184   7.7944589  74.6061172
  53.4573364   8.0919428  73.6984100  45.7218781  69.1019287   8.6069365
  45.5196381  68.7811432   7.7280579  45.5732346  70.0462112   8.5573359
  60.2396774  18.0498009  73.0845871  59.3569908  18.4052677  72.9809418
  60.1020966  17.1364498  73.3357773   2.6745303  40.7875443  24.6701889
   2.9551268  39.8894691  24.4942417   1.7244734  40.7685471  24.5550232
  13.1738787   3.2449136  52.4795227  12.7905979   2.9331501  53.2993584
  14.0807810   2.9400322  52.5079231  36.4941902  13.9611816  11.3026514
  36.0977135  14.5860319  10.6955271  37.4026375  13.8867311  11.0103912
  21.5579624  68.9889221  42.4715309  22.4011803  69.2709198  42.1169968
  21.4007416  68.1362305  42.0660324  55.0355225  19.6646824  55.2651329
  54.9767418  18.7111359  55.3245049  54.9263496  19.8538132  54.3331757
  69.0532761  48.8316803  76.1646805  68.3819122  48.6813965  76.8301926
  68.6969070  48.4331589  75.3706970  40.9916916  46.7932396  74.5298004
  40.9588394  45.8985939  74.1910400  41.8739204  47.0976410  74.3171082
  71.5110855  21.4831295  40.7334900  71.9395752  22.3233204  40.8969154
  71.2712021  21.1634254  41.6032486  71.5682297  47.8831787  58.3190231
  72.0140839  48.7220840  58.2020569  72.2662735  47.2715797  58.5533562
  72.1241531  27.8764439  41.0945702  72.5254974  28.6162186  40.6386261
  71.3445206  28.2453518  41.5096741  32.8003387  64.3592453  53.1187630
  32.0217056  64.8479614  53.3854485  32.8072319  64.4222946  52.1636696
  37.6925621  19.7741318   9.0243025  37.7419014  20.6785793   8.7148314
  38.2939682  19.7424145   9.7683020  64.7886963  19.7503605  29.8505135
  64.0233459  19.6318741  29.2879887  64.7429581  20.6654491  30.1275558
  68.6433640  39.9957047  66.4907913  69.2033920  39.5256805  65.8729935
  69.1130142  40.8108368  66.6674652  11.3061762   8.3873968  35.9298172
  11.7398081   7.7527308  36.5002518  10.4044733   8.0730906  35.8636703
  49.7217865  37.9920883   1.0132351  48.8271866  38.1871147   0.7341484
  49.7310104  37.0436897   1.1423936  38.6489677  71.0887375  30.6587181
  37.9883690  71.2693939  29.9899826  39.3126755  70.5688477  30.2054691
  38.3046150  67.1028595  53.0578537  39.1070175  67.6226273  53.1049500
  37.5990944  67.7495804  53.0727348  21.4384079   3.9384193  86.9237442
  21.5153332   4.8604236  86.6783371  20.8401241   3.9385543  87.6709290
  17.6498699   6.9304004   2.6866124  17.3368568   7.5539908   3.3418903
  18.5785484   7.1378565   2.5829315  61.4022217  65.6948853  72.2644501
  61.6371574  65.0238342  72.9053268  62.2281189  65.9133377  71.8327026
  66.7822113  65.7415924  55.4638290  66.1798401  66.3034515  55.9513779
  67.4575500  65.5056992  56.0998344  47.1426239   0.7216737  84.0234985
  47.6093788   0.7631564  84.8581619  47.7645912   1.0683117  83.3837891
   7.6671681  69.3140945  15.4373569   7.7692842  68.3937683  15.6798649
   8.3125696  69.7758484  15.9725866  58.4742546  69.9399719  44.4081726
  59.1929054  69.6646347  44.9773521  57.7286110  70.0472107  44.9987221
  22.2859936  67.1605072  52.1995125  21.8410587  66.5995560  51.5642204
  23.1544895  66.7700424  52.2968941  57.4762039  20.9617958  25.0635986
  57.3711014  21.6468868  24.4034214  58.3231888  20.5636215  24.8628273
  62.4495239  46.7151985  11.6907558  63.4040527  46.7635918  11.7433414
  62.2022362  46.1026382  12.3834667  78.7872696  12.5789537  54.1764832
  79.0735855  11.7328100  53.8325386  78.5457840  13.0838404  53.3999481
  40.9794350  27.3204384  74.1903000  40.6146851  27.0229263  73.3568268
  41.8137169  26.8572559  74.2655945   9.9698944  63.8345337   8.2770481
   9.9185562  63.9703026   7.3309174   9.8158455  64.7015991   8.6521444
  82.5942001  65.2352142  37.0944328  81.7804337  64.7438583  36.9822044
  83.1052551  64.7139816  37.7136040  56.0212631  51.7949867   2.6213639
  56.7311592  52.4079399   2.4301436  55.2283745  52.2514572   2.3399494
  50.5620155  62.2400665   6.1614547  50.1767044  62.2056541   7.0370016
  50.2339973  63.0578156   5.7873917  63.7713203  18.2910576  60.4643021
  64.5963287  18.2731380  59.9792595  63.7165909  17.4285297  60.8757401
  64.2823715  64.4741516  72.5573959  64.4352112  65.0612793  73.2977753
  64.7252502  64.8964996  71.8213882  17.8959980  66.9387817  85.1605225
  17.4840374  67.7448883  85.4715118  18.1625023  66.4826355  85.9587326
   5.9216909  53.7505188   9.3132353   6.5282707  54.0950546   8.6578064
   6.0168605  54.3402939  10.0611248  78.3482819   2.7790453  87.0637207
  78.3150024   3.0023954  86.1335373  77.9110870   1.9295094  87.1218414
  85.5634766  28.2447834  41.0585442  84.6318817  28.0411816  41.1416855
  85.8034210  28.6190815  41.9062233  41.9795799   6.8630629  86.6998749
  41.5198784   7.5434518  87.1917877  41.3355064   6.5502071  86.0646439
  75.7189407  38.2282791  51.7341881  75.7911987  38.8631401  52.4469032
  76.4561691  38.4301033  51.1579933  47.4361038   7.8851652  13.0510378
  47.1187897   8.2752514  13.8655176  47.1062660   8.4640732  12.3637934
  64.0039291  49.6537361  52.1785469  64.7914429  49.6546135  52.7226562
  63.2819252  49.7323418  52.8020592  75.8823471  28.3986626  71.6911545
  75.7910156  27.8117409  72.4417572  76.8225327  28.4140015  71.5121155
  26.1203403  34.0226746  88.2270737  25.4534550  33.5697708  88.7431870
  25.6323586  34.6756325  87.7253265  51.5297928  32.9958115  86.5904465
  51.6106720  32.9530296  87.5432663  52.4300575  33.0837860  86.2773666
  16.5350246   7.4260240  16.4428291  17.1190815   8.1670227  16.6041641
  15.9365454   7.7363062  15.7632847  49.6581306   4.2789249   1.2317809
  50.5375748   4.6551194   1.1958903  49.1090088   4.9856071   1.5713320
  71.0586624  56.7823601  43.7173805  70.1195755  56.7869682  43.5321121
  71.4676437  57.0293541  42.8879433   6.6974654  64.1783981  42.5303688
   7.3788142  63.6351929  42.1342392   6.8805752  65.0623245  42.2119560
  40.4664154  18.9519997  88.2138824  40.3012276  19.8714638  88.4225311
  40.1762924  18.4742126  88.9909210  17.1883965  45.2202606  62.9272957
  16.4244289  45.7958031  62.9638710  17.0230904  44.6502151  62.1763306
  41.2298546  61.4313927  64.9973373  41.2698288  61.2545090  64.0574722
  42.1457710  61.4892197  65.2693405  86.4906311  56.7493935  38.8901596
  87.4128418  56.4930687  38.8976364  86.1940002  56.6027908  39.7883530
  55.4757385  22.3702183  76.3402100  54.7893639  21.7059116  76.4020462
  55.9649925  22.2860031  77.1586075  43.3330879   7.8956990  31.1677761
  43.9743195   8.5518913  31.4406567  42.5023766   8.3703384  31.1383286
   9.6671352  52.3842659  73.6758194  10.1775074  52.7666397  72.9619980
   9.2173471  53.1292534  74.0744629  52.5112495  12.9617729  69.3843002
  51.6790771  12.7034197  68.9880905  53.0054016  13.3580427  68.6666565
  31.3400497  54.2196083   6.9360094  31.0392857  53.3120995   6.9829431
  31.2613640  54.5446930   7.8328700  71.3495560  39.6180458  70.2628937
  70.8038788  39.0051880  69.7700806  72.1821899  39.1596642  70.3762054
   4.4145861  22.0545807   8.4530725   4.0436563  22.3747292   7.6307907
   3.6545670  21.8956184   9.0128355  83.4791336  46.0588684  26.1789799
  84.1484680  46.7404366  26.2397175  83.8957062  45.3581047  25.6773491
   4.5546260  18.6726799  34.3562126   5.3338456  19.1948509  34.5469627
   3.8529229  19.1019573  34.8456688  47.2700310  62.5095901   1.1319087
  46.7315674  62.7533035   1.8848310  46.8536911  62.9457283   0.3884877
  80.5645370  10.3024969  10.9638271  80.3514481   9.3813305  10.8145790
  81.4589310  10.3975420  10.6363220  33.3370514  68.0911255  71.1583481
  32.8483047  68.7638168  70.6841736  33.2246056  67.2986221  70.6334381
  41.2180786  35.8528938   7.7293501  42.0011444  36.3307915   8.0025730
  41.5449448  35.1771088   7.1354613  39.1357079  10.7301788  29.1845798
  39.0480537  11.6456718  28.9192104  38.8447266  10.2307367  28.4216137
  68.3297501   4.8719606  47.0991325  68.7004089   5.5650129  46.5527611
  68.4954071   5.1601992  47.9967461  61.5147095  31.5839081  81.9507751
  61.1406403  32.3063469  82.4551392  62.0726089  31.1197224  82.5748825
  80.1077118  26.5091248  41.0019608  80.3969421  25.8255634  40.3975410
  79.6739044  27.1544991  40.4438095  10.2280531  25.2588615  32.3739815
   9.7892408  24.8698444  31.6174488   9.9734383  24.7030487  33.1105118
  73.1402817  56.9412575  57.2428246  73.0285492  55.9924278  57.3017502
  74.0649796  57.0605354  57.0261612   1.6790138  51.9676399  22.6146851
   2.3194044  51.2607727  22.5342541   2.1347477  52.7423134  22.2854137
  48.2465820   4.2520976  25.2067051  48.4538345   5.0467138  25.6985016
  47.7819328   3.6971111  25.8330650  11.6012650  70.3508987  15.7030592
  10.7866631  70.0704422  16.1201878  12.2601891  69.7370911  16.0275383
  86.5211716  17.6007423  54.0760574  85.9439392  18.2856636  53.7385483
  86.1608963  16.7877884  53.7217369  85.3962784  60.7744560  57.2176590
  84.6768341  60.2504921  56.8653984  86.0469742  60.1305466  57.4973106
  20.2129784  68.3803406  50.1834373  21.0412369  68.4491043  50.6582985
  20.2283268  69.1131058  49.5677643  71.9989014  33.2683029  63.3645630
  72.8215408  32.7864799  63.2788963  71.7266006  33.4394951  62.4630203
  36.1901588  41.4384842  13.0299215  35.7003784  41.9976921  12.4269037
  37.0976334  41.5022392  12.7321720  33.5156517  53.7907333  79.3349075
  33.2118340  52.9134026  79.1020660  33.0196648  54.3757935  78.7622604
  32.2977448  14.8748255   7.4318953  31.6284752  14.2568674   7.1378908
  31.9246788  15.2765589   8.2165375  68.6150970  51.4201088  64.5299530
  68.8724213  50.7476768  65.1607132  68.3453674  50.9295387  63.7535400
  57.3125687  31.3516941  82.6224365  58.0250931  30.8344288  82.2469635
  57.7329636  31.8834019  83.2982941  48.5638542  70.1606598  70.4029694
  48.2204399  69.8229065  69.5757980  48.0851974  69.6771622  71.0762787
  18.4480476  13.4318066  79.4420395  19.1364803  12.9291792  79.0065384
  18.8296642  14.3003759  79.5692749  72.9398651  10.2473154  21.9121361
  72.7661591  11.1880531  21.8794327  73.5965271  10.1011963  21.2311954
  69.4738312  49.9336510  44.9456749  68.5736313  49.6256104  44.8408623
  69.8061066  50.0111847  44.0513535  73.8178482  18.6428108  22.5995274
  74.5143585  19.2468777  22.8568363  74.1590576  18.2010918  21.8219070
  58.8847733  48.2101440  38.2909012  59.6009636  47.9070549  38.8489685
  58.3478889  48.7558823  38.8654900  57.3514824  48.0283966  31.6994820
  58.0340004  48.3246765  32.3016586  57.7790146  47.3613129  31.1624069
  23.4370728  23.3670845  79.6740036  24.1285152  22.8079262  80.0282364
  23.1860123  22.9458561  78.8519516  82.8769989  24.9865265  42.1272202
  82.6099472  24.8244591  43.0320129  82.5765381  25.8768177  41.9446259
  34.2374763  45.6988983  79.8258133  33.4106483  45.9902687  79.4415054
  34.0864334  45.7294807  80.7705231  59.5561295   7.1576376  59.5132904
  58.6783562   6.7960935  59.3906670  59.4071312   8.0725775  59.7518654
  45.7530174  52.1117516  27.8191452  45.7101517  51.2494888  27.4057522
  46.6143570  52.1349525  28.2360249  35.1758575  63.4902573  83.5500183
  35.8073349  63.4369202  82.8326416  34.4559097  64.0130157  83.1969910
  63.8571510  14.8300285   8.1994419  63.0623856  14.8999662   8.7282925
  64.3162079  14.0696983   8.5563660  61.0257912  50.6760063  16.6043320
  61.7858009  51.2568779  16.6390209  61.3424721  49.8457298  16.9601288
  32.4611588  21.9723358  29.0749016  32.1315346  22.1071186  29.9633904
  33.3808594  22.2340412  29.1183701   4.8916988  60.5735626  77.6673355
   5.0626326  61.4133873  77.2410660   5.7114077  60.3599892  78.1130905
  38.7196808  17.6771812  86.0652695  39.4017181  18.1477947  86.5444107
  37.9005432  18.0695419  86.3674164  44.4276237  54.7884636  47.9681816
  44.0817757  53.9189415  48.1695633  44.3964500  54.8433189  47.0130653
  24.9913635  22.0267696  83.2966843  24.6922722  21.9660854  84.2039337
  24.3632927  21.5006638  82.8017426  69.1798172  37.1445503  58.2954636
  69.4907837  37.3187752  57.4071045  69.8959656  37.4337044  58.8609314
  52.0297279   0.6969669  49.8656921  52.1825485   0.8435040  48.9322014
  51.7949181  -0.2289248  49.9275017  43.8006859  60.8137131   3.1609380
  44.1880875  59.9624901   3.3648343  43.9342957  60.9181976   2.2188852
  18.5381584  54.5590172   9.2247362  19.1089535  55.2270660   9.6043901
  17.7721119  55.0444107   8.9184790   9.1560869  34.3990974  65.3205261
   8.4631615  34.5012894  65.9729385   8.7065239  34.4785004  64.4792023
  74.2557602  17.8206654  40.6827774  73.6283875  17.5595112  40.0086632
  74.0440369  18.7361450  40.8652573  67.3053665  51.5437126  73.4580994
  66.9215546  51.0393944  72.7407532  66.5692368  52.0295372  73.8300095
  68.9794312  25.7042999  76.8368683  68.8793488  26.6135349  76.5548935
  69.5481415  25.3097229  76.1757202   5.5920773  67.4396057  52.8032455
   5.1147141  67.7661209  53.5659676   4.9187059  67.3154449  52.1343765
  18.8574448  28.3791943   5.9579396  18.9374466  27.6153011   6.5291662
  17.9865685  28.2974186   5.5692010  76.7280273  19.7648735  64.7047348
  76.6284180  18.8133106  64.7336807  75.9278030  20.0767155  64.2821045
  78.0756760  58.6337662  41.6239052  78.1299744  58.8423119  42.5565300
  77.3949203  57.9632187  41.5676575  73.7103882  21.1135807  65.4284363
  73.3220901  21.2603035  66.2909470  73.3558884  20.2703381  65.1464767
   0.5317396  22.8770523  28.9705563   0.0161892  22.5382824  29.7024536
  -0.1117355  23.0464573  28.2824612  84.1881790  50.3641891  77.2119446
  84.8221893  50.7504272  77.8161697  84.0577087  51.0343361  76.5410461
   0.8757874   9.3674812  80.8228378   1.3723500  10.1444874  81.0795822
   1.5405943   8.7446871  80.5289078  44.4466019  68.6815109  88.4998169
  45.0902519  69.1919632  88.0085144  43.8668365  68.3188019  87.8300858
  65.0368881  63.1029167  36.9925728  64.6592636  63.8701172  37.4227257
  65.1068649  63.3548050  36.0717659  25.9962559  53.1823807  85.3161697
  25.1310196  53.5712128  85.4442673  26.4811249  53.8371964  84.8138275
  85.8032532  15.1991558  68.4476089  85.2057495  15.9430618  68.3712616
  86.6683273  15.5673494  68.2678680  66.0079956   9.8647709   3.2024572
  65.7423706   9.3036451   3.9310288  65.1870499  10.2212753   2.8630600
  45.9142113  52.8868713  55.4517212  46.0155449  52.8232689  54.5020256
  45.1542969  53.4559326  55.5739326  79.1384735  30.5163212  27.1369591
  79.4056015  31.1082973  27.8401241  79.2831192  29.6399612  27.4937515
  55.2491264  56.1675873  67.5664368  55.4389496  56.1676674  68.5046234
  55.1875992  57.0942078  67.3344421  29.7279358   0.7133780  88.3668823
  30.0511208   1.1809518  89.1370468  30.0428696   1.2286519  87.6242218
  78.9599686  58.7216263   2.9812729  79.3166199  58.4405479   3.8239033
  79.7280884  58.8318558   2.4208515  10.5107059  17.3158855  53.2022476
   9.9873495  16.5435410  52.9882011   9.8696108  18.0198002  53.3009071
  29.6144543  70.0973969  61.0049477  30.0948982  69.2795029  60.8766861
  28.7727222  69.9509354  60.5733604  76.8520508   3.4544115  53.8377495
  77.4083176   3.4527330  54.6167259  76.6405182   2.5322456  53.6925087
  74.4473114  33.1684036  61.1340942  73.7612534  33.8122635  61.3101616
  74.1941376  32.7703133  60.3012352  32.1162453  47.0748558  78.6608658
  32.2070007  47.0617638  77.7080688  31.6667824  47.8991356  78.8473434
  55.8006134  14.7580347  45.9662819  55.8196831  14.0737858  46.6353645
  56.6413803  14.6763124  45.5160980  45.4751015  12.3998079   8.7647181
  46.4196396  12.3117485   8.8924646  45.2869415  11.8656216   7.9930496
  21.8721428  17.2295704  13.2844601  22.6745625  16.8930626  12.8855677
  21.9269924  16.9562016  14.2001534  34.4591141  43.8756027  16.3118286
  34.1208992  43.7389526  17.1967983  34.7421837  43.0067749  16.0267963
  81.4853668  39.6351166  13.8427639  80.8176041  39.2324677  14.3979254
  81.6929474  40.4615288  14.2788620   1.9224787  38.0021935  30.7418003
   1.3056158  37.8103256  31.4481277   2.7854271  37.8837090  31.1386795
  76.9229965  71.1728821  31.9745293  76.0728683  70.9623947  31.5882530
  77.3043747  70.3223495  32.1921806  50.8817863   5.5260415  44.3293610
  50.2044067   4.9072242  44.6022186  51.1908035   5.9183331  45.1459694
  83.6336594   3.6286204   3.3200622  83.8919220   4.1449614   2.5565684
  83.6045837   2.7267723   3.0005989  78.6274033  29.8768482  57.6795845
  78.5299301  28.9260197  57.6280594  78.6398392  30.1661301  56.7672272
  58.3975487  11.4161634  80.4802170  58.4767456  11.2498007  81.4195175
  57.8020554  10.7358713  80.1658630  74.6738892  36.8439293  27.3941288
  75.4574051  36.3994522  27.7178097  73.9536438  36.2561417  27.6221466
   1.7818501  25.2240372  48.3604317   2.2242703  24.3995228  48.5621033
   2.4704356  25.7838173  48.0016441   1.5911769  26.0969944  52.5797081
   0.9026853  25.4446220  52.4507828   1.3628386  26.5264759  53.4041100
  23.7088013  42.6951523  86.2289886  23.5488739  42.5641022  87.1635895
  24.4937439  42.1789398  86.0456238  28.2166767  65.0129623  51.2733994
  28.7434559  65.6684875  50.8162155  28.0221272  65.4112549  52.1217804
  28.1920280  12.1522779  33.8849983  27.3775463  12.5355549  33.5594940
  28.5946388  12.8494320  34.4027939  55.2196999  41.8656769  67.7949829
  55.3150291  42.5853233  68.4188843  54.9002533  41.1329193  68.3215408
  79.7313461  11.9724665  30.2767677  79.2952347  11.1361494  30.4399033
  80.0203629  12.2645245  31.1412926  45.6996193  33.9945946  17.3179569
  46.2027931  33.5133133  16.6611347  46.3064499  34.6584969  17.6454086
  46.7973976  68.4391708  16.6261749  47.2169342  67.6671524  16.2464275
  46.1967049  68.7441788  15.9461956  21.8182068  69.5185471  24.4012890
  21.9995804  68.7014160  23.9369240  21.3758240  69.2443848  25.2046356
  83.9328003  50.0561790  32.3006973  83.2940369  49.4179039  32.6182022
  84.6669998  49.9839935  32.9105949  52.5266190  17.3940716  57.0389786
  51.9674683  17.8967190  57.6313705  52.7035141  17.9913120  56.3121758
  80.0300369  19.9495697  85.1433029  80.9053268  19.7328033  85.4644089
  79.9368668  19.4393196  84.3388214  19.1167812   3.3583131  13.9892950
  19.0160980   2.9462595  13.1312122  18.4912968   4.0828452  13.9819412
  80.1305313   4.6749625  40.3559341  80.5335159   5.2893858  40.9693794
  79.7527390   5.2304211  39.6740456  22.5479431  47.6481247  12.8049955
  22.2927856  48.1074295  13.6050987  21.7732220  47.1409149  12.5625620
  16.7253590   8.8563242  44.8301392  16.9915390   8.9433794  45.7454529
  16.3180943   7.9915185  44.7803535  69.5403748  31.5645638  63.9062614
  70.3100510  32.0586128  64.1886597  69.3075409  31.0295296  64.6650467
  80.2913284  20.5953827  13.5153151  80.9640884  21.2457600  13.7168789
  80.3521271  19.9591484  14.2278738  68.9740829  30.2423935  74.0854111
  69.3582230  31.0989094  74.2726212  69.0690308  30.1390991  73.1385498
  80.7489853  63.4390106  27.8490505  81.6139603  63.4481277  28.2588940
  80.3613968  64.2807083  28.0889492  29.5406418  52.0114784  13.7260551
  29.2634850  52.0525627  14.6413307  30.4966316  52.0414391  13.7637119
  49.4949760  66.6229706  56.4748001  50.1640816  66.8810577  57.1087685
  49.7396851  65.7343063  56.2166748   6.1738400  69.8506088  55.2769508
   6.4411573  69.0051270  55.6374130   5.2933183  69.6972885  54.9343033
  74.6820679  61.2646866  83.1182709  74.8376236  61.0577011  84.0397873
  74.3196945  62.1505699  83.1296387  45.2149315  23.0917397   2.0141153
  44.4703712  22.8157635   1.4796052  44.8900490  23.8456821   2.5063086
  10.5711536  70.9963379  29.6446915  10.1813736  70.8685455  28.7798367
   9.8784580  71.4083252  30.1610928  32.4096909  44.6075935   7.7836843
  32.6763420  44.6674881   8.7010403  32.4591866  43.6735458   7.5803680
  79.7104416   3.8300087  52.3381233  80.6252518   3.9390168  52.5978661
  79.2445908   3.6773891  53.1602669  74.3626480  48.0128555  35.8543320
  73.8970795  47.3406487  36.3519402  75.1940002  47.6022186  35.6167068
   0.3864720   7.8890071  27.9154167   0.4606614   8.7842426  27.5848408
   1.1774796   7.4512396  27.6009350  -0.0132356  32.8435097  18.0597000
   0.0056579  33.6425705  17.5330391   0.8847911  32.5137978  18.0269794
  55.3811874  23.6207409  63.9156113  55.7279091  24.1257076  64.6511536
  54.8210297  22.9594345  64.3219681  31.4317322  64.6772232  72.7865601
  32.2252884  65.1618195  73.0138626  30.7390156  65.3378067  72.7880249
  53.4928970  27.9150162  86.6747971  54.2945786  28.4054680  86.4931412
  53.7380371  26.9988613  86.5451736  30.4490528   8.6794052  69.2468491
  30.0512714   8.4843273  68.3983459  30.9228859   7.8806391  69.4785461
  41.5688400  55.4635735  35.5118713  41.7187576  55.1768265  36.4127235
  42.0626869  54.8418312  34.9772873  47.1002197  65.0706787  36.8300362
  46.2808113  64.9376373  36.3534813  46.8557625  64.9955063  37.7524338
  64.6623611  55.1528587  79.2038651  64.8194809  54.3464279  79.6949997
  65.3125916  55.1361580  78.5016251  55.2107124  60.8957787   1.3046447
  55.1671448  60.2840843   0.5696862  55.0733643  61.7562828   0.9085388
  55.7087440  35.8130722  62.4897881  55.2909203  36.6147385  62.8044090
  55.2043800  35.1061859  62.8924751   2.9189789  42.3341522   6.2217889
   2.7453125  41.7465134   6.9571490   2.8275399  41.7807198   5.4461713
  19.5484600   9.9592752  31.1972141  19.4473896  10.3914814  30.3491497
  18.7994785  10.2616014  31.7108860  38.2832527  33.5999298  85.6755295
  37.8368225  34.1765022  85.0554504  38.9622879  33.1694336  85.1560898
  74.3868637  11.0612459  42.2377243  73.8175888  11.1914024  41.4792938
  74.9966278  11.7985315  42.2088509  26.7161465  50.0186615  24.3649368
  26.4699974  49.4685822  25.1086121  26.0721951  50.7268677  24.3673611
  82.0392609  17.6354980  55.5485077  82.6275253  17.1165047  55.0000343
  82.1430817  17.2675438  56.4260406  36.3253212  56.9632568  77.5868073
  36.7690201  56.7423134  78.4056778  36.9839172  57.4354591  77.0773849
  19.2864513  62.6752281  47.1316757  18.9737720  61.9926186  47.7253990
  19.8226471  63.2450562  47.6830597  80.5872116  62.6447296   5.7491860
  80.9253998  63.5323830   5.8672209  80.8952942  62.1666908   6.5191183
  37.2170029  23.2119160  10.2476997  37.9501114  23.8031502  10.0767412
  36.4555626  23.7879562  10.3156471  72.4442368  61.2987213  61.7160568
  71.9016418  61.1045990  60.9517670  73.0350876  60.5489845  61.7869835
  63.2015228  14.7791977  72.5978088  63.0990715  15.7063360  72.3829880
  62.5009537  14.3422899  72.1135101  63.4915619  54.1109810  85.4746323
  63.6888466  54.7906647  86.1190948  63.3401184  53.3229065  85.9963913
  20.1896973  59.6291046  46.3258934  19.6574936  58.8973999  46.0134926
  20.6806240  59.2698288  47.0649109  33.6833115  67.4687347  14.3111057
  33.4649582  67.6811066  13.4036646  33.9704590  68.2998962  14.6891823
  64.9629135  55.5881157  54.8818359  65.2611847  54.7008781  55.0820274
  64.4497223  55.8467102  55.6473389  26.0332146  58.7099342  71.7745438
  25.8177872  58.1149673  71.0563202  26.3692112  58.1392784  72.4656906
   1.3187985  23.7284584  35.1750107   1.3983940  24.2360382  35.9826355
   0.8533194  22.9339409  35.4363594  20.2551308  62.7132263  67.9009781
  20.9419727  63.0248337  67.3115921  20.3376846  63.2657204  68.6782608
  50.4363098  51.9994850   6.4578457  49.9182091  52.2170677   7.2327394
  51.2514915  52.4885635   6.5696921   0.1867290   1.0575665  36.6992035
  -0.6276951   0.7590842  37.1039925   0.6564495   1.5015118  37.4052544
  67.1808014  15.2573195  16.1311893  68.0628052  15.5557375  15.9092731
  67.2327652  14.3025570  16.0869236   3.8560965  68.2652435  43.6028671
   3.1863694  68.7651138  43.1361504   4.0048771  67.4944992  43.0550957
  75.1626740  56.1698227  75.5209045  74.6847610  55.3754387  75.7592163
  75.7379837  55.8978043  74.8058777  18.3101349  17.2346897  88.8366699
  19.2569981  17.2034168  88.9734421  18.1430740  16.5728245  88.1656570
  21.7692757  69.6750946  52.5092049  20.8894348  69.6929626  52.8857574
  21.9432831  68.7472458  52.3509636  77.0477295  48.8681602  29.1715965
  77.4287338  48.4888687  29.9635563  76.7528687  49.7381630  29.4406376
  53.1698341  26.3155136  25.2484150  52.5258484  27.0232410  25.2736225
  52.8815269  25.7548885  24.5281315  78.2893524  48.8089218  25.5652657
  78.7725983  49.0147667  24.7650623  77.7264175  48.0737381  25.3226871
  60.0471611  36.6821747   4.2879667  60.9959259  36.8073921   4.3079543
  59.9301949  35.7326393   4.3185887   3.2717178  61.5429268  86.5813293
   3.4943168  61.9425964  85.7405243   4.1022563  61.5045357  87.0556335
  32.5601616  11.3888397  45.7310524  32.4424210  11.2125454  46.6644821
  32.8737602  12.2925196  45.6956749   3.9205155  36.4742279  56.6576805
   3.8373263  37.2398376  56.0892181   3.2079227  35.8957062  56.3861008
  76.5637054  60.7882347   3.1157541  77.5076752  60.8562241   2.9724517
  76.3719864  61.4591446   3.7710040  58.8241539   6.1361294   9.4769659
  58.9967117   5.7200704  10.3215666  59.5439949   6.7569017   9.3642530
  -0.2065704   3.2030315  40.4639587   0.4179317   3.6037207  41.0686722
   0.2850998   2.4965324  40.0452080  41.8316193  15.5132027  37.5105705
  41.2860146  15.5903616  36.7278862  41.2070847  15.4120674  38.2288742
   8.9981422  31.4974918  12.7688351   9.4354963  31.7765236  13.5732574
   9.2239304  32.1711502  12.1274023   6.3931890   7.3944225   2.8239734
   6.9411802   6.6400843   3.0405631   7.0022068   8.1322966   2.7944705
  10.5679865  18.1130028  81.3134689   9.9410295  18.6931477  80.8815079
  10.3556566  17.2408524  80.9810486  67.5553665  61.5618935  34.9870071
  68.0501709  62.2399139  35.4471054  67.2955780  60.9475021  35.6734924
  68.2685013  29.6730061   2.9746590  68.8942261  28.9672756   2.8114250
  68.6789780  30.4497185   2.5945845  51.5894547  42.9284897   6.7091899
  50.6689301  43.1872864   6.7526417  51.8675957  43.1798210   5.8284502
  33.4196434   2.0501435  85.1219406  34.3159714   1.8391575  84.8605728
  33.4142227   3.0031581  85.2111893   6.9668398  23.8249016  16.9429455
   6.5792303  23.2239361  16.3066826   7.1542640  23.2778912  17.7057571
  80.3623428   2.6718709  29.3135834  80.3974762   2.4735911  28.3778038
  80.6217957   1.8557675  29.7412415  28.2082024  65.6246338  53.8708458
  27.9615803  65.5496597  54.7926865  29.1460457  65.8153381  53.8885612
   5.8348289   1.2947103  87.2906036   6.2153506   2.1699817  87.2175674
   5.1410556   1.3888623  87.9433289  57.2050514  14.7294483  24.3998909
  57.5612335  13.8889990  24.1117764  57.3419380  15.3154297  23.6554985
  49.3175659  62.3180008  52.5417442  49.7726135  62.1897125  51.7094574
  48.3934822  62.1810265  52.3330803  17.7977715   5.1884432  60.3927765
  17.2720337   4.8049450  59.6908073  18.0163651   6.0651150  60.0767174
  80.6275253  44.2269096   4.2932968  81.5181503  44.3647537   4.6158247
  80.4034653  45.0457993   3.8512063   1.9791168  21.9530354  18.2469006
   2.0795629  22.5856457  18.9582005   1.0374092  21.9314785  18.0767422
  34.5141563  28.9396915  77.6779556  34.4371109  28.3771343  76.9073563
  34.1858749  28.4034920  78.3997269  80.4450150   6.6677752  44.7500458
  79.8683167   7.4116273  44.9241982  80.2369919   6.0369287  45.4392395
  51.5408783   4.9722619  11.6662130  51.6312065   4.6844983  10.7577715
  50.7609177   5.5271387  11.6652622   1.9820749  64.2451782  25.3756962
   2.2366652  65.1673660  25.3441448   2.1218498  63.9274635  24.4836483
   9.0275660  16.4174080  87.5532913   9.4482565  15.5892820  87.3220749
   8.0945063  16.2608223  87.4079895  55.4893074  40.6606941  84.2639236
  55.6571693  41.5936203  84.3969955  54.5392113  40.6000748  84.1645508
  29.8492851  45.9062653   7.5169344  30.6797523  45.4316406   7.5528073
  30.0045624  46.6136932   6.8911037  46.8204803  66.4045258  72.4913940
  46.1179314  65.8050461  72.2398529  47.4896851  66.2854919  71.8174362
  84.5229416  13.9875383  60.4327660  83.9637756  13.6970797  59.7122154
  84.2673035  13.4355659  61.1718254  74.0215530  45.3044319  64.1302338
  73.9960938  44.3730164  63.9110336  73.1069946  45.5844345  64.0925827
  16.3434467  68.2868271  73.8808517  16.5192432  68.6343613  74.7552338
  15.6856260  67.6058731  74.0215683  78.4848862  33.4360123  54.6518707
  78.3958282  34.1688766  55.2611389  78.3340530  33.8221283  53.7890854
  76.7270889  27.7076130  80.0031586  76.9038010  28.2422123  80.7772446
  75.9821854  27.1614342  80.2542419  85.0732346  65.7503204  63.0130730
  85.1622620  66.6628036  63.2881737  85.2956848  65.2421799  63.7931633
  10.7342834   3.4293532  23.5860157  10.8940363   4.3106360  23.2483006
  11.5281734   2.9414284  23.3671532  47.7236443  54.9187088  -0.0182428
  47.3781815  55.2656937   0.8042468  46.9481430  54.7651024  -0.5579075
  67.9128952  27.0069695  84.7585068  67.3618546  26.3095188  85.1136780
  67.3263397  27.5126190  84.1959229  43.7443619  47.9519424  16.6332359
  43.3681641  47.0756531  16.5506248  43.5770302  48.1996803  17.5425529
  18.8904839  27.7809715  87.8865891  19.6308346  28.3818455  87.9706268
  18.9347744  27.4713879  86.9819183  68.4887924  26.5911560  30.2305603
  68.5080490  26.3095131  31.1451855  68.0486908  27.4409370  30.2508392
   0.3085509  60.4866066  46.1775703   0.8891014  60.4473839  45.4175339
  -0.4778635  60.9273224  45.8557701  40.2614212   3.1827462  49.7571907
  39.6897202   3.8366804  49.3549919  41.1213722   3.6020877  49.7866516
  40.1281395  25.6421833  18.3836384  40.8096695  25.3740082  18.9999428
  39.4490547  26.0337276  18.9329739  83.1585464  19.1266479  69.8788605
  83.4651947  18.2641621  69.5990067  82.2136612  19.0206852  69.9892960
  44.4122047  50.6123657  25.8553486  43.9142189  50.4330902  26.6529102
  44.2906952  51.5494652  25.7026691  69.4618378   3.2366226  81.8614960
  70.1837234   3.7504654  81.4994583  69.8212891   2.8469977  82.6585007
  32.7440720  57.5108871  80.3485794  32.5592422  58.1064835  81.0747604
  31.8972301  57.1156731  80.1414719  75.5674362  29.1189785  15.1817913
  75.0576096  29.8080101  15.6078672  76.3287506  29.5729637  14.8205156
  19.5809803  67.7315903  36.1559563  18.9451561  68.4219131  35.9677620
  20.1414204  67.7042618  35.3804588  80.7719498  41.3555298  53.6014175
  80.5091095  40.4987373  53.2651939  81.4882965  41.1656151  54.2072334
  15.5006008  50.6343536  72.3457718  16.1229973  50.6074181  73.0725021
  15.5481358  51.5342178  72.0229492   6.5759835  30.4220734  86.7622757
   5.7928638  30.5117722  86.2192230   6.4208312  29.6303711  87.2774124
  16.8019447   4.7386379  89.0941467  16.3751526   5.3700123  88.5149612
  16.1256390   4.0865417  89.2774811   9.6479349  44.9906464  64.4755936
   9.3385105  44.8840904  63.5760727  10.1275873  44.1833344  64.6611023
  71.7039719  39.8485146  21.0674000  71.7718735  40.4226036  20.3044834
  72.1546249  40.3236427  21.7655411  81.6540298  43.5253334  45.3250885
  81.1973572  43.1962395  44.5508919  80.9683533  43.6171608  45.9866371
  23.3434296  58.0351677  67.9915466  23.1626644  58.9370499  67.7266617
  24.2983646  57.9698982  67.9831543  44.3806648  53.6135445  13.8881741
  44.0963211  54.5274696  13.8989449  43.8659630  53.2107964  13.1888094
  67.1905975  32.8538170  42.1757278  66.9152985  33.0130463  43.0785522
  66.4230347  33.0756989  41.6486092   4.3151374  56.3870392  40.3411980
   5.1562872  56.7160645  40.0242729   4.5087051  55.5073280  40.6650391
  41.7773018   0.5587283  74.6812668  41.0910378   1.2091233  74.5320740
  41.3267097  -0.1721539  75.1043625  18.7085476   7.5890555  51.0578346
  19.3915234   7.9643235  51.6136665  18.0288963   8.2623224  51.0259361
   2.3725171  38.8202858  84.8780136   2.0834677  38.3012962  85.6285706
   3.1047375  38.3244247  84.5116730  50.5281601  46.2733955  58.7633743
  50.2690506  45.8845711  57.9279633  49.8801460  46.9604874  58.9189949
  25.9417553  50.4511261  84.7577362  25.8733139  50.0992050  85.6452637
  26.0523586  51.3937950  84.8817444  12.2442017  57.1587791  32.5869408
  12.4319954  56.4730453  33.2278252  13.1020031  57.5215454  32.3660126
  84.6985779  60.8396378  54.0837975  83.9905319  60.2605896  53.8016548
  84.2544861  61.5630913  54.5260887  19.8042717  68.6948395  74.8244629
  20.7135525  68.9046555  74.6113434  19.8655033  68.0755005  75.5517197
  72.6047440   4.3012528  22.2701092  72.1125183   3.4904683  22.1413879
  72.8640213   4.5666962  21.3877544  24.7401333  55.0768700  69.2799530
  25.0769672  55.7578239  68.6976471  24.6649799  54.3016014  68.7235947
  82.6809692  23.8948669  44.7199745  82.4732819  24.8084869  44.9159279
  83.4048920  23.6821613  45.3089752  62.1949768  41.5197487  51.1490860
  61.9948616  40.7945175  50.5572853  61.6567459  41.3529701  51.9228592
  74.6243057  35.1544800  69.1343994  75.1798782  34.4782753  69.5221100
  73.7719727  35.0331268  69.5527802  84.0473938  60.5821114  16.3808842
  84.7738037  60.1734886  15.9101582  84.2034988  60.3625755  17.2993965
  20.7368851  67.9642868  85.9032822  21.2794533  67.2282486  85.6202621
  20.8032608  68.5990143  85.1898727  16.5466213  65.0611877  44.0016518
  17.4155254  65.4537430  43.9171562  16.2103462  65.4000778  44.8312950
  44.9891434  27.4864426  17.1768970  44.7050858  26.5728283  17.1476746
  45.4060669  27.6349010  16.3281536  11.9742794  22.9906483  79.0723419
  12.4219694  23.4160862  78.3410339  11.6404896  23.7143459  79.6025085
  36.2348251  67.9202042  85.6083298  37.0484924  67.7632294  85.1292267
  36.5191994  68.1826859  86.4838104  20.9177532   8.7562180  13.7789545
  21.5214443   8.4842567  13.0877047  20.0529118   8.7174711  13.3705664
  49.4196167  31.0320187  73.5198441  48.9811325  31.4891949  72.8022385
  48.8681412  30.2683220  73.6897583  13.6247139  25.7716675  25.4211407
  13.8845806  26.1256905  24.5706291  14.0565720  26.3397522  26.0591125
  38.6277924  62.3343697  64.9485397  38.0744743  63.1033783  65.0852890
  39.5224571  62.6685410  65.0128479  27.9438915  62.6743927  13.3490667
  27.3535366  62.4003639  12.6471977  28.2489357  63.5411034  13.0807447
  18.3038731  62.5593910  44.2094574  17.3637619  62.4213142  44.3250275
  18.7133656  61.9136429  44.7852669  44.5701523   8.3143330  26.0275993
  44.9559937   8.1437387  25.1683807  45.0949974   7.7916608  26.6338844
  37.3263359  56.0031662   8.5249386  36.7399330  56.5202522   9.0771904
  36.8543510  55.9080925   7.6976418  62.7315331  35.5406036  67.3215103
  62.1432571  36.2837791  67.4551468  62.6334038  35.3210335  66.3950195
   7.5341816  69.8404083  45.1274681   7.7361755  70.7709122  45.0295486
   7.0837626  69.7804565  45.9699402  16.0754700  57.2883797  78.4044876
  15.5509205  56.5239258  78.1663971  15.6006393  58.0305901  78.0304718
  72.3949203  62.4192047  28.5265827  71.8387451  63.0074844  28.0158710
  72.1660614  62.6039085  29.4374828  67.9605560  45.5581818   2.2894974
  67.0970383  45.5240974   2.7010880  67.8706207  45.0250092   1.4996439
  14.1616793  68.2222443  70.0649033  14.9290628  67.6564484  69.9798965
  13.8154364  68.0270157  70.9356689  73.1840515  53.6484184  83.1544037
  72.9049911  54.3754539  83.7109756  74.0946579  53.8485451  82.9376373
  30.4771385   3.1420600  16.0814934  29.5519066   2.9073052  16.1526814
  30.6213608   3.7659831  16.7929382  67.3741913  70.2467270  78.9532928
  66.9239197  69.8909531  79.7193909  68.2920456  70.0078583  79.0825729
  75.8527679  62.6157112   5.1529942  75.4757690  61.8668060   5.6147776
  76.6427917  62.8300629   5.6491284   9.9578190  47.5117531  48.8836746
  10.6781130  47.7067451  49.4831657   9.3504496  46.9843903  49.4025421
  74.3221893  53.7523346  59.3048096  73.5328369  53.6174240  59.8291740
  74.0339279  53.6251869  58.4009438  68.3310699   5.3914580  29.7970181
  69.0545349   6.0145755  29.7294674  68.2084274   5.0691328  28.9041042
  60.5218735  63.2264061  65.0080032  60.7853317  62.6666527  65.7384109
  61.1126251  63.9779663  65.0569992  63.8967552  19.7861195  51.1486549
  64.7492676  19.7876148  50.7133904  64.0288544  19.2525196  51.9322701
   6.9588327  11.8364124  31.2928886   7.6560650  11.2148457  31.0837135
   7.0979462  12.5649347  30.6877975  57.6373329  29.8604717  10.8475361
  57.4819260  30.7218742  10.4601526  58.5341110  29.6420631  10.5939322
  27.5909595   0.6049691  61.9297638  28.4111938   0.1888536  61.6646347
  27.0077629   0.4837520  61.1804848  31.9285831  57.3518791   6.3219829
  31.7001228  57.1394730   5.4170403  32.0311203  56.5013962   6.7490630
  45.1265221  54.6330833  34.3258247  45.0693016  54.9202499  33.4145088
  44.8163605  53.7276421  34.3115540  73.4460449  12.4854050  88.2212219
  73.9921417  11.7128363  88.3666611  74.0666275  13.2129974  88.1797028
  69.6589508  28.6106758  36.4704437  70.3996658  28.6910172  35.8695183
  69.7566376  29.3494892  37.0711479  67.7660065  58.0080414   9.2245388
  67.2703552  57.3382454   9.6956415  68.6134338  57.5993118   9.0483627
  54.8744698  23.1952705  84.9858170  55.4067001  22.7279663  84.3419342
  54.2043915  22.5634193  85.2465668  74.2833405  48.5993881  60.2255974
  74.3975296  49.1978226  59.4873085  73.7176514  47.9057350  59.8863754
   3.4922981  58.9043846  64.9676819   3.7526789  59.6708450  65.4785385
   2.9132273  59.2535400  64.2901917  20.2155704   6.4292808  44.1833382
  20.7253590   6.9997025  44.7586327  20.8151054   5.7175288  43.9592819
  64.1182785   9.3132467  51.6171112  63.3049545   9.8151255  51.5636635
  63.8352547   8.3989067  51.6276436  61.8700790  20.6060658  34.4513702
  61.5636978  19.7088661  34.3194809  62.3836174  20.5676174  35.2582397
  23.1506348   9.3541574   1.6593732  23.7220001   8.6954699   2.0542207
  23.5876255   9.5908890   0.8413091  21.5836449  11.7447577  17.7810516
  22.3912563  11.8271818  18.2882023  20.9848804  12.3761435  18.1798820
  68.2796478  11.1879606  69.8486481  67.3529968  11.3364897  69.6602325
  68.7436981  11.6851377  69.1750717  71.4109344   6.7091112  34.8328667
  70.7785034   7.1488686  35.4010849  71.6936417   5.9450455  35.3353729
  29.0374050  47.9583397  80.5715790  28.8987103  48.1158066  81.5054932
  28.7351360  47.0608253  80.4325333  26.7381516  15.1098518  45.3679352
  26.2733822  15.3396368  44.5633087  26.5994091  15.8592777  45.9470215
  41.2847176  17.2335243  15.3936949  40.7439957  18.0003147  15.2042580
  40.7099380  16.4872227  15.2237129  45.7826996  49.9621735  47.3719177
  44.8816948  50.0501709  47.0609856  45.7375336  50.1821785  48.3023949
  68.6715698   4.6912818  27.1466579  68.2948837   4.1750007  26.4340611
  69.0493317   4.0415516  27.7394295  34.6407471  11.0497751  72.8962784
  33.8589706  10.7629900  73.3683167  34.4647408  11.9641771  72.6746445
  18.5246677   6.7738810  48.3492737  18.2217941   7.2050409  49.1483955
  18.9612522   5.9793825  48.6565132   1.4941952  11.9671726  46.5094910
   2.1613982  12.4831018  46.9621391   1.7967330  11.9275465  45.6022263
  38.6734543  16.5650196  29.8041382  39.2606659  16.3432045  29.0814953
  39.1863899  17.1541405  30.3573685  65.5578461  29.6488571  76.5495529
  66.3154221  30.1602840  76.8337402  65.2443771  29.2218952  77.3468399
  25.9467621  69.3778763  69.3560791  26.0232239  69.2614288  68.4090729
  26.8468266  69.3244095  69.6774139   4.1179872  22.8850479  81.2764969
   3.6234221  22.9247265  80.4579239   3.8129177  22.0837517  81.7020493
  15.7595482  47.6403809  87.5592804  16.4148331  48.0081177  88.1522369
  15.2335949  47.0625725  88.1122208  53.8330841  46.6885185  28.8015385
  53.1126862  47.1180573  29.2627945  54.1292381  46.0054436  29.4031487
  30.7032738   6.5547128  27.7276306  29.7927513   6.4392433  27.4558811
  30.9080849   5.7611942  28.2222137  59.9033546  44.9779625  77.3146286
  59.2621117  44.6599808  77.9501801  60.6413574  45.2748222  77.8470383
  68.3489456  14.5868797  69.7222900  68.8050537  14.2700701  68.9426575
  68.9426956  14.3854427  70.4455643  84.0990829   2.4295485  13.0813656
  83.9422836   1.5599991  13.4495077  83.9884109   3.0264735  13.8214083
  39.1646690  13.8329639  11.2270899  39.2612762  13.1766434  10.5370588
  39.3440819  13.3564873  12.0376539  59.5440559  63.1118851  39.1186562
  59.1212616  62.5898438  38.4367828  59.7911377  63.9253731  38.6788673
  54.7367363  42.8939705  87.1991119  54.4890938  43.0360985  88.1127319
  55.3021889  42.1219673  87.2215424  62.1788521  23.0859127  72.3322525
  61.8861656  22.2625656  72.7229767  63.1091919  22.9488602  72.1536026
  58.2519112  29.3217564  63.5302773  57.9415436  28.6800652  64.1691284
  57.5562859  29.9782085  63.4928322  81.8748779  37.6061935  23.8093967
  82.5409775  37.0939293  23.3509979  81.1948776  36.9703560  24.0319710
  72.6188736  62.2364769  47.3396606  73.2318115  62.9303093  47.5828362
  72.4270477  61.7870407  48.1627274  31.8913269   6.4209003  17.5353870
  31.3682480   6.7989960  18.2422581  32.7422295   6.8529758  17.6096058
  78.5368958  62.2327499   0.6659105  78.9846115  62.0249100   1.4860250
  78.8788223  61.5959892   0.0383301  71.9586487  42.7053642  27.5193062
  71.7951431  41.8107986  27.8180618  72.9049530  42.7421761  27.3800468
  69.0868759  16.0249081  41.5330086  69.3564987  16.0966358  42.4486465
  68.2465363  15.5677757  41.5658836  14.9992466  60.4847107  54.2452049
  14.6339626  59.7995110  53.6854668  15.1834059  60.0436478  55.0745277
   0.7179452  26.0272675  68.9953766   1.2178097  26.1793613  68.1933517
   1.3676122  25.7207985  69.6280212  67.4871063  56.0768089  28.3235207
  66.5321426  56.0134125  28.3394833  67.7698288  55.3091736  27.8264942
  27.7908611  57.1839981  39.7116508  27.5218735  58.0312347  39.3565865
  27.2006741  56.5532150  39.2993088   2.1632035  39.3621483  28.2753315
   2.2001121  38.9558563  29.1412411   1.6206405  38.7691879  27.7554741
  67.7141800  32.3447189  56.4081459  68.0587616  31.6237888  55.8811264
  66.8538742  32.0403290  56.6970482  55.6534462  29.1874962   7.8468900
  56.4303093  29.4820309   7.3715339  55.7280769  28.2332993   7.8599195
   1.0672994  18.4352932  25.0411987   1.9720210  18.7462597  25.0729809
   0.8760052  18.1628666  25.9386520  69.6643829  58.5755844   6.2799492
  69.8206558  59.5167313   6.2021723  68.7230530  58.4765129   6.1374383
  14.9074879  53.4372444  11.2669191  14.0155859  53.3802338  11.6096916
  15.3808746  52.7350273  11.7130480   3.7916415   4.2757378  81.0752182
   3.0897720   4.7543540  81.5162811   3.5907779   4.3610396  80.1432266
   6.5598683  59.9863777   6.5119090   6.4263725  60.6035728   7.2312698
   5.9310546  60.2581406   5.8433504  13.5047302  42.5059814  38.4666214
  13.0284691  42.3607521  39.2841263  14.0192146  43.2971764  38.6264648
  22.7624531  56.4013367  17.0073128  22.6246128  55.4558868  16.9493771
  22.1433868  56.6930695  17.6765499  33.3097687  41.8650856  88.9189224
  32.5262032  41.3190231  88.9827271  34.0233574  41.2942734  89.2038651
  39.9015121  58.6437569  46.1621819  40.3790970  58.0313797  45.6025925
  39.5794792  59.3158684  45.5615234  28.6246948  42.1313972  15.3636818
  27.7803822  42.2213097  15.8055906  29.2293510  41.8617744  16.0550041
  35.7270126   2.8881755  69.0703049  35.5898170   1.9711939  69.3081131
  36.6477242   2.9335783  68.8125000  44.2936745  19.5754414   5.0419035
  45.0268936  19.9393177   4.5457039  44.6083183  19.5433445   5.9453411
   0.6812236   2.8344710  16.3861160   0.3925604   3.2502084  17.1985607
   0.9519546   3.5629678  15.8273411  74.4260178  13.9405899  13.7788200
  74.1069489  13.6232710  12.9339924  75.0956955  13.3066101  14.0353909
  51.1258926  66.4443665  19.1186008  50.6769600  65.8407745  18.5266781
  50.4199524  66.8904724  19.5864296  74.0496140  53.7437897  53.2642097
  74.5174484  54.5652962  53.4141769  73.3069077  53.9884567  52.7121544
   8.2377100   3.2429361  44.8710327   8.3473902   3.9953365  45.4524918
   8.2014866   3.6221404  43.9928970  29.6414108  46.8584976  83.5694809
  29.0356216  47.5977936  83.6213455  29.2957344  46.2212906  84.1945496
  10.8165703   5.8698206  34.1347160  10.3383493   6.5565863  34.5993538
  10.8028946   6.1463876  33.2184410  41.6904678  28.4859600   1.8268902
  41.7471237  28.4759445   2.7823596  42.5171280  28.1025181   1.5339078
   5.7660146   8.7300425  79.0498886   5.3027048   8.4098015  79.8238525
   6.5749211   8.2188196  79.0263748  84.0407333   7.1337552  74.7313995
  84.7374725   7.7595406  74.5334854  84.0640945   6.5114756  74.0044556
  71.4146729  60.3834763  86.8061066  71.0028000  59.6987190  87.3330765
  71.0957108  61.2022591  87.1857071  26.1679440  71.1674881  22.6590462
  26.8732853  71.1844025  23.3059139  25.3912544  70.9147110  23.1581383
  10.9460325  40.9808884  71.0557861  10.4915733  40.5841179  70.3126373
  11.0934105  41.8884468  70.7896042  60.1973839  54.6651840  69.9374466
  60.1996613  55.4379730  69.3726196  59.5677681  54.8746147  70.6273422
  35.2282066  67.3466339   7.7968926  35.6263084  68.1126862   7.3834715
  35.9550896  66.9084549   8.2394648   9.9049444  61.4144669  78.9126511
  10.5508308  60.8088226  78.5489807   9.4507694  61.7679329  78.1477814
  55.2953758  61.3111458  79.1214523  54.8380280  61.9896622  79.6181107
  56.0594139  61.7564125  78.7550964   7.7019591  10.2813215  44.6348648
   7.5424414  11.2222481  44.5610847   6.9399209   9.8760262  44.2210236
  84.6169739  18.7890034  42.6313515  84.1040115  19.1896896  41.9295311
  85.4382248  19.2806664  42.6384659  73.8940659   0.1099008  43.1873169
  73.5037079   0.9807767  43.1136284  74.7903061   0.2215482  42.8702850
  65.8754883   4.3572965  44.6628075  65.2327881   3.6635811  44.8109016
  65.4149094   5.1638751  44.8941803  42.7273865   0.3359227  13.6123199
  42.5946465   0.3533021  14.5601120  42.3438148   1.1560475  13.3016729
  60.5631599  64.6367035  52.2487068  60.9478416  64.6775284  53.1242561
  59.6641426  64.9430847  52.3675652   7.1556482  22.6988621   6.0123262
   7.9712238  22.4408627   6.4418659   6.9921985  22.0058002   5.3726535
   0.5841073  32.7923584  72.1818314   1.0223919  33.5705376  71.8374863
   0.3903188  32.2642059  71.4074097  38.0643692  52.9790077  75.3108292
  38.8392868  52.8088112  75.8463364  37.8042679  53.8705940  75.5424652
  42.9877815  18.4845905  84.3183746  42.9964790  17.9898529  83.4989853
  42.7907524  19.3830853  84.0535736  17.9452744  55.1803780   5.5251083
  18.5113297  54.4277306   5.3538280  17.4823875  54.9533195   6.3315897
  33.3855057  54.8988686  51.9224167  34.2353249  54.4600410  51.8840637
  33.5441399  55.6825180  52.4486885   1.1228993  27.9208584  14.1110067
   1.6658552  27.4171467  14.7173939   0.3542132  28.1669159  14.6256018
  70.0109253  32.7834854  14.1118975  70.1516571  33.4134102  14.8187370
  70.6891403  32.9897537  13.4686956  53.7124176  26.6135159  69.8168945
  53.8066330  27.5217018  69.5295715  54.4628372  26.4652786  70.3923264
  71.2415009  35.6820412  77.5388947  72.0799637  35.5822792  77.0880585
  70.5848999  35.5621681  76.8527985  30.4555302  38.2946434  36.1791725
  30.9159355  38.9606247  36.6897850  29.6623783  38.7339592  35.8723526
   6.9618163  43.3108826  87.2737198   7.2057457  43.9155121  87.9745407
   7.0285931  43.8321152  86.4736633  38.0136299  15.3600006   0.5524892
  37.2928696  15.1807747   1.1563195  37.5979195  15.4112053  -0.3082046
  11.9461479   8.4218330  14.4185543  11.4951162   7.5917511  14.2643938
  12.3919477   8.6092091  13.5924883  72.3984680   2.8783424  13.8161879
  73.0466156   3.5433924  13.5841522  71.7187958   2.9627099  13.1474886
  63.4002304  71.5077286  26.6843185  62.4927444  71.5133591  26.9887314
  63.4977417  70.6668854  26.2374344  39.8907585  57.4859772  73.9926529
  40.3680382  58.1267509  74.5197601  39.1791306  57.9865303  73.5935745
  86.4702682  20.2466049  61.2646217  87.3847885  20.3006458  61.5420341
  85.9687042  20.3277664  62.0758400   7.9384770  12.6922922  70.8099213
   7.5735598  12.7366400  69.9261169   7.8436332  11.7738752  71.0624008
  10.4462156  46.9156151  58.6596565  10.3335819  47.5628548  59.3558121
  11.1873550  47.2403717  58.1483078  79.4672394  41.9459991   4.9333816
  79.8900604  42.7835999   4.7439599  79.9266205  41.3150673   4.3791895
  11.6445322   3.4939294  32.5884743  12.4798031   3.2924399  33.0103226
  11.0871229   3.8098831  33.2995987  30.3644485  62.8329926  54.3626442
  30.6512661  63.4673195  53.7056847  30.8710213  62.0438118  54.1707878
  44.4893036  14.7963390  33.9559860  45.2134933  14.1704473  33.9496651
  44.4551353  15.1139832  34.8582993  45.0388222   9.8499565  81.0822754
  44.4448242   9.6195126  81.7966232  45.9034081   9.5824118  81.3939514
  13.3363085  38.5977707  82.7334061  13.2617273  38.4773064  81.7867508
  12.4808712  38.9343834  83.0001450  84.2780380  59.2372322  60.3777390
  84.9392014  58.8162651  59.8283043  84.6772690  59.2744522  61.2469101
  29.0212135  55.8064346  33.9929428  29.3185558  55.9729881  33.0984688
  28.1325302  55.4658966  33.8904228  31.2034798  63.9270668  39.0720139
  30.2555943  63.9566841  38.9421387  31.4017944  62.9966164  39.1776772
  66.6391983   1.1134924   6.3652539  66.3124466   0.3327535   6.8123689
  67.3183823   1.4557426   6.9464703  17.1318073  16.8378372   5.4704962
  17.6896076  16.1802120   5.0550199  16.3912926  16.9364414   4.8720427
  42.5401993   6.6028295  63.8021164  43.3711433   6.6248269  64.2767563
  42.0025330   7.2695403  64.2294769  43.7604904  48.0540848   4.9750447
  44.4565887  47.6542015   4.4537315  43.6088791  48.9035645   4.5607629
  81.1921082  45.5024872  63.2656708  80.4474335  45.7541237  62.7194443
  80.9031754  45.6795616  64.1608734  13.6988649  66.2904510  17.4804020
  13.6038761  66.2208786  18.4303341  12.8785248  66.6861877  17.1860104
  56.5592422  15.7853270   0.5629368  56.4104843  15.6916742  -0.3779843
  57.4870605  15.5812883   0.6802158  79.7598419  14.9522724  45.6884766
  80.4983444  14.5214052  45.2581177  79.6934814  15.8032675  45.2553101
  42.4664803   7.6633410  12.6024561  42.7786102   6.9473772  12.0491009
  42.8863602   7.5121269  13.4492550  37.7978058  22.0798798  19.4912777
  37.8128891  21.1310730  19.6168499  38.6344337  22.2791996  19.0710907
  55.3604240  24.7728062  25.0431118  54.6470375  25.4021873  25.1489029
  55.5970993  24.8323803  24.1175480  53.3667412  67.8105392  69.7473221
  53.9046211  68.1801605  70.4475327  52.5170403  68.2401047  69.8458633
  82.7878113  20.0269699  41.1058655  82.9895859  19.7283592  40.2191010
  82.6509628  20.9700356  41.0156937  82.2104111  20.8156624  36.9552002
  82.4860840  20.1157570  37.5471230  81.3142242  20.5840569  36.7113991
   3.3956602  10.2803278   1.0178393   2.6239276  10.2243862   0.4543401
   3.6951053   9.3753052   1.1044358  61.5653229  23.0749569  69.2809601
  61.8168526  23.4188213  70.1381149  62.3960342  22.9280891  68.8286438
  80.7772598  40.6142769  48.0755730  81.5377579  40.6961784  48.6510429
  80.8320999  41.3744888  47.4965210  47.8385696  59.0304871  60.0690384
  47.4324036  59.8936081  59.9897385  48.0295715  58.9405289  61.0026627
  18.4322796  65.0189362  36.6573029  17.7828217  64.7117920  37.2898369
  17.9457436  65.6092529  36.0819473   2.7747097  41.8950119  53.9040108
   2.0155907  42.3457336  54.2739029   2.8691785  42.2655945  53.0265274
  60.5562592  13.1828003  56.2243233  60.9675636  12.4347210  55.7913818
  59.9416084  13.5265179  55.5760231  65.1771927  18.0259666  35.2041817
  65.1408081  18.7366371  35.8443794  65.3240204  18.4654198  34.3665924
  22.2904587  16.9202232  67.8899536  22.6024628  17.0626373  68.7835999
  23.0329895  17.1607170  67.3358459  73.0099945   6.7025919  24.6487999
  73.6140747   6.6403017  23.9089127  72.4193573   5.9573636  24.5391712
  39.0167427  10.4332552  69.0581131  38.7980804   9.6162214  69.5063095
  39.8235207  10.2367430  68.5819626  60.5867653  69.3782883  70.4579926
  60.5043297  68.5054016  70.0739212  61.1276970  69.2472076  71.2367325
  14.9265642  70.5042114  85.2265015  14.0205994  70.7225342  85.0078812
  15.4057789  70.6212845  84.4062042  54.7674637  55.9229164  56.8102188
  54.2208977  55.1866837  56.5355186  55.2507896  55.5928879  57.5676537
  56.8640251  58.4260941  34.3584328  56.0886192  57.8781357  34.2370987
  56.6108932  59.0525589  35.0364418   5.2943902  36.9502869   4.2024794
   5.7708249  37.7797928   4.1683698   5.4384031  36.6277733   5.0921288
  79.9966049  49.0012970   0.9616758  80.2391129  49.9067497   1.1555262
  79.2447052  49.0752983   0.3739665  35.0808983  30.0690765  20.3260078
  34.7101212  30.9330769  20.5056210  35.6329422  30.2008705  19.5552235
   3.7774768  10.7222757  52.6154900   3.5885725  11.5008469  53.1392975
   3.0359125  10.1390553  52.7772522  47.5104294  15.5636015  58.3152771
  47.3730392  15.1578150  59.1712532  48.4487686  15.7505083  58.2866554
  69.1542358  54.6979599  35.5214653  69.9608917  54.2576904  35.2537041
  69.4460526  55.3987198  36.1045685  17.0535793  24.5411434  26.3253422
  17.3378410  23.7849140  26.8387070  17.1868248  25.2894020  26.9072227
   6.2187238  38.7550011  64.3240967   6.9981923  38.3770485  64.7313004
   5.9659753  39.4698219  64.9083786   1.9555730  41.3531723  35.2968750
   2.1257482  42.2049065  35.6991386   2.5958371  41.2908401  34.5880661
  57.2269363  38.4904251  70.1945496  57.5435104  39.2200737  70.7271194
  56.8236961  38.9070702  69.4329453  61.4183044  11.8182058  72.4370804
  61.2198448  10.8909712  72.5677719  62.3286781  11.9102192  72.7181168
  31.8131390  39.6599693  71.5493546  31.5499229  39.3381424  70.6871643
  32.4046135  38.9868469  71.8859482  21.6051025  12.3965616  67.5104218
  21.8180180  13.1705112  66.9889755  21.0823917  12.7341766  68.2377548
  49.2222786  55.5226898   8.6927643  48.5203018  56.1699295   8.7601318
  50.0097923  56.0401077   8.5244436  81.2694778  23.6603966  54.8158951
  81.8263168  23.5430393  54.0462303  80.7871857  22.8369408  54.8903923
  21.4201965  58.7459106  11.4485617  22.0509548  58.4241791  12.0926619
  20.6478996  58.9773560  11.9645290  81.6301880  15.6844616  68.9581070
  80.9382553  16.1747971  68.5142212  82.3922958  15.7743950  68.3859711
  62.6488113  12.7781038  80.6246262  62.5286942  11.9250622  80.2073441
  62.8781395  12.5713644  81.5306625  82.2459564   6.2930212  29.7450314
  82.7325821   7.1143961  29.6759586  82.9180908   5.6283631  29.8956795
  77.5137482  61.1341858  79.9656372  76.5585556  61.1817932  79.9259872
  77.7522659  60.5233955  79.2683029  79.6928329  46.9927940  68.7218246
  80.4437408  47.2168732  68.1721420  78.9431381  47.3859291  68.2750244
  61.2339897  12.6107349  37.3362694  60.6565323  11.8925104  37.0775681
  61.9417458  12.5929337  36.6920700  61.3593521  67.8603745  12.9062271
  60.6790276  67.3848419  13.3829489  61.3948898  67.4334946  12.0502243
  51.3860626  68.8184891  39.0448189  51.2351494  69.5995941  38.5125313
  51.3785057  68.0958176  38.4171906   4.5355854   5.9553337  35.5372849
   4.1431079   6.3930640  34.7819138   5.1237507   6.6096363  35.9143562
  85.7620392  64.6317596  40.4134750  85.2960968  64.2752838  41.1698189
  86.4730148  64.0106049  40.2555962  74.0396729   7.5315208   8.4179239
  73.2493515   7.0134778   8.5704165  74.3449783   7.2540555   7.5541906
  33.2951088   9.7185335  27.8899364  33.6581154   9.2863684  27.1168327
  34.0413857  10.1695318  28.2847843  60.8080826   3.2015667  53.6760559
  60.7970428   2.4033248  53.1479263  59.9017830   3.3107932  53.9640121
  15.1318636  32.1896629  69.4652252  16.0304718  32.5087700  69.5483017
  14.6121750  32.7978020  69.9908905  80.7256470  60.0702400   1.1553764
  80.8184357  59.1230659   1.0530018  80.8711853  60.4214897   0.2769268
  83.3384094  63.1930542  77.6074753  83.3062973  63.6848412  76.7869034
  82.6194305  62.5649223  77.5385513  15.1175127  59.2638245  72.1335449
  14.4337397  58.9458199  71.5440063  15.6466007  59.8500290  71.5925598
  48.6245308  50.2223358  58.0306091  48.8277779  50.4117508  58.9466019
  47.7772026  50.6419220  57.8815651   6.7680140  28.4723053  46.5120544
   7.3329520  27.7526455  46.2306862   6.9776568  28.5933743  47.4381332
  77.0061035   0.8699666  24.6995373  77.3572922   1.3748724  25.4329987
  77.7194138   0.8463421  24.0616817   9.4572716   2.9409173  87.9181747
   9.2352734   2.8124864  86.9959717   9.8583059   3.8095000  87.9492722
  79.3896561  12.3300781  35.9366226  78.5296707  12.3401613  36.3568001
  79.5289536  13.2340593  35.6544075  52.6959000  22.3119125  68.0724182
  53.1057777  23.1203098  67.7646408  52.3271408  21.9148731  67.2833633
  50.4075050   5.7388744  85.7833176  51.0770226   5.1347675  86.1043015
  49.5814819   5.3676081  86.0932846   9.4768305  49.4336243  52.8227386
   9.1834068  49.3604660  51.9145622   9.8856144  48.5888596  53.0111542
   0.2065689  51.5626678  40.6119804  -0.4965285  50.9302025  40.4640923
   0.4063419  51.9066505  39.7413521  62.9050179  50.3670082  25.4638519
  62.1520119  50.8074837  25.8577995  62.7950020  49.4462318  25.7011356
  61.5876236  52.3134613   5.5651050  62.0218964  51.4609070   5.5370588
  62.0032158  52.7700005   6.2966018  47.2892342  69.0852890  68.1385269
  47.6180687  68.7456665  67.3062057  46.6465950  68.4362640  68.4249039
   0.5364211  53.7206688  13.9394083   0.9410458  52.8564491  13.8643665
   0.2982811  53.9524002  13.0417318   4.4146366  16.8012428  66.5175781
   4.9483724  16.0752010  66.1947479   4.3779111  16.6688061  67.4648590
  61.7291641   7.5831881  31.3335915  62.4637718   7.4206939  31.9253521
  60.9896202   7.1315780  31.7402248   9.4508438  52.6230965  32.6551285
   8.6873770  52.5824471  33.2310600  10.1773643  52.3181152  33.1986237
  58.6454201  14.9775839  50.1434326  58.4203835  15.1784039  49.2349930
  58.7127228  15.8327446  50.5681686  81.9143448  16.8156757   7.8002601
  81.8769302  17.7700748   7.8631258  81.0218048  16.5278454   7.9919810
  30.8268871  48.2192497  65.2917404  30.4197540  49.0693970  65.1252441
  30.2292728  47.5856285  64.8947220   1.4283234  15.7292633  47.8569145
   0.5928402  15.3253479  47.6222801   2.0860863  15.0781431  47.6127357
  76.0466385   3.8567379  29.5361080  75.6294708   4.1419153  30.3490524
  76.4643555   3.0251513  29.7601700  44.3370247  51.3792992  42.7689629
  44.5265656  50.4457321  42.6753998  44.6612320  51.7719269  41.9584274
  13.3473063  68.7500076  49.9770470  13.3545322  68.5535507  49.0402527
  13.2504921  67.8967743  50.3999596  78.2538071  65.9113922  82.8181229
  77.3864975  65.6744080  83.1465225  78.1158905  66.0961456  81.8891068
  42.2519073  11.7367659  31.5487480  41.5868683  12.2299347  32.0291023
  43.0518036  12.2528372  31.6490765  69.7889786  66.9644089  10.4726582
  70.2074356  67.7699890  10.7762594  69.5608444  66.4957581  11.2754965
  38.5864639  56.2236404  15.3325787  37.8938904  56.8044701  15.0176010
  38.1259499  55.5541878  15.8385372  62.4161453  56.6782341  51.7494278
  61.8306580  56.7253990  50.9936409  61.9919930  57.2196732  52.4151382
  81.7472992  47.0302048  80.1260681  81.8808746  47.8298607  79.6172104
  82.3182297  46.3838463  79.7107544  79.8882599  66.4447174  85.4297028
  79.0396805  66.8307037  85.6468811  79.8617096  66.3266449  84.4801788
  28.9632645  58.4331970  65.8600006  29.9017296  58.3387451  65.6969299
  28.7228889  57.6414032  66.3411636  72.4506836  24.7763996  60.0004120
  72.9476013  24.9829712  59.2088127  72.5794983  23.8361950  60.1255341
  79.8465729  19.8337116  36.3510170  79.5646820  18.9190845  36.3360138
  79.2906113  20.2663498  35.7029686  30.2750168  26.7832146  12.7470217
  30.4468327  27.2899837  13.5406818  30.6940956  25.9376907  12.9073162
  60.6242294  52.3788223  28.7276344  60.1560287  51.8988800  29.4107704
  61.5495949  52.2506218  28.9361839  21.7211170  34.8903999  76.3382568
  21.5171738  35.7867889  76.0715561  22.5402031  34.6866684  75.8867874
  22.4128704  35.9767685  14.2022610  22.2145405  36.0826912  15.1326790
  23.2384758  35.4926491  14.1869574  85.5325623  67.7707748  14.5183353
  85.3308029  66.9012527  14.8639669  86.1640625  68.1345749  15.1388903
  15.9760437   3.9101977  70.5182800  16.4736824   4.6104221  70.9405060
  16.5004826   3.6708379  69.7541428  70.4594498  14.5202065  19.5825691
  71.4121780  14.4278955  19.5864372  70.3027115  15.3687820  19.1683407
  13.4105110  14.4385509  70.9663849  12.4753199  14.4454966  70.7624207
  13.7605581  13.7052565  70.4604416  78.7348785  15.5553455   6.1750202
  79.5037537  15.0890598   6.5031099  78.1406174  14.8631887   5.8851919
   2.8620837  64.3981628  29.5796642   2.9107423  64.6618500  30.4985390
   2.0467641  63.9007225  29.5160885  41.3718643  51.2674637  89.0217514
  40.8142204  51.9317093  88.6167297  40.7581596  50.6414604  89.4060974
  57.8181343  20.8723164  13.8680468  57.5836830  20.5899639  12.9839983
  57.2761040  20.3326073  14.4434996  58.7033691  36.3961487  69.6563034
  57.9075279  35.9226837  69.4140167  58.4114304  37.2957840  69.8034668
  72.8359375  37.0862770   1.5280274  72.6577225  37.4130630   0.6461649
  73.6354294  36.5682983   1.4344870  77.6490784  56.0854149  87.5190048
  77.6920929  56.2876282  88.4536133  77.4099884  55.1591759  87.4851074
  57.6631927  68.1590042  18.9152031  58.3758965  67.5436554  18.7430706
  58.0135994  69.0105438  18.6538086  14.8216209  58.5553589  88.3384781
  14.0708399  58.2910194  88.8701630  14.4416828  59.0709648  87.6271210
  67.9380875  43.0805511  38.9881058  68.0040588  43.7159195  39.7009773
  67.0831680  42.6685066  39.1128654  62.4413300   5.3137836  21.2512226
  62.8095360   6.1544533  21.5231304  61.5184441   5.3648090  21.5000381
  61.9917030   8.1228247  21.5170631  62.5183754   8.8475847  21.1800594
  61.8326530   8.3482742  22.4336376  35.7619934  60.7930412   6.0356455
  36.5480957  61.0858154   5.5746078  35.9288864  59.8712006   6.2320871
  71.5557938  60.4293022   9.0746765  70.7233658  60.8264923   8.8186808
  71.4579544  60.2497292  10.0097771   1.7287270  16.9715824  27.6101837
   1.1893573  16.2530613  27.9403954   2.5955567  16.8114071  27.9832554
  28.5863724   8.8884764  82.0468750  28.4648647   9.5939121  82.6823502
  29.5260792   8.7074070  82.0667877  42.0620155  43.3748512  10.9112148
  43.0079727  43.2680397  10.8112698  41.9578896  44.2503281  11.2839413
   7.5870743  64.8587799  65.2152252   8.2648716  64.2967224  65.5906067
   8.0284605  65.6932678  65.0569916  77.9957886  42.7633286  65.8566208
  78.2009277  43.3490715  65.1278839  77.3725586  43.2552948  66.3912125
  74.4795532  41.2781830  22.3512287  73.7969284  41.2048759  23.0182190
  74.2961655  42.1081352  21.9110317  24.5657158  14.2759209  74.4204559
  23.9476547  13.5957260  74.6879730  24.7411880  14.0906839  73.4978867
  33.1492195  68.2265854  87.0981369  33.1085129  69.1815720  87.0473557
  33.8147202  67.9807205  86.4555664  26.0615005  16.4091110  23.9961090
  26.5229015  15.5806532  23.8657246  25.1410675  16.1600456  24.0797939
  19.7723656  33.0417328  18.2463245  19.1273441  32.9191246  18.9428501
  20.3276043  32.2635078  18.2943707  63.9323425  19.0371933  38.2684822
  62.9952354  19.0352383  38.4635849  64.0874634  19.8824558  37.8469353
  74.7316513  66.6395721  76.7149811  75.2108383  66.8005524  77.5278168
  75.3984833  66.3329086  76.1005478  18.8377495   4.0932493  75.2257919
  19.4598560   3.4073267  74.9834595  19.0203056   4.8083892  74.6163025
  30.7676907  19.1782265  82.3724518  30.4263382  18.9460678  81.5088501
  30.9418545  20.1177826  82.3165054   2.4944925  42.9317665  10.5411634
   2.3256493  42.5389519  11.3975630   3.3098545  43.4194069  10.6578846
  48.3019753  44.7247086  25.9663181  48.6003418  45.3692627  25.3246326
  48.8095207  43.9375267  25.7688904  46.2144814  67.0297623  74.8911438
  46.5338211  66.9028625  73.9977493  45.6129761  66.2994843  75.0364838
  12.2274265  63.8908920   2.8109682  12.0659657  63.6495743   1.8988665
  13.0384054  63.4364166   3.0390022  84.8101883  59.1363144   1.2313064
  84.5827179  59.8932114   1.7713027  84.5469284  59.3862000   0.3455950
  73.9497070  54.1200142  49.5260468  74.4515533  53.9455719  48.7298393
  73.1687393  53.5730362  49.4415855  20.0734634  16.9074993  84.7552948
  19.7799549  16.0765305  85.1288910  19.4375114  17.0979939  84.0657196
  70.9067307  47.9604836  40.3285904  71.7061996  47.5525818  39.9958801
  70.9913254  47.9116592  41.2807922  36.5329399  53.1806755   5.4796371
  37.3658981  52.9734612   5.0559950  36.7711105  53.4057617   6.3789940
  73.9304962  42.5081825  70.0281982  73.5744095  43.3925743  70.1135559
  73.4919662  42.0060921  70.7151031  49.3472443   1.4178579  63.3801842
  48.8497963   0.9245574  64.0324326  50.0099754   1.8858775  63.8880997
  83.9279633  13.2152786   0.3523505  84.3421021  13.3986483  -0.4909158
  83.3974533  12.4344616   0.1938908  64.6421509  28.4307747  49.7880592
  63.8677063  28.3878231  49.2271461  64.9300003  27.5214748  49.8689842
  79.0532074  28.7269859  30.5733871  78.3928070  29.3187885  30.9337616
  79.8359299  28.8931389  31.0987244  84.0719604  37.7231827  54.0478287
  84.3837738  36.9745636  53.5393333  83.7586899  37.3418503  54.8680000
  80.9367218  47.8402328   7.1389050  81.7401276  47.6741600   6.6457682
  81.2168961  48.3789635   7.8788390  12.3773947  60.4475746  66.0696106
  12.9621878  61.2007484  65.9860992  12.7543650  59.9293251  66.7806320
  45.4525948   6.2121644  62.3773079  44.9350853   5.5106821  61.9819107
  45.4848061   5.9906483  63.3079643  82.5199966  46.6380920  82.9214478
  81.9828033  47.1422653  83.5325623  82.2253952  46.9194183  82.0552444
  45.6291466  11.6194925  66.3208237  44.7115669  11.8031969  66.1194916
  45.6709328  10.6664467  66.3994980  20.1355648  32.1187897  68.0782166
  19.8021774  32.8047028  67.4997635  19.8400269  31.3019009  67.6762390
  28.2672386  30.3558216  27.5161095  27.9738293  29.5302544  27.1306458
  29.0473499  30.5908489  27.0136948  66.6304474  48.0344772  38.9516869
  66.3676529  48.5169868  39.7354927  66.4954910  47.1147804  39.1801033
  52.5746574   4.7038050  25.9387150  52.3112793   5.3270607  25.2616520
  53.5313721   4.7336955  25.9326744  63.6464348  51.1566658  47.1142883
  63.4772224  51.8670654  47.7331047  64.1575165  51.5645828  46.4152718
  81.4642410  19.1023903  32.8197517  81.5229492  19.2969818  33.7551231
  82.3475800  19.2599564  32.4864235   8.4454947  54.7765884  74.5378799
   8.7088289  55.6396179  74.2183914   8.3177290  54.8982048  75.4786835
   2.4156315  43.0034599  38.2484398   2.5353439  42.0592537  38.3503151
   3.1617653  43.3902969  38.7065582  11.3252964  58.0709114   9.9465799
  11.6235018  58.9309464  10.2426262  11.8237705  57.4490242  10.4766855
   3.3498085  54.1864281  65.7120361   2.9298248  53.5453339  65.1385803
   2.7279510  54.3099556  66.4291611  61.3947716  29.9012203  64.4978027
  61.0451012  29.3282852  65.1802292  62.3127861  29.6429653  64.4154129
  24.5688877  35.0109787  10.9733028  25.4278507  34.8209038  10.5960960
  23.9516678  34.5415955  10.4120960  47.0110207   9.4064112  20.7538071
  47.3448830   9.7621183  21.5773602  46.4782562  10.1118469  20.3867168
  68.2627869  12.4068203  22.7744236  68.2519455  11.4918747  23.0554733
  67.6219101  12.8385191  23.3393517  48.9300652  44.3137970   6.7295370
  49.2046890  45.0557365   7.2683682  48.3562965  44.6984138   6.0668955
  55.2134514   9.7635212  88.8217392  55.3150520   9.7774582  87.8700485
  55.6194572   8.9405375  89.0939331  38.4507675  45.0290947  76.3819122
  37.5816727  45.4207497  76.4686050  38.2798653  44.1103401  76.1747589
  26.4658623  11.2815142  42.8350067  26.4853458  10.3978071  42.4677010
  27.3777962  11.5713348  42.8102608  61.7786102  29.3141365  25.7802467
  62.3953285  29.9516983  25.4205170  60.9742851  29.4499893  25.2794113
   2.9610398  10.3218565  13.5636530   2.3099504  10.5490522  14.2275028
   2.5413868   9.6389456  13.0404358  61.6472931  58.6811218  53.7537613
  61.0281067  59.4072495  53.6791000  61.1191254  57.9473267  54.0681114
  20.5038719  39.2039604  15.9638405  20.8351879  38.8590508  16.7929974
  21.0154018  39.9989471  15.8136377  13.5403700  29.8497810  81.1277847
  13.6252527  29.0276985  80.6448669  14.0371132  30.4837818  80.6105576
   0.7267417  47.1460533  78.3091736   0.3710602  46.2589149  78.2571259
   0.1195870  47.6780815  77.7948380  68.5563202  26.8773251  10.9253969
  68.3737030  27.4920807  10.2147932  68.3365402  27.3601093  11.7221708
  55.2314529   5.9649243  42.7977600  55.8664970   6.1069622  42.0957832
  54.4425659   6.4197173  42.5027122   3.4475110  32.7093773  40.0601921
   3.1913559  33.5738411  39.7387619   4.3239894  32.5704842  39.7014084
  56.4598160  37.1498604  55.7225990  56.7875366  36.2933006  55.4484863
  56.2011032  37.5794449  54.9072723  11.1157255  12.6596546  78.9716644
  11.2808323  13.3011646  79.6626358  11.8093805  12.8143806  78.3304672
  33.9601517  38.8751488  76.8528290  34.0675316  38.3105659  76.0873489
  33.7797470  39.7415199  76.4880219  49.2765045  33.6845703   7.9279580
  49.6667442  34.4637909   7.5320301  48.5967293  33.4166107   7.3096285
  61.3876953  69.4863052  44.5580444  62.1688385  69.4071884  45.1055717
  61.1960640  68.5896759  44.2831497  72.6570816  19.6177864  16.6231079
  72.0811768  19.9570160  15.9379187  72.2734222  19.9388981  17.4391499
  64.5502243  68.5809021  61.3949471  64.1960373  67.7712326  61.7626724
  64.8580627  69.0746002  62.1550331  58.7737961  57.4178123  46.5226822
  58.6411095  56.6960907  45.9080696  57.9701958  57.4407692  47.0422287
  50.6696548  44.9732018  11.1102495  51.2045441  45.0863876  10.3245583
  50.3771400  45.8576431  11.3303185  44.0857544  25.4879246   3.1007628
  44.0647621  25.1689625   4.0030117  43.1750412  25.4428806   2.8095498
   9.8639574  36.6710625  82.0254974   9.3788872  36.2454071  81.3185577
  10.2790384  37.4268570  81.6099091  80.7216644  47.4297485  47.6512260
  81.4546204  47.3038864  48.2538643  79.9752960  47.6222496  48.2187653
  58.5143585  66.7559814   8.0465078  59.1211929  66.7871094   7.3069029
  58.8034515  66.0030365   8.5619974  59.9343605  50.6271820  36.5470352
  59.3908730  51.2305870  36.0403214  59.3124199  50.0081139  36.9293594
  39.8436317  20.0324459  29.9206734  39.5355453  19.5862827  30.7095032
  40.2510185  20.8361320  30.2437153  76.8754044  69.1029053  43.2679176
  76.2801743  68.9160156  42.5419617  77.2367249  68.2494202  43.5071831
  56.3769341  49.0340080  39.2993507  55.7839165  49.3612976  38.6230011
  56.0035439  49.3540344  40.1205673  21.5673103  62.5166321  13.5316906
  21.3632469  63.2426224  12.9421749  21.2191200  62.7916794  14.3798332
  74.6115646  70.1473160  18.1434555  74.9055634  70.7491531  18.8272610
  73.7797775  69.8030548  18.4688034  32.8317337  20.9477921  77.6524277
  33.3573761  21.6271267  77.2300110  32.5485497  21.3423290  78.4772797
  60.7354164  29.2442970  33.5752640  61.3636246  29.9132042  33.3029556
  60.1139717  29.1896458  32.8492813  14.3781786  19.4165058  75.0763092
  13.7433720  18.7006855  75.0471115  14.6629829  19.5212345  74.1684799
  62.7278709  70.4900665  54.5250511  62.1086960  70.1693878  53.8692932
  63.4133568  70.9226151  54.0158958  24.5970001  37.8230438  69.8018036
  24.1799335  36.9627342  69.7553940  23.8694916  38.4441109  69.7666473
   7.0735974  59.0979042  78.5164490   7.5217142  58.2907753  78.2635269
   7.0132451  59.0494766  79.4705200  75.0487671  30.3286648  54.4684410
  74.1080246  30.2406502  54.6216660  75.2929459  31.1299553  54.9316292
  32.3691063  66.3244629  59.0552406  32.7641258  65.9300156  58.2776756
  31.5028992  65.9214630  59.1144676  74.4325562  33.8211670  46.6590691
  75.0181885  33.5119324  45.9679489  74.0189743  33.0263786  46.9959564
  61.0038490  48.6089783  14.4621944  61.8893089  48.2456741  14.4478521
  61.1266289  49.5302162  14.6912708   9.5905695  65.3566666  44.6368942
   9.6096659  65.1775894  43.6967888   8.9717321  66.0809326  44.7302284
  40.9458466  69.8730011  60.9249916  41.5798836  70.3200912  60.3643379
  40.9244881  70.3957062  61.7265892  39.4948654   6.9206448  33.4996414
  39.5132484   5.9723134  33.6283379  40.3765106   7.2111726  33.7331505
  70.9172897  40.1999245  28.0062656  71.4636688  39.8353119  27.3100166
  70.0300369  39.9138336  27.7890968  12.6218624  63.2572632  20.8387604
  12.8160114  62.7321281  20.0623741  12.6569147  62.6339874  21.5643864
  50.0604668  12.6413307  38.5023232  50.7653427  11.9938030  38.4928246
  50.5082588  13.4839458  38.4267311   8.5168037  39.6575203  71.4501343
   8.2113619  40.1260643  70.6733398   9.1938066  40.2237701  71.8206177
  12.4262772  41.6099701  85.3080368  13.0681114  40.9501190  85.5704803
  11.7634687  41.5872231  85.9982529  27.3228626   0.9888658  85.2015381
  27.0679798   0.3416661  84.5439682  26.5334911   1.1203548  85.7267380
  62.9766273  19.6038990  66.1023483  63.1853981  19.8919373  65.2137070
  63.5799522  18.8792915  66.2672043  29.9369373  61.0931091  48.5735207
  29.3615246  61.0813065  49.3383713  29.6570129  60.3411446  48.0515785
  20.7868900  38.2918663   2.6604142  20.7355442  37.3958130   2.3277194
  21.6509895  38.3466759   3.0685337  35.4425278  18.7208042  72.6652298
  34.9712753  17.9744263  72.2949905  35.4016037  18.5842857  73.6117554
  79.1647797   6.6278796  62.6381645  79.4116898   6.0202465  63.3353386
  78.2159958   6.5289698  62.5591278  33.4242287  51.7125854  84.9968414
  32.9755554  52.5558662  84.9351959  32.8059998  51.0844803  84.6233368
  10.2454853  41.6304550  59.6397095  10.8365145  42.1888580  60.1447868
  10.8161097  41.1774483  59.0189018   2.9352002  20.5020504  36.0568962
   3.0376368  21.1544590  36.7497902   1.9955553  20.4916725  35.8747101
  75.9517975  65.8758469  84.2199402  75.3653412  65.1654510  84.4800034
  76.1339340  66.3460617  85.0335541  84.9003830  56.4566574  71.7769012
  85.8379974  56.4072952  71.5906677  84.6909714  55.6128235  72.1772995
  51.8708153  65.5293121  82.6732635  52.6940498  65.8855438  83.0073547
  51.7643776  65.9375229  81.8140411   8.4037104  26.7842312  72.9398193
   7.6352806  27.1599598  72.5101929   8.0686102  26.4310875  73.7639694
  34.2259140   4.2289758  40.4537048  34.9648094   3.8957188  40.9628258
  34.5806198   4.9824533  39.9818077  76.7728653  21.9873962  83.3152924
  77.1459656  22.7563343  82.8842926  77.2502213  21.9211941  84.1423264
  36.7820511  20.5046043  16.5310993  37.4452591  19.8172951  16.5942841
  35.9557304  20.0317211  16.4320774  56.0826340  33.8805580  25.2256737
  56.3963966  34.6618004  24.7702084  56.4301834  33.9651413  26.1135292
  13.6445160   9.0458536  22.6097565  13.6958971   9.9468412  22.9288387
  13.8714657   8.5094461  23.3693562   4.3563819  62.1552124  19.7560043
   4.1223912  61.4685516  20.3804874   5.0070677  61.7475662  19.1844597
  84.4668121  70.8872070   5.4445529  84.8035889  70.0277023   5.1914520
  85.0596237  71.1827469   6.1355357  76.2672958  66.1131592   8.2476645
  77.0133133  65.6121826   7.9179435  75.5544128  65.9071503   7.6430278
  33.6232834  66.0788422  69.3614044  33.6839600  65.1976547  69.7302628
  33.4408607  65.9375839  68.4324265  81.7629776  61.7740059  15.4921646
  82.2056961  62.5108528  15.0711136  82.4599991  61.1396294  15.6593828
  28.4759808  22.5210114  12.4366379  29.2039719  22.9143009  12.9178705
  27.8028297  23.2013798  12.4225197  10.8959742  70.7216721  44.2660942
  10.2565126  71.4214020  44.1330299  10.5914068  70.0088959  43.7044754
  58.1556435  42.8872643  88.4811249  58.2636909  43.8164749  88.2783356
  58.6368752  42.7631111  89.2991867  41.2844810   0.1077818  56.2856827
  42.0554199   0.2055300  56.8445511  40.5684319   0.4841446  56.7973976
  71.8878098   1.8863138  76.2310104  71.2933807   1.5080208  75.5831070
  71.7656860   1.3465769  77.0120392  27.7922497  18.8794308  49.0512428
  28.6056328  19.3352699  49.2676926  27.1320190  19.5715618  49.0154839
   3.3818812  19.6324978  24.5395699   4.1887379  19.8604164  24.0777607
   3.6452367  19.5517349  25.4562778  56.6335869  12.1779528  22.1197128
  57.4876976  12.3682499  22.5076714  56.5222244  11.2344809  22.2367229
  43.2408524  38.7369957  15.0708132  43.4969177  39.6265831  15.3143311
  42.2845497  38.7633133  15.0388060  61.6757431  54.3174133  35.3035507
  61.8387985  53.3866844  35.1506004  61.9375839  54.7437134  34.4875031
  69.6221771  36.7293129  44.5014114  70.4738312  36.3756638  44.7580299
  69.2154236  36.0283966  43.9920044  56.6839638  21.4276161   5.1817827
  56.6351891  20.9404354   6.0042834  55.9748421  22.0678959   5.2402444
  52.5872498   3.6377687  43.2061272  52.3007011   3.2638547  44.0393791
  52.4543266   4.5801854  43.3081741   1.7049823   0.3295516  44.6817017
   2.0848267  -0.5039152  44.9596977   2.3630395   0.9833091  44.9179077
  65.6431961  15.8744984  21.4723282  65.7384338  15.4281197  20.6309566
  64.9133606  15.4264441  21.8999062  37.3502655  26.6845436   8.7977848
  36.9712944  27.5312729   8.5618591  36.9349060  26.4598675   9.6303873
  36.5141029  50.2784462   4.1525388  36.4016075  50.2001152   3.2052047
  35.9650154  51.0230255   4.3981814  86.4109955  54.7064133  51.9961014
  86.5715027  53.9164314  52.5122414  86.6417618  55.4267578  52.5826836
  52.1730385  65.3894501  39.4013863  52.5977440  65.4798660  40.2544289
  51.2642326  65.1714478  39.6082077  15.4325266   7.4092317  70.9184875
  15.0633516   7.1171899  70.0850296  14.7652836   7.1857896  71.5674057
  25.2370758  13.5887918  71.5287018  26.0527248  13.7699480  71.0616531
  24.5484428  13.7906713  70.8952484  36.8522835  60.9485703  73.2840118
  36.4762993  60.1837883  72.8481522  37.0154800  61.5716515  72.5759430
  46.8038712  28.4000092  77.7128983  47.0930138  29.3112049  77.7613907
  46.9709473  28.0488396  78.5875397  33.8732071   7.7410879  11.7568779
  33.7778664   7.2004056  12.5409727  34.4931793   7.2604070  11.2084150
  53.4707947  46.8555412  72.9249039  54.0145187  46.2999229  72.3664398
  52.5791588  46.5371132  72.7841263   9.7106380  54.9709854  49.9375381
   9.0815420  55.3113747  50.5736237   9.8668861  54.0682259  50.2147408
  62.9206238  10.4708977  70.0636902  62.1427841   9.9493990  70.2617722
  62.8224792  11.2595453  70.5971985  82.2580414  49.6256676  79.0403900
  82.6722565  49.8910255  78.2192688  82.9760895  49.5975380  79.6727219
  82.4375153  56.0038185  82.5292511  82.8147964  56.3846741  81.7362595
  81.5814972  55.6759567  82.2536240  85.9933777  16.2161789  25.5973492
  85.3951492  16.3309650  26.3357105  86.0490875  17.0838909  25.1970921
  27.5274830  56.1813431  52.1166000  27.8808441  55.3779373  51.7346191
  27.1640663  56.6608276  51.3721161  15.7976055  67.2475433  78.8303833
  15.8598547  68.1099243  79.2410583  16.2391319  67.3512421  77.9874496
  37.2917976  62.2104454  12.3271313  38.2143326  62.1805229  12.0736151
  37.0978279  63.1436119  12.4154673  45.6609688  13.1235361  86.7582245
  45.5223961  14.0471392  86.9679565  45.3816719  12.6548176  87.5446854
  66.4574738  30.7717991  69.7249832  66.6111145  30.2934017  68.9102707
  66.3950882  31.6884193  69.4563828   3.4533958  63.6038322  12.8288307
   2.7333031  64.1465607  13.1499882   3.1014025  63.1764259  12.0480261
  28.4871597   0.0769764  10.0267267  29.4263649   0.2355443   9.9319534
  28.1282406   0.2351929   9.1535845  27.4585896  57.8574715  17.4647064
  27.1931133  57.6628723  18.3635311  28.3754673  57.5859680  17.4216652
  71.9781265  70.3114548  35.2165985  72.1455917  70.6413193  34.3337708
  71.0838394  70.5917130  35.4113655  57.4310265  14.1712265  60.5983238
  58.0599747  13.7128515  60.0410576  57.9379539  14.4322157  61.3671837
   1.5529678  52.1304665  57.4610214   1.4818944  51.2219925  57.1680069
   1.4203833  52.0877533  58.4080315  15.2656212  12.6829805  16.4896965
  14.7177343  11.9020014  16.5679436  14.7491999  13.2851582  15.9540443
  35.5659370  34.9143677   1.0590110  34.9496117  35.1408615   0.3625363
  35.0161018  34.7792320   1.8307965  37.6426086  69.3939285  64.3112030
  36.9043198  69.9746017  64.1268692  38.2875633  69.9555893  64.7410812
  70.3296967  47.1456680  37.7570877  70.0082779  46.9084091  38.6269341
  70.0642700  48.0584030  37.6444054  71.2123642  13.2764235   0.5623290
  71.7135010  13.1203136  -0.2381231  71.8472824  13.1595325   1.2690427
   0.5667985  55.2487564  43.7534866   0.2826592  54.3978004  44.0872116
   0.3947321  55.8573875  44.4719505   9.2145844  12.6957979  42.3424110
   9.8344603  13.1722193  42.8946838   9.2621737  13.1362629  41.4939079
  13.2178240  21.2202358   5.5485249  12.3912945  20.7388668   5.5854487
  13.8631516  20.6166897   5.9166517  73.7627029   9.0812283  17.3322582
  74.3024292   9.5081959  17.9975643  73.0112381   9.6640253  17.2232628
  79.3040390  42.0851860  73.7506561  79.0922623  42.9874573  73.9899979
  78.4907303  41.6017303  73.8956604  52.2265663  52.4076805  78.4760132
  51.9332390  51.6141701  78.9238281  51.6737480  53.1026154  78.8333588
  81.8299332  39.8050385  88.7604675  80.9860611  40.0177307  88.3618774
  82.4518356  39.8319168  88.0333176  85.5266190  48.7148323  17.4193325
  85.1529541  48.0958023  18.0465565  85.6053848  49.5336227  17.9088287
  66.2887802  62.4591370  77.5866470  65.8053970  62.8116837  76.8394623
  66.5686111  61.5891495  77.3019562  71.2423706  18.9866905  53.3631630
  71.0435410  18.7357483  52.4610939  71.3103638  19.9411087  53.3368225
  45.5423241  51.8388824  66.0587387  45.7954826  51.2326927  66.7549286
  45.1007347  51.2891960  65.4113770  18.5960331  19.5697594  20.0997353
  17.7381668  19.2266979  20.3499489  18.4770412  19.8811646  19.2024632
  32.1396599  37.5142632  85.7752151  31.4064999  37.1572418  85.2739716
  31.9317589  38.4432716  85.8749847  49.0250778  19.6668510  26.0484886
  48.3629036  19.4377308  26.7006092  48.8273506  19.1053982  25.2988853
  76.4582825   0.0727447  51.2183380  76.7847672   0.6045096  50.4924812
  77.1878281  -0.5067614  51.4377899   3.1494501  69.3852997  54.5406456
   2.5657568  68.7993011  55.0224533   2.6545653  69.6253662  53.7572632
  20.3236580  49.6397247  11.6580601  19.8477249  49.1949463  12.3594093
  19.9477463  50.5196991  11.6341410  67.7751465  17.5508747  52.3952103
  68.4826813  16.9350281  52.5858994  67.4762039  17.3083401  51.5188332
  23.0295696  16.4309464  62.3771057  23.3729877  17.0249672  63.0445137
  23.7753410  15.8794136  62.1407433  23.5987225  48.2728462  77.7914124
  23.1704197  47.7784309  77.0926056  23.1413555  49.1135979  77.8049698
  13.3696165  67.9620132  27.5644646  13.2095165  68.4540787  28.3697395
  12.5206308  67.9426880  27.1227837  77.9537430   8.2565098  13.1420984
  78.4332504   8.8528614  13.7171354  77.0755386   8.2134056  13.5204258
  29.2278843  43.2243690   8.0442171  29.6384411  42.8854141   8.8396940
  29.4458733  44.1564102   8.0406494  45.8323402   0.4421161  72.3483276
  44.9290848   0.1682344  72.5075302  45.8158035   0.8234703  71.4705276
  19.1349087  19.3667068  13.9144897  18.3343067  19.7741299  14.2450571
  19.8210316  20.0110493  14.0885258  57.2195625  17.6486588  44.7440834
  57.2133484  17.4574127  43.8062019  57.7169876  16.9287319  45.1320343
  26.3945312  65.4171371  55.9420509  26.1601143  64.5737305  56.3292809
  25.5646000  65.7747879  55.6265640  35.0619545  71.2820587  80.1173553
  34.3340378  70.9433975  80.6385803  35.8192635  71.2284927  80.7003174
  33.2784462  41.4701729  85.6515884  32.7204971  40.7099419  85.8158264
  33.6489182  41.6847916  86.5076981  69.9027481  34.0958748  56.7738113
  69.2758255  33.3727226  56.7893639  69.3595428  34.8839798  56.7806244
  77.0666046  52.2866821  83.1991425  77.9614944  52.5944862  83.3428879
  76.6598969  52.9719505  82.6688309  18.2253418  48.7238884  88.1213760
  18.5192623  47.8933868  87.7470627  19.0272331  49.1429176  88.4338074
  45.7289581  69.5413895  18.9159565  46.1322746  69.2198792  18.1096096
  45.0409851  70.1368637  18.6187363  36.7392616  54.2237892  28.9013920
  37.6579742  54.2373848  28.6330357  36.6080284  55.0597534  29.3487968
   2.2353675  67.0342102  38.2024841   2.3842933  67.2261963  39.1283302
   1.3058527  67.2177658  38.0663147  79.2239532  22.6167221  24.1050491
  78.9889450  23.5060654  23.8403378  79.7779388  22.2938004  23.3943806
  85.3978348  46.8010292   7.6879845  85.8664093  46.3066216   8.3604679
  85.7705231  47.6814575   7.7346730   1.3114618  30.9391193  46.5151138
   1.3880978  30.8585014  47.4658318   1.7966400  30.1890564  46.1712570
  19.5937500  56.1376839  33.8451729  20.0294228  55.3759918  33.4627571
  20.2766705  56.8069153  33.8897400  54.7389221  54.9663620  80.9194870
  55.0485611  54.0707588  80.7843781  54.4234810  55.2430801  80.0591660
  47.5115128  13.2596588  34.4226646  47.0157585  12.4996033  34.7272568
  48.4279327  13.0154314  34.5521278  23.5654221   8.0742321  35.2422523
  22.7269325   8.5342360  35.2027397  23.4867840   7.3766065  34.5915871
  19.1780109   0.6277804  47.1798477  18.7464638  -0.1611510  47.5078545
  19.3801422   1.1347460  47.9662094   8.7610893  43.7113876  47.7376709
   9.5120659  43.4977188  47.1839447   8.5479002  44.6171150  47.5130692
  45.1902199  58.5514603  34.0839958  44.8689003  59.4422035  34.2238770
  46.1304359  58.6561470  33.9381523  12.1308966  32.0835266  40.1320915
  12.4842367  32.7455025  39.5378075  12.2400589  31.2568970  39.6619835
  79.8231812  55.3786125  81.1648254  79.5763321  55.9144287  80.4110336
  79.4047165  55.8078003  81.9110947  10.7532454  51.8041687   1.8044626
  11.4251566  51.9140091   2.4772942  10.5273914  52.6969872   1.5435123
  45.1826210  31.7745209   7.0157423  44.3454094  32.2170105   6.8760633
  44.9714355  30.8420792   6.9690075  59.5790367  49.3845177  76.0574188
  58.7898102  49.7201233  75.6323090  60.2616272  49.4623184  75.3908997
  54.6069603  45.1502609   6.7482338  55.1565704  44.8153229   6.0397291
  54.6361923  46.1014099   6.6448460  67.7682877  13.9201441   0.5889817
  67.5372696  13.4683075  -0.2226262  68.2801437  13.2793207   1.0825216
  23.9134884  11.8841314  19.8264027  24.7511253  12.1222544  20.2237606
  23.2860222  12.5017118  20.2020531  68.8052063  44.0549202  86.5780182
  68.5199280  43.2872810  87.0735703  68.3880768  44.7941895  87.0204163
  28.9009209  62.5568924   3.1481538  28.8832321  62.0930214   2.3110516
  27.9920692  62.8180733   3.2965004   6.4344444  33.5433197  79.0972519
   6.5205960  33.6000671  78.1456223   5.4924240  33.4656868  79.2482529
   1.1389965  41.7821083  47.1568298   0.6623952  41.0267105  46.8126564
   1.7383618  41.4121361  47.8049889  39.0892563  67.9799118  27.2855892
  39.3433647  67.3065109  27.9166183  39.9180946  68.3587799  26.9928188
   2.4654233  64.1338272  41.3883514   1.8839408  63.5147095  41.8297195
   2.6758692  63.7124214  40.5550652  26.1430435  69.0581131  76.9146271
  26.8347664  69.6725006  76.6691208  25.9791985  68.5515594  76.1191483
  43.3335304  26.9914722  80.5242920  42.5629807  27.3421345  80.0776138
  43.1857605  27.1906338  81.4488068  18.5807247  70.3606186   9.6760397
  18.4024239  69.5932388  10.2197065  19.3774586  70.7382431  10.0486574
  67.3938293  69.9710007  17.0905495  66.7413940  70.6561966  17.2356853
  67.0332489  69.2002335  17.5288811   6.4413705  63.3650551  22.6174202
   7.1208544  62.9887428  22.0580235   6.7933130  64.2145767  22.8832703
  14.9659023   9.6087494  31.5131226  15.4034891   9.4644871  32.3521347
  14.3544598   8.8766747  31.4328938  11.5741243  28.7894402  14.0592337
  12.0209103  29.1103382  13.2758827  10.9687548  29.4925346  14.2946463
  42.4504662   8.6411495  74.5861969  41.8183022   9.2153711  75.0184784
  42.1253815   8.5589418  73.6896515  15.4935904  11.3363504  23.8864746
  15.9356194  10.6181793  24.3393230  16.0132732  12.1109381  24.1013603
  52.9623489  52.6989784  71.1733322  52.8074875  53.1674614  71.9935608
  53.9136391  52.6027756  71.1283722   3.8520410   5.2799850  40.7147789
   4.5311308   5.7111964  40.1960068   3.0524619   5.3879161  40.1997490
  16.5163174  26.8488808   2.6329029  16.6181278  27.4640141   3.3591797
  15.9625282  26.1520691   2.9850440  36.6265678  13.4895353  72.3366089
  36.6177750  13.9822979  71.5160370  36.6367378  12.5718002  72.0647812
  26.2503948  46.9250031  13.0835485  26.9008141  47.5346794  13.4320898
  25.6103745  47.4837914  12.6426821  40.9961319  23.8402176   0.3127367
  40.7859344  23.0632019   0.8307097  41.9223633  23.7386475   0.0936292
  69.2113266  50.6682243  48.7916603  68.3825073  51.0861893  48.5579987
  69.1330185  50.4881706  49.7285080  37.7573242   8.7166405  82.5031509
  37.4959526   8.3085346  83.3285980  38.7082939   8.8032541  82.5693512
  83.3243561  58.8971100   9.4495516  82.9502487  59.5990372   9.9820681
  83.1225357  59.1469994   8.5478563  26.3123093  64.3083344   2.3150573
  26.6978874  65.1610641   2.1140506  25.5580559  64.5109787   2.8684704
  36.4504242  62.5993919  32.2857475  36.3142776  63.1209526  31.4947548
  35.8888664  61.8333511  32.1671333  82.8531418  67.0740433   7.7201481
  82.7316818  68.0231705   7.7453723  83.7611847  66.9414673   7.9923882
  44.2693405   5.9183130  29.1315804  44.9189873   6.1148715  28.4566307
  44.2107697   6.7216034  29.6488094  16.6523685  32.1945076   4.8581066
  17.0082455  31.4065342   4.4473972  17.3378391  32.8532181   4.7464857
  80.0634308  68.8041000  67.9808731  80.1033630  69.2083054  67.1141205
  79.3136368  69.2211075  68.4053040  53.3954163  58.8445015  76.3836365
  54.1550598  58.3396149  76.0933609  53.7270966  59.3857079  77.1000977
  12.0687180  16.5786114  44.6463776  12.7736168  16.3753777  45.2612305
  11.2865925  16.6495571  45.1936226  30.9213982  22.5423088  85.8598709
  30.8639603  22.3701248  84.9200363  30.0259857  22.4301662  86.1790771
  19.7555695  23.5884571  21.5781784  19.5522995  24.4664135  21.9008350
  20.6509819  23.4256439  21.8747597  27.3397884  33.4141579  10.2578869
  27.6533566  32.5422897  10.4982004  27.4474583  33.4539070   9.3075924
  85.1829300  20.4584293  71.7221069  84.7088623  19.9468536  71.0665283
  85.9136047  19.8971081  71.9814682   1.4878076  10.9184542  83.5790253
   1.5691900  11.6188107  84.2264175   0.7484019  10.3935852  83.8856583
  65.4725647  11.7930212  68.9155502  64.8446884  11.2528963  68.4356918
  65.0544434  11.9516315  69.7618713   6.5703511  30.3338013  63.2906609
   7.2288909  30.7988472  62.7746277   6.7968478  30.5290623  64.1999512
  83.0513687  23.5384865  25.3045712  82.1934738  23.9533443  25.3947830
  82.9550018  22.9492722  24.5563927  54.1632462  29.6539822  57.3828201
  55.0299339  30.0462208  57.2768211  53.6451378  30.3316479  57.8170586
  63.5294304  28.5995064  78.0976410  63.6652222  28.0785313  77.3062057
  62.6697197  29.0020561  77.9748306  30.9675274   4.2390103  52.6301765
  31.7373028   4.7867241  52.4762650  30.4933872   4.2531753  51.7987785
  77.2846603  25.0162201  72.2792587  77.5329514  24.4965725  71.5146942
  77.3138962  24.3975716  73.0090866  70.3659363  40.2835884   3.7897038
  71.0039444  40.9456558   3.5235448  70.1423187  39.8268051   2.9787929
  18.1246338   8.1373663  64.6401672  18.1127453   9.0042295  65.0459290
  18.8890228   7.7050910  65.0210648  15.6100855  66.6228485  26.9009838
  14.8106403  67.1177979  27.0802708  15.8765154  66.2808533  27.7543831
   2.8113148  51.5101891  82.7248611   3.0279937  52.3661652  82.3552780
   1.8980711  51.5921669  82.9996338  46.2756538  20.2589283  73.3676453
  46.7354088  19.5316029  73.7869949  45.4989281  20.3958721  73.9100266
  78.3045502  47.7591057  75.9621582  78.4203873  47.9911346  75.0407639
  79.1950607  47.6456947  76.2943726  73.0605240  48.3150406   2.7675171
  72.8659439  48.9910088   3.4166977  73.9869385  48.1145096   2.9008389
   0.7513332  60.2701530  66.1274643   1.3463641  60.8759308  66.5692825
   1.2906461  59.5035515  65.9333115  64.0266495  14.5993204  23.8755684
  63.8725700  15.3673944  24.4256172  63.2234001  14.0844650  23.9526939
  82.9696274  63.9640198  84.9574890  83.8579407  64.2493057  85.1713791
  83.0794373  63.0787849  84.6103134  79.9320984   1.9393879   6.9883089
  80.1260071   1.5462861   7.8392510  80.6521988   2.5517595   6.8376875
  37.8334160   3.7981045  71.3581314  37.9949799   3.6123359  70.4331360
  37.2588005   3.0895338  71.6479187  66.7879944  53.8010941  57.1714287
  67.3192902  53.0839958  57.5174446  65.8987885  53.4479675  57.1423683
  33.8249512  66.0989532  78.9664078  34.4151611  66.3270264  78.2481689
  33.5257454  65.2137680  78.7586517   8.6887522  16.4151840  66.1733704
   9.5023174  16.1987953  65.7178345   8.5932074  17.3604660  66.0569839
  14.0094099  53.2697411   2.2350440  14.6552906  53.9530525   2.4143574
  13.4759560  53.2301559   3.0288267  85.2733002  62.9531364  23.7821789
  84.7802963  62.8937187  22.9638557  85.6063995  63.8503914  23.7965107
  69.1775894  45.7052155  67.2424850  69.9259720  45.7148399  67.8391876
  69.5552139  45.4966164  66.3880157  12.5500517   3.0389202  85.3013306
  11.9243765   2.3788288  85.5997238  12.5884619   2.9207811  84.3522263
  44.1572418  34.8823242  11.4967909  43.4899940  34.4423141  12.0234804
  44.3951263  35.6553688  12.0086946  14.2083101  46.4899216  49.7693024
  14.9324341  45.9712296  50.1197777  13.6082897  45.8432426  49.3978004
  61.2517776  56.3853951   5.8121719  60.7884750  56.6774292   6.5972214
  61.5430489  55.4980850   6.0221062  35.3275299   8.0527697  17.6547108
  34.9396133   7.9352884  18.5218601  36.2677231   8.1223116  17.8203411
  16.0112686   6.8740721  81.1378860  16.4775982   7.3808813  81.8026505
  15.7384396   7.5232177  80.4895020  55.2339020  38.1436729  23.3390636
  55.9428673  38.6655922  22.9632950  55.6423225  37.6724815  24.0652885
   5.5430861  11.0353298   8.9974966   6.1288762  11.7290201   9.3006048
   6.0637608  10.5421619   8.3635283  72.0312424   5.2555389  65.2776489
  72.4430923   5.9966722  65.7218704  72.1654129   5.4300027  64.3460922
  37.5259209  50.7839813  29.6570816  38.2322502  50.1822395  29.8921013
  36.7252502  50.3226624  29.9067707  10.0349340   6.5353131  25.1881962
  10.4287033   7.0279894  25.9082298   9.2678385   6.1149664  25.5769196
  65.3884125   9.6363087  76.2764969  66.2973328   9.3388920  76.2359314
  64.8703613   8.8389711  76.1664658   1.5355064  34.4751396  47.6559410
   1.3453276  34.9870529  48.4420776   0.9027322  33.7572899  47.6786804
  26.1904430  45.5335541  20.0210991  26.4426804  45.2913208  20.9121265
  26.5688190  44.8481712  19.4703598  58.2016258  39.9720154  56.7008514
  58.5130119  39.2683449  57.2701645  57.4701309  39.5849724  56.2198639
  83.2532730  63.4491425  29.4869423  83.8668289  62.7644196  29.2206059
  83.2986908  63.4527588  30.4430580  66.6141510  47.8224602  84.1298065
  66.5964890  46.8657036  84.1529312  66.1687241  48.0505867  83.3138504
  45.6456184   0.8629521  58.0326729  45.6413116  -0.0252797  57.6759415
  46.5463104   0.9984915  58.3269844  36.6537323  56.2550545  67.0311890
  36.7190018  56.1911964  66.0783539  36.5703964  55.3484840  67.3268509
  83.3726883  22.8429871  56.1503143  82.5690079  23.1831551  55.7571068
  83.1742477  21.9274559  56.3469238  65.0414505   8.1483383   5.0640421
  64.1481171   7.9459200   4.7861710  65.5207520   7.3283048   4.9455347
  45.1811905  54.6343269  51.4162712  44.3058281  54.4703712  51.0654297
  45.3666496  55.5437050  51.1820374  86.0397339  49.3745003  34.3882790
  85.7677383  49.6594124  35.2606773  86.1376114  48.4254913  34.4659348
  18.1324825  13.6432028  82.7062836  17.8168564  14.3892984  82.1964340
  19.0297508  13.5074310  82.4018097   9.1104832  57.4897995  74.2267303
   8.7145224  58.0209351  73.5358276   8.8594360  57.9284248  75.0396347
  50.4057808  64.6322098  14.5554419  50.3831825  63.8368111  14.0234060
  51.2283707  65.0582504  14.3144674  27.6254692   0.3842854  20.2998829
  27.9983482   1.2296250  20.5500717  26.8505402   0.2909157  20.8539581
   5.2653170   7.6977668  67.5074234   4.3358660   7.8704882  67.6574936
   5.6885695   8.5486507  67.6218185  77.0831757  13.6406345  67.6198578
  77.5818710  13.9416227  66.8602905  76.3436279  14.2457371  67.6759186
  45.0755615  65.5897675  48.7250786  44.7251587  65.9945755  47.9316177
  44.8232956  66.1863937  49.4298019  69.6278381  65.9706039  47.4839134
  69.2420731  66.2135391  46.6422501  69.9369354  65.0737915  47.3557816
  13.3485909  69.5804138  53.4518089  13.6173506  70.1737518  54.1531982
  13.5085526  70.0730820  52.6468735  35.5699654  48.5839767  75.0690842
  34.6978073  48.1908035  75.1006165  35.4068031  49.5191994  74.9467316
  67.8989639   2.8099160   4.4011483  67.4790192   2.2660086   5.0675130
  68.3292236   3.5065844   4.8968940   1.7706525  44.1765823  48.9919510
   1.4853889  44.8793106  48.4079742   1.4195344  43.3788986  48.5961609
  79.9492645  36.6340294  70.1171951  79.3970871  35.9005661  70.3880615
  80.8231888  36.2545929  70.0248947  17.5530434  25.1188450  59.7024269
  17.6936359  25.8995819  60.2380714  16.9325333  24.5916595  60.2056923
  60.8780403  18.8787537  62.8665352  60.6004829  18.3632431  62.1092758
  60.3800316  19.6932659  62.7973328  50.6152954  65.6873245  79.9865265
  50.5986061  66.0271683  79.0918427  49.8703957  66.1076126  80.4163208
  67.5733185  55.2234306  81.2560349  67.0742950  55.2263641  82.0728607
  68.0258026  56.0668945  81.2487717  68.0515976  55.5538292  74.1347198
  67.8624496  54.8513222  74.7567596  69.0040970  55.6453934  74.1591873
  65.6684799  40.8592834  15.7774773  65.2557144  40.1546478  15.2781343
  65.2762833  40.7971878  16.6484280  53.8273392   6.6410861   2.2179606
  53.1258583   7.0869422   2.6926961  54.6304398   7.0578995   2.5302548
   4.0108171   1.7004097  35.6251030   3.0866542   1.5589896  35.4197845
   4.0041242   2.3645182  36.3144112  50.2232056  55.1612549  60.3380699
  50.4924545  55.8214760  59.6994476  51.0200195  54.9661179  60.8312645
  69.7819672  26.1463146  45.0302124  70.6728439  26.2738590  44.7041626
  69.8567352  26.2512646  45.9786987  20.7054329  13.7731800  69.9466171
  20.4327793  14.6690798  70.1447449  20.1735592  13.2273369  70.5257568
   0.4746682  16.4486370  40.6195412   0.4312602  16.6161346  41.5609703
  -0.2448596  15.8402500  40.4510841  68.2980728  19.7684441  54.2436752
  68.5848770  19.2886925  53.4666214  68.2527161  19.1046333  54.9318123
  66.8815231  28.7166576  -0.0157759  66.5429535  29.5755711   0.2369509
  67.8324127  28.8056984   0.0483414  37.2272949  16.9414978  33.6254997
  36.5763931  16.2400303  33.6030655  37.5399513  16.9492741  34.5301628
  66.9517517  12.7639246  72.9948578  67.8908615  12.9466619  72.9646606
  66.6459732  13.2111702  73.7839737  12.5252199  12.3579435  24.7322636
  13.1552153  11.7189617  25.0654907  11.6699514  11.9841776  24.9445038
  82.2493591  11.3832645  33.9054031  82.7289124  11.3559618  33.0774422
  81.3979263  11.7561665  33.6768608   6.1504598  48.1476669  22.8615456
   6.9917598  48.3961830  23.2445412   5.9238133  47.3247604  23.2947731
  63.5051956  59.0214882  55.9403572  62.9524345  58.6190262  55.2704964
  63.9862785  59.7055244  55.4746437   8.6197882  42.0799675  14.5757046
   8.5640812  41.4224434  13.8823147   7.7688060  42.0404663  15.0121679
  63.3561745  59.9991455  69.2004471  64.1660767  60.0089607  68.6903610
  62.8619156  59.2577057  68.8508682  85.5293503  22.0782413  43.5732384
  85.6195831  22.8757305  44.0948715  85.5097351  22.3857536  42.6669922
   5.8125730  39.5530396  79.8335342   6.6209784  40.0431862  79.6836319
   5.7665615  39.4519577  80.7842712  23.9037704  54.2109337  82.8372421
  23.4982719  54.5770645  82.0512695  24.3213024  53.4034805  82.5373840
  62.9308929  54.8305130  28.2489948  62.4219513  54.3973770  28.9342690
  62.3720055  54.7888336  27.4730206  53.8561516   5.0880022  57.9344025
  54.7272072   5.4435577  57.7581177  53.8142357   4.2869458  57.4121170
   7.5942121  69.4729004  48.4894295   7.6686273  69.1274719  49.3790245
   8.1354885  68.8879166  47.9592896   4.1643434   1.1486244  23.8971710
   3.7003019   1.7592875  24.4698734   3.7581930   0.2998453  24.0728073
  82.6229019   2.2272170  51.1752434  82.7390976   3.1293166  51.4734802
  82.1313705   2.3066609  50.3577347   9.0292454  52.8537521  25.4214382
   9.2111692  52.0393105  25.8902855   9.0318842  53.5273361  26.1015186
  70.9545593  57.2101059   2.1939795  71.8691559  57.4522476   2.0486631
  70.9836349  56.5914955   2.9238465  69.6020660  47.4656296  84.3836517
  68.7612000  47.9226074  84.4023361  69.8819962  47.4416161  85.2986832
  85.1093445  70.1501389  32.3367424  85.2696686  69.2084885  32.2749519
  85.5691910  70.5213089  31.5837421  60.1892586  62.2718048  30.4236126
  60.8164749  62.9811363  30.5638905  60.3746223  61.6461945  31.1239586
   6.5490541  66.4658127  34.2340012   6.1221538  66.5314636  35.0882111
   7.0500145  65.6513901  34.2785645  18.5266323  48.8365059  41.0308685
  18.5581245  48.7262306  41.9811745  18.0331440  48.0783424  40.7179947
  83.3457260  38.0595016  71.0699615  82.8299332  38.8605804  71.1619263
  82.7112579  37.3958626  70.7992935  86.4799957  30.9901676  10.8270435
  85.9133453  31.1043453  10.0640907  86.7194290  30.0635357  10.8110313
  43.6515427  52.1257019   9.0061712  44.3483543  52.4708786   8.4480181
  43.5535622  51.2141876   8.7308960  10.5191107  64.7286606  63.6217003
  10.8535938  64.1791153  64.3304672  10.6025562  64.1856613  62.8378487
  20.3301754   2.9169135   8.3835411  20.2537823   3.8589561   8.5350389
  20.8349533   2.8447573   7.5734644  80.4063263  13.7819176   9.6019211
  79.7437057  13.5322971  10.2460127  80.0406418  14.5531397   9.1686573
  15.0497866   3.5084882  56.0189819  15.3851566   3.6310134  55.1308708
  14.4907026   4.2704020  56.1711197  25.4302731  59.7628403   8.2204666
  25.5050678  59.1599350   8.9601603  26.2128181  60.3110352   8.2782164
  77.6258698  53.7972031  65.6195297  78.3024368  53.8475685  64.9442902
  77.5003204  52.8592262  65.7632980  44.0409279  21.2186413  75.1713486
  43.4485397  21.9633274  75.0676727  44.6425362  21.4860878  75.8661652
  42.4506950  28.7650738  16.5380306  41.7920494  28.2355022  16.0886135
  43.0968208  28.1308117  16.8486137  26.8560390  60.7134361  86.5627747
  27.7728958  60.9724541  86.6550674  26.6958065  60.7316971  85.6192627
  55.3238220  43.0789566  38.1810455  55.6715126  43.8334808  37.7056122
  54.8146667  43.4603844  38.8962402  23.4476528  50.2772179  83.9773026
  24.4016132  50.1999779  83.9923477  23.1331921  49.4137917  84.2453384
  24.9905052  70.1016846  83.2362823  24.4196720  70.8397751  83.0227127
  25.8255577  70.3166504  82.8206940  42.3098755  19.3838329  17.9563580
  43.1168442  19.0180874  18.3186607  41.9598770  19.9332085  18.6577282
  67.0613861  39.9101830  11.9528418  67.1137238  40.8659248  11.9458771
  67.1801147  39.6705017  12.8719110  26.2558060  62.5743179  38.5163231
  25.3956413  62.9322472  38.7359467  26.2502384  61.6922874  38.8881111
  76.8825226   8.9997654  51.6615829  76.9983521   8.2127132  51.1292648
  75.9351959   9.0734062  51.7772484  30.5383835   6.5957670  15.1087828
  31.0032482   5.9743724  14.5484238  30.8789654   6.4272509  15.9873257
   0.8472770  48.8232994  15.6136780   1.2800691  47.9819107  15.4688120
   0.1098109  48.6175308  16.1881638  70.8378448  26.5671825  29.0802650
  71.3422318  25.7984505  29.3464966  70.0653687  26.5542831  29.6453724
  66.5512695  69.7542343  31.0588837  67.2402954  69.1825943  30.7202053
  66.0108643  69.9564056  30.2951317  41.6699486  54.1335793  73.0657120
  42.4333687  54.5368385  72.6524353  40.9534302  54.2915115  72.4509811
  46.9380341  55.4355278  62.2326660  47.1049690  55.9542427  61.4457130
  47.3545799  54.5919495  62.0563164  72.0474548  41.3510323  72.0766068
  71.8041229  40.6413002  71.4822159  71.2809067  41.4666405  72.6380844
  72.5916519  42.8906937  47.6896172  71.9455872  42.2698479  47.3528862
  72.0854797  43.6780128  47.8899956  19.5793381  68.5635910  26.0092487
  18.6276836  68.4731064  25.9602718  19.9146996  67.6994476  25.7704506
  65.5827179  46.5620422  61.3855934  65.4630203  45.6144981  61.3218536
  66.4349747  46.7235641  60.9808578  70.6127472  60.0460815   1.2354794
  71.1096954  59.2281456   1.2516762  71.2723770  60.7242546   1.0898581
  71.2207947  30.8972301  42.6994629  70.4044724  30.4973698  42.3995285
  70.9492416  31.7204418  43.1054382  62.4567757  22.9549503  15.3750505
  61.8008194  22.3591671  15.0131159  62.6621895  23.5510941  14.6548786
  40.8605118   5.9358144  77.9213409  40.3035088   6.5387211  77.4289169
  40.8472748   5.1262875  77.4107285  52.7937965  48.8285027  57.4618187
  51.9362144  49.0360718  57.8328972  52.5969887  48.4006081  56.6285133
  72.0458221  34.6155586  60.7443886  71.5287857  35.3789558  61.0015450
  71.7626801  34.4247017  59.8501663  59.5741730  61.6975861  42.8793907
  59.9137039  61.4492874  42.0195656  60.3551521  61.8190536  43.4193459
  63.2841988  67.2031860  36.3068237  62.5720482  67.0422668  35.6878128
  63.2207222  68.1369705  36.5074615  27.6375484  57.4257965  42.7724266
  28.2279320  57.2097511  42.0506210  26.8828259  57.8358879  42.3499908
  80.3248978   8.9510937  32.6994438  80.0298157   9.3081961  33.5370789
  79.7192688   9.3185997  32.0557175  13.1930370  25.6545582  19.0677948
  13.9152222  25.7156963  19.6930485  13.1411705  26.5262680  18.6757965
  52.7878723  38.3606415  20.2161846  53.3326950  37.5911598  20.0509682
  52.9489861  38.9336166  19.4665337  63.9819641  50.5584068  10.8945065
  64.5041122  49.8984871  11.3506908  63.6192131  51.1021729  11.5937643
  84.3406296  58.7187996  52.2201958  83.8251343  59.5242462  52.1783867
  83.7019348  58.0184593  52.0867004  28.6200733  24.0569649  52.2696342
  29.4647121  23.6676712  52.0432091  28.6169014  24.9012814  51.8186874
  48.6974106  32.8513680  19.8259983  48.6206474  33.7651367  19.5514755
  48.5616302  32.3479118  19.0232983  84.2999649  32.5850525  19.1928825
  85.0164719  33.0672951  18.7802124  83.7356110  32.3250847  18.4647675
  56.5292282  50.5105286  48.1598625  56.0763168  51.1563530  47.6176376
  56.9392204  49.9157829  47.5318375   5.4628534  22.0708351  37.3101120
   4.6747246  22.2801208  37.8113937   5.5495009  22.7927685  36.6875877
  15.0589266   2.6494966  36.8349075  14.5077391   2.5182629  37.6063995
  15.3802528   1.7742161  36.6184235  21.1012402  64.6393661  37.7089043
  21.7910843  65.2416458  37.4303246  20.3103580  64.9662247  37.2800713
  45.0279388  70.0757141   4.1323886  44.6297188  69.4577026   3.5194294
  45.7030144  70.5202408   3.6196499  38.4346008  62.7311134  46.7108192
  37.5414543  63.0519371  46.8356895  38.9777489  63.3284531  47.2250252
  35.8491058  70.4096909  84.6301880  35.0694618  70.3868027  84.0753326
  35.8540649  69.5602798  85.0714417  67.5746384   2.2562971  48.7895126
  68.2677841   2.4955161  49.4047813  67.8463745   1.4072715  48.4408722
   6.8020821  26.4769363  39.5747032   7.5049953  26.9239578  40.0462074
   6.9452505  26.7072144  38.6567116  30.4170189  53.0835571  79.0661240
  31.0500011  53.3231621  78.3892517  29.5762405  53.3911781  78.7274628
  82.6140671  71.2323914  50.8174973  82.8992844  71.3668900  49.9137306
  82.4218597  72.1123505  51.1414642  14.5344095  68.2122192  87.6073532
  15.2074318  68.5091629  86.9949036  15.0249767  67.8477249  88.3440475
  22.3010502  57.6159019  14.5152292  21.7420044  58.3360825  14.8068466
  22.5895634  57.1938477  15.3244648  61.0224762  69.4417496  52.6653900
  61.4063873  69.0798645  51.8667145  61.2309837  68.7993927  53.3437195
  84.8992996  38.6593208  67.8976974  85.7023849  38.1844292  68.1116028
  84.7899704  39.2812424  68.6170654  73.3881302  25.6347237  85.6834946
  72.5313721  25.3026009  85.4153748  73.4536743  25.4071999  86.6109467
  14.9083290  59.3681221  77.2830811  15.3118601  60.2092781  77.4972000
  15.0545025  59.2648048  76.3427658  21.0483456  63.8840714  57.5931473
  21.6524506  64.4226456  58.1042519  20.2417374  64.3981323  57.5562782
  74.5215683  45.7130966  13.5550222  75.1223831  46.0934868  12.9142752
  73.6918945  46.1658096  13.4036179  54.5247612  68.5162430  21.7522259
  54.4217682  69.4101791  21.4258785  53.8601265  68.0119171  21.2830296
  85.4498444  71.4457703  74.6862946  84.5675888  71.2311554  74.3833084
  85.3867035  71.4254837  75.6411972  80.1938477  53.5641937  46.8937988
  80.7332382  52.8232193  46.6176796  80.4699402  54.2853584  46.3281746
  75.7402191  33.5894585  19.4046974  76.4650040  33.7678223  18.8054428
  75.2376404  32.8981895  18.9736633  84.5158005  55.5464516   7.5707645
  84.1139755  54.7447510   7.9054852  84.8098755  56.0119362   8.3537588
  29.7952633   4.3073435  18.6064339  28.9773006   4.3642063  19.1003342
  30.2254791   5.1488996  18.7578545  19.8924904  50.6066551  82.7811890
  19.9457073  50.0030746  83.5221939  19.7754593  51.4680519  83.1818466
  77.1279984  17.3449364  46.3548927  77.2434845  16.3951302  46.3825188
  76.6688919  17.5541496  47.1683311  17.9003353  68.4346237  17.9074783
  17.7915287  69.3493195  18.1677265  18.5884151  68.1018829  18.4837227
  21.9308281  32.4272881  78.8656311  21.6947460  33.3491249  78.7621307
  21.3449993  31.9615574  78.2688599  20.1952572  29.0904827  14.0208740
  19.8383064  28.2765465  14.3762989  19.5206318  29.4052696  13.4191933
  12.5805550   0.6109287  74.7752304  13.1573648   0.2072504  74.1267242
  12.7373295   0.1134691  75.5778427  70.7603531  49.8988152   9.0860806
  70.7779617  50.5316887   8.3681717  69.8786469  49.9748497   9.4508333
  27.5506287  10.7012606   9.6234331  28.3260231  11.0434952   9.1786060
  27.0156956  11.4748049   9.8015003  17.4381943  27.5495682  61.2381973
  18.0935993  28.0348110  61.7394104  16.6483917  27.5865955  61.7777100
  68.2143097  51.3335304  25.4297829  67.7668762  50.6914635  25.9809532
  67.6132889  51.4828873  24.6999207  21.6767979  33.1322594  54.6422081
  21.4749775  33.9598122  55.0788498  20.8237095  32.7838058  54.3832588
  23.4349346  55.6531563   6.2289262  24.0200558  56.1609116   5.6667414
  23.1865158  54.8978424   5.6959910  14.3214302  31.5818348  19.9494019
  13.4407911  31.8264236  19.6650009  14.9025688  31.9923992  19.3091297
  48.4515419  39.4671745  82.4968643  49.1715012  38.8453178  82.3911362
  47.7656746  39.1408234  81.9143600  86.0855942  17.3790550  19.5567970
  85.2900467  17.6568699  19.1027565  86.3550339  18.1475430  20.0598526
  46.5385704   0.6063573   6.0217042  45.8198700   0.0240780   5.7754197
  46.2479324   1.4755810   5.7456374  50.6302986  24.3508396  13.4157410
  50.0034103  24.4418678  14.1333475  50.3068199  23.6066093  12.9080839
  81.6064453  25.6566868  86.4980316  80.7966537  25.3258266  86.8866272
  82.2957840  25.1170712  86.8851395   7.7925434  13.2372065  19.5646534
   7.9473901  13.4977589  20.4726009   7.1091762  13.8330460  19.2577076
   9.5531254  21.7951031  16.4203243   9.6024456  22.6400051  15.9731770
   9.2254210  21.1905155  15.7545042  37.5234337  55.7962952   3.7982221
  37.3164482  54.9971619   3.3136876  37.7009811  56.4482651   3.1202514
  22.1920738  24.2334213  23.6658421  22.8810272  24.8236141  23.3604755
  22.6547585  23.5691223  24.1765900  66.2789841  60.3127365  54.2288857
  66.6714249  61.1856270  54.2122612  67.0228577  59.7173996  54.3208351
  57.6168633  60.9387741  55.8289490  58.0056725  61.0538292  54.9618721
  57.9126587  60.0732689  56.1111450  71.9348450  21.6023388  85.8759079
  71.5592728  22.4221344  86.1970139  71.6790619  20.9500504  86.5280762
  26.6770859   8.4143400  27.9090481  27.5294323   8.8397913  27.8156281
  26.7570343   7.6046047  27.4048977  32.6289864   3.9542289  48.1086388
  32.1029816   3.1547105  48.0906944  33.2649689   3.8384101  47.4027061
  48.8886719  43.7993965  76.3749390  49.1830292  43.1401520  77.0034180
  49.0221405  43.3912163  75.5194855  48.1879501  14.6500683  12.9442406
  47.5529022  15.3662405  12.9506760  47.6889420  13.8901558  12.6446486
  16.1799164   8.5526896   4.6936283  15.9901667   9.4698029   4.8914418
  15.7291641   8.3880901   3.8654003  71.1313171  53.6297302  81.2162857
  71.0123215  54.5767097  81.2891006  71.7902756  53.4195557  81.8779678
   2.2819643  49.5483780  77.9805374   2.8910816  49.2532883  77.3036804
   1.9874790  48.7427940  78.4054489  23.3551388  13.9180279  15.7708645
  22.4131050  13.8535233  15.6138773  23.4317589  14.4842663  16.5388069
  73.6715088  10.2024498  70.6174698  74.0429459   9.7864981  69.8394928
  74.3858032  10.7338810  70.9690475  31.9610710   6.4817095  70.0329590
  32.6367607   6.3915377  70.7049332  32.4480247   6.5591545  69.2125244
   0.9502146  16.2507915  63.5615807   1.5414674  15.8107138  62.9508591
   1.4772092  16.9545441  63.9400520  62.2083740   8.1605558  24.2253361
  62.5000992   9.0721521  24.2144279  62.3716125   7.8675499  25.1218472
  57.0864105  20.4711971  59.4893494  56.7674141  20.9086361  60.2787285
  57.1610565  19.5502605  59.7394257  65.9901199  13.9295282  49.0445633
  66.7440338  13.3556137  48.9086685  65.5704193  13.5904493  49.8352013
  60.9100533  65.4383087  38.4125633  60.2714615  66.1495361  38.4633446
  61.1241264  65.3746262  37.4817848  15.1253586  69.0852890  18.8632183
  15.7545767  69.7851791  18.6886482  15.4387522  68.3460159  18.3421745
  85.3132629  37.1763344  10.3743944  84.3862457  37.3274078  10.5589132
  85.3246613  36.3832970   9.8384943  74.2691956  41.3649445  16.9116096
  74.2438507  40.4609756  16.5978737  75.1156921  41.4420662  17.3517570
  68.2850647  56.1801758  32.9433479  68.0278625  55.4868279  33.5510826
  67.4741898  56.6574326  32.7674255  55.8854141  26.5816555   6.9378915
  56.0681000  25.6527576   6.7964506  55.4205704  26.8573418   6.1478596
  38.7580719  18.1007938   1.1094470  38.5811081  17.1608295   1.0722747
  37.8925400  18.5053291   1.1680969  52.6507950  68.0030746  62.7125206
  52.3883553  67.3052368  63.3128395  52.8961792  68.7308121  63.2838478
  17.1005344  51.5844994  80.4458084  16.9239864  50.6447258  80.4023285
  16.8086033  51.8428459  81.3200302  54.9919434  61.1545181  60.5754013
  55.6069489  60.6922913  61.1449165  54.9550972  62.0417557  60.9327316
  42.2579613   6.8875871  48.2403641  42.1534920   7.8250279  48.0775070
  41.4355011   6.6229515  48.6523895  49.1660805  34.1359367  78.1699829
  49.8872108  34.0127602  78.7872620  49.4529991  34.8548050  77.6068420
  46.3406830  38.6095734  81.0327377  45.9103470  38.8122559  80.2020950
  45.8779945  37.8382874  81.3602524  62.4065628   5.1673584  54.2847595
  62.7923889   5.0568752  55.1537590  62.0472984   4.3062801  54.0709724
   2.6225295  67.0498047  35.2111359   2.9413264  66.1486435  35.2613144
   2.7642205  67.4032364  36.0893402  18.3443317  64.6893387  76.7099228
  18.8056259  65.3086243  77.2755432  18.5455208  64.9813309  75.8208237
   6.5929027  58.8556213  31.3858871   6.5250535  57.9091301  31.5115166
   6.7922416  59.1991501  32.2567978  40.2459679   2.6361022  46.9876862
  39.5050545   2.0859861  46.7334137  39.8659172   3.2973800  47.5660515
  21.5313301  35.6110992  85.7141266  21.2628651  35.1697311  86.5199509
  21.6793118  34.9007416  85.0898514  81.5771637  50.4112320  73.9289246
  81.3856277  50.2813568  74.8577271  82.2812195  49.7907181  73.7405167
   4.8155727  45.6841469  45.9400826   5.4899364  45.4125252  45.3174362
   4.0391774  45.8359299  45.4011917  65.6422653  26.0946064  70.8505630
  65.9898834  26.9860420  70.8776550  64.7114716  26.2062664  70.6572037
   5.2029972  62.0553055  24.6862583   5.5219731  62.5545578  23.9344368
   5.0164304  62.7175026  25.3517799  67.4170761  57.7380791  48.8908310
  67.5733566  57.3452301  49.7495956  67.9968719  58.4993172  48.8665886
   9.3243446   4.5112376  54.8286285   8.5263777   4.0087209  54.9928131
   9.6917210   4.1244249  54.0338707  79.6193771  65.9682083  27.8329544
  80.1584167  66.7097778  27.5577564  79.6438522  65.9962082  28.7894306
  35.4672127   9.5809288  85.7100677  36.0658226   9.2039585  86.3548889
  35.9182587  10.3635273  85.3933258  46.1292229   8.7018223  56.8208771
  46.7863655   8.2273560  57.3300705  45.8711281   8.0888119  56.1325188
  84.4993439   2.2141893  25.0781059  83.9250717   2.9335823  24.8155880
  84.4512939   1.5922177  24.3521061  38.0763359  43.0911140  20.1048565
  38.7750015  42.6541977  20.5918903  37.3101578  43.0261116  20.6749210
  79.0737152  13.6173954  14.5226574  79.6870193  14.2849503  14.8300056
  79.0736313  13.7125559  13.5702000  15.1840172  39.5165291   7.1511192
  15.9371672  39.0394630   6.8026872  15.3321686  40.4243660   6.8863368
   6.1470151  21.2297516  29.0536308   5.6722660  20.6605873  29.6593513
   6.5278163  21.9082642  29.6111660  65.6474457  11.4731951  21.4013233
  66.2192612  10.7162027  21.2739773  66.1951599  12.1133556  21.8556709
  79.8674469  18.7479382  23.3511772  80.5557327  18.2786617  23.8226414
  80.3154526  19.1410999  22.6022110   0.8994318  12.6242886   1.2444683
   1.6057693  12.3120842   1.8100189   1.2755510  13.3739405   0.7831784
  78.3714676  22.6188908  48.0224113  79.2397308  23.0163326  48.0887642
  78.3351135  22.2701778  47.1317329  25.4906464  55.0235252  47.4729805
  24.8816433  54.3414154  47.1900139  26.3097363  54.5580750  47.6423302
  74.4733582  52.7806625  27.9476452  73.5339127  52.5990410  27.9738445
  74.5432205  53.7119026  28.1577454  27.4531364   6.2532659  62.5286942
  27.5725880   6.5301952  61.6202469  28.1163483   6.7410860  63.0169716
  23.4863739  18.2078037  64.4959030  22.6977005  18.6098957  64.8599777
  23.9809189  17.9146805  65.2612381  16.4832916  28.1843224  17.3568134
  17.2448196  28.7365932  17.5337410  15.8420057  28.4412079  18.0193787
  80.4332657  69.9534683   3.7419379  80.9856339  70.7323608   3.8085911
  79.6604919  70.1622391   4.2667875   4.9237704  40.4014397  47.0383110
   5.0939927  41.2483635  46.6260338   5.5572696  40.3518906  47.7541695
   4.5685635  48.2505188  88.5770187   5.1095710  47.6848564  88.0260391
   4.2032957  47.6625175  89.2381287  31.4556026  15.2775965  83.5674438
  31.5348892  15.1630363  82.6204376  32.1600609  14.7426462  83.9332275
   3.9602664  25.2569771  75.0487671   3.8621576  26.0998535  75.4916763
   3.1105404  25.1030502  74.6358490  79.7918320  44.5912209  86.0840378
  80.3241272  44.3264999  85.3338242  80.4245377  44.7353554  86.7876968
   4.0710382  46.3136787  69.6166840   4.5567513  46.1429291  68.8097382
   3.8042634  45.4471474  69.9235687   0.2549323  38.4203911  48.4566917
   0.2628894  38.7697029  47.5655403   0.6561787  39.1086311  48.9873123
   2.6417124  14.0719566  89.1815720   3.2966928  13.3756075  89.2298431
   3.1342878  14.8454857  88.9072418  68.8859634  66.5846329  17.0938797
  68.6248093  66.9111099  16.2328110  69.2707977  65.7260513  16.9178753
  11.2953291  41.9029465   5.0225296  11.9433632  41.2267570   4.8249063
  10.9149733  41.6331635   5.8584604  65.3687515  53.3203278  88.6527557
  65.5295334  52.9910660  87.7684708  64.4989624  52.9895668  88.8770294
  46.1836319  26.9414253  23.4842453  45.5676575  26.8558044  24.2118988
  45.6869049  26.6607590  22.7156620  55.1504440  52.1834373   7.1654434
  55.3401489  51.9479561   6.2572622  55.9270744  51.9068336   7.6518278
  39.1737213  64.3350754  83.1998901  39.9706993  64.0979156  82.7257538
  39.1503448  65.2913818  83.1657944  47.7893105  32.6799240  71.5867157
  47.3749962  33.4897499  71.2887955  48.7135925  32.7870636  71.3620911
  13.9467945  28.0744724   2.9534199  14.0850801  28.6049080   2.1687250
  13.9315233  27.1725483   2.6332133  11.5225782  21.9086647  87.3468933
  12.3635550  22.3627377  87.2939148  10.9679012  22.4915524  87.8653564
  36.2012558  12.9729967  87.9201050  35.5934029  12.5932169  87.2856674
  36.1813240  13.9125309  87.7381516  49.2546310   3.2974446  77.2485580
  49.5673714   2.3938220  77.2920456  48.6506386   3.3776424  77.9867935
   6.0505352  14.9137974  65.3662033   6.3071780  14.2205114  64.7581558
   6.8714256  15.1923285  65.7721481  48.5958176  66.6837845   2.2323873
  49.1920547  66.1526871   1.7045032  48.3145065  66.0996857   2.9366081
  78.0681915  60.7670479  82.8738708  77.9367828  60.7106514  81.9274139
  77.2092209  61.0076256  83.2210312  46.6404495  56.6318436   8.5285282
  46.6106300  57.5670967   8.7301493  46.0674210  56.5323334   7.7682881
  65.9407806  21.9359131  12.7495728  65.6270065  22.8368244  12.6712246
  65.6875458  21.5215073  11.9247246  34.9728546  14.3654375   7.8963857
  34.0611343  14.6528425   7.8474760  34.9357491  13.4226189   7.7353010
  75.0125580  29.9493599   7.9020538  74.7419434  30.0102882   6.9859285
  74.1918793  29.9492569   8.3947201  25.5801697  26.0702038  52.5364075
  25.7102146  25.4774323  53.2766380  24.6459293  26.0048885  52.3385162
  53.5506058  69.9127274  87.0966110  54.3786240  70.3859787  87.1781540
  53.6153831  69.4598083  86.2558365  38.4382896  47.6091805  24.9909878
  38.3615608  47.3969688  24.0607681  39.1034698  48.2966118  25.0257549
  72.7825317  70.5827332  73.2178116  71.9862900  70.2187653  73.6047974
  73.4395752  70.5114212  73.9102249  68.1126556  37.5846176  84.5920792
  67.7588959  37.1266632  83.8296051  68.9399643  37.9560890  84.2858124
   8.3234005   7.4295621  10.8297272   9.0922680   7.8707685  11.1908531
   7.7784238   8.1387510  10.4887247  56.9070129  57.2080688  84.8526459
  56.1738434  57.4112740  85.4335098  57.6828003  57.4845924  85.3404160
  51.9608078  22.8056793  10.7688360  51.9426994  23.3499031  11.5560617
  51.0604744  22.8238602  10.4443331   9.9866295  19.2796230  76.0659943
  10.5133162  19.5383778  76.8222198  10.4405222  18.5168362  75.7077026
  84.3601303  41.1746407  69.1884308  84.1056824  41.4577942  68.3101883
  84.0967865  41.8969498  69.7586517  65.3551483  27.2946033  79.9680252
  64.6393204  27.6028957  79.4123459  65.2162476  27.7374001  80.8052063
   6.3537178  50.1561508  63.3438797   5.9398899  49.5017738  63.9067001
   7.1618915  50.3886452  63.8010788  85.4516678   0.5053955  22.6353378
  85.9036865  -0.1868638  22.1529579  85.0043335   1.0151625  21.9598656
  57.3397217  45.3396797  46.1283379  57.7302895  45.2707176  45.2571716
  56.5765572  45.9040565  46.0046806  76.2275620  39.4371834  31.6444855
  76.1308899  39.3124161  30.7003880  75.4581375  39.0112648  32.0223961
  11.8286867  27.6022110  21.4734592  11.3131971  28.3174419  21.1007042
  11.1771936  26.9946060  21.8236084  21.9026260  71.7904968   0.1817665
  22.8018227  72.0129852  -0.0594320  21.8906231  70.8336563   0.2049199
  50.2672348   8.5831528  86.2268524  50.4502144   7.6436043  86.2260513
  49.4671173   8.6717854  85.7089844  54.6579170  59.5534248  22.3965931
  55.5018539  59.3915138  22.8182392  54.6048470  60.5064735  22.3250542
  10.6252623  21.0294819  39.0409546   9.8319969  21.5529957  38.9274025
  11.2630949  21.6386967  39.4127846  69.8791580   2.5943081  28.6381550
  70.6394348   2.8642681  28.1230507  70.2517548   2.1620433  29.4066277
  23.4261417   5.9161372  41.4591217  23.2327023   6.4310937  42.2424698
  23.9745598   5.1976652  41.7741890   2.3464561  52.1684608  53.9584084
   1.3933181  52.1328163  54.0389633   2.5027030  52.3132973  53.0252190
  22.8404942   0.0150934  82.3479691  22.8583069   0.8957589  81.9733505
  22.8178787   0.1577427  83.2942123  69.6361618   7.1140399  54.8978386
  70.2896118   7.5602064  55.4365120  69.8121338   7.4176555  54.0072861
   0.3751535  61.1617432  83.3099518   0.5177331  60.5606842  84.0411377
   0.1297487  60.5951653  82.5785141  10.7077494  55.2162933  77.0867386
  11.3236179  55.2985039  76.3586044  11.0095053  54.4471016  77.5699768
  71.4603653  34.1162415  87.6151810  71.3865509  34.9070778  87.0809860
  71.0734558  33.4262199  87.0762939  49.9280701  38.8794174  15.4124126
  49.8656158  38.2283669  16.1113129  49.7761078  39.7166786  15.8507433
  69.4813461  29.5329075  51.7033119  68.8836441  29.6073647  50.9593773
  69.4449768  28.6082687  51.9481621  52.2922211  26.0758629  16.3258495
  51.5911865  25.6962643  16.8556480  53.0878029  25.6432266  16.6358566
  34.3287239  64.1000977  10.2463923  33.8071327  63.6604118  10.9178505
  35.2096138  64.1444550  10.6182775   1.6813772   4.5795789  42.0655937
   1.6637297   4.1936698  42.9413757   2.6109173   4.7169867  41.8830948
  49.8700066  48.5257912   2.6127093  48.9787674  48.5906639   2.9558041
  49.7642403  48.5656662   1.6622069  12.9336567  10.4659519  47.4816170
  12.8918533   9.6300583  47.9461212  12.1574173  10.9425316  47.7758179
   4.4165955  33.6276741   1.5212620   5.0895028  34.0833092   1.0154712
   4.7151380  33.6907387   2.4285257  80.0393906  17.7028522  17.2570667
  80.6606750  18.3939667  17.0277252  79.2570267  18.1711159  17.5483932
  36.6666527   9.4786816  21.1600761  36.9534569   8.6230488  20.8409081
  37.4086494   9.8055668  21.6688194   3.4130077  40.2881851  39.6187859
   3.6643326  39.5674706  40.1963959   3.4117484  41.0598030  40.1852074
  29.6066246  10.1657581  22.2702446  29.4908905  10.0547886  21.3265686
  28.8052921   9.8090000  22.6534176  12.5829821  23.6907501  16.2856674
  11.8716507  24.0522919  16.8143730  12.1949015  23.5577927  15.4208288
  61.6150780   0.3976280   5.1154203  62.5077515   0.7420673   5.0884385
  61.6455460  -0.3895401   4.5716653  46.2578354  70.6628494  13.2149363
  46.1723671  70.0078430  12.5221939  47.0859718  70.4498444  13.6451111
   0.9576031  17.1565151  43.2343826   1.8778397  16.9338684  43.0935783
   0.8532933  17.1533642  44.1858749   6.7287941  14.0826540   4.7855759
   7.0295157  13.2558451   5.1626506   6.2206078  14.4939566   5.4847240
   9.7404089  16.7824230  11.3563614   9.5151653  15.8570480  11.4521713
   8.8971205  17.2352962  11.3550262  14.9283276  11.1197882  59.2168465
  14.6206799  11.7053747  59.9087067  14.3995085  10.3286190  59.3199692
  63.6421242  35.3359146  52.2494316  62.7121735  35.3620796  52.0241661
  63.6619148  35.4537048  53.1991501  44.0170937  67.7905807  12.2582588
  44.8591347  68.0797119  11.9066858  44.2029114  66.9398956  12.6558027
   9.3986731  54.3892441  27.7540970   9.5311918  53.8625107  28.5422745
   8.6810846  54.9812622  27.9795113  15.9391241  54.6959915  60.8407173
  15.3320837  55.3851738  61.1104584  16.8042507  55.1007729  60.9035110
  73.2369919  68.7367020  78.5755463  73.4687347  69.5230713  79.0696564
  73.8718338  68.0792618  78.8601074  81.6327744  24.5233383  70.2439270
  81.2878265  23.9948940  69.5242157  82.5759811  24.3608856  70.2296829
  58.2187347  33.7864761  51.8139839  57.9292374  32.9716339  52.2244225
  58.3586426  33.5555573  50.8956528  36.5991631  71.1402817  36.5565605
  36.3221626  70.6965332  35.7549400  37.0655975  70.4681396  37.0534477
  64.6317215   6.4887547  45.7518311  63.7316856   6.4314947  46.0725937
  65.0508423   7.1285696  46.3273354  45.7494774  65.2190628  87.0278931
  45.2585030  64.6235657  86.4617233  45.9043999  65.9922256  86.4852600
  52.0714531  55.1366730  22.8729992  52.2286987  55.3106461  21.9449692
  52.7549973  55.6285210  23.3280640  81.6270447   0.1392508  55.6236916
  80.9829102  -0.1053610  54.9592476  81.1437531   0.6994315  56.2310295
   4.4506569  15.8517885  11.4611139   3.4952662  15.9035597  11.4331827
   4.7431202  16.7550907  11.3396921  66.9380188  31.4478722  81.8312073
  66.5566483  32.1326714  82.3806076  66.4628677  31.5130634  81.0028305
  43.5969963  47.9327469  79.7188110  43.5372658  47.4714851  78.8822098
  43.8814735  47.2636833  80.3414307  73.7986069   5.0136552  19.9667892
  74.3548355   4.3049517  19.6433907  73.6893387   5.5948482  19.2141228
  55.9799728  44.7419739  13.1981630  55.2320290  44.2369995  13.5172386
  56.7448273  44.2799644  13.5413532  71.2699203   1.6797129  21.5157471
  71.6658401   1.8319097  20.6576557  70.8425293   0.8270910  21.4344997
  40.5432129  54.0282936  24.3044910  39.6032219  53.8997421  24.1775227
  40.8639526  54.3119545  23.4483986  58.9345818  66.6555557  46.0506058
  58.1804733  66.6359863  45.4613953  59.1814690  65.7365646  46.1542397
  41.2266312  71.1205750  53.5686035  40.4653244  71.5357437  53.1632881
  41.0954628  71.2454453  54.5085182   3.4090846  68.0189896  81.5992050
   2.9970596  67.4934616  82.2849808   2.6774561  68.4404907  81.1483231
  78.6278687  28.4258595  71.5137177  79.0831985  27.9898281  70.7934570
  78.9448471  29.3286228  71.4858932  32.7698402  60.0434265  23.8692608
  32.0124130  59.4799576  23.7110329  32.9057808  60.0017548  24.8158417
  27.2380295  18.1030331  68.1345444  28.0298138  18.2668762  67.6222305
  27.5414639  17.5996094  68.8900070  43.0460739  31.1302414  22.9368553
  43.3703575  32.0143890  23.1081963  42.1409607  31.2579594  22.6528015
  45.6569748  67.9112930  23.7755299  45.7747269  68.2336273  22.8819618
  46.3845749  67.3037872  23.9088345  66.5870056   4.8604164  10.3848448
  66.1711655   5.5097733   9.8177052  66.0664673   4.0665998  10.2618608
  75.1560287  65.2477493  29.4070740  75.6212997  65.6807938  28.6913776
  74.7494888  64.4826355  29.0001717  82.6352310  38.5787315   8.6169748
  82.9037247  38.0758514   7.8480449  82.5940628  37.9334450   9.3227701
  56.2386475   2.0776050  57.5788803  55.5682411   2.2742620  56.9245796
  55.8043289   2.2259738  58.4188728  73.9919815  24.7377129  49.9207954
  74.3618469  23.8551769  49.9445457  74.5949554  25.2643051  50.4455490
  63.0856705  43.6711388  67.0623474  63.2352524  42.9883957  67.7163467
  63.7062988  44.3627777  67.2918777  20.8492870  49.6926041  76.5526505
  21.4269028  50.1552200  75.9455414  20.5125618  50.3767662  77.1312408
  19.0129280   1.0528189  20.3305149  19.2362022   1.4143784  19.4728107
  19.6941662   1.3849782  20.9151669  36.3998489  53.5266304  66.8860016
  36.4419518  52.6382713  67.2399521  37.0589828  53.5394325  66.1920166
  63.5679665  30.3504333   4.9837270  63.1132393  31.1853104   4.8721995
  64.4931412  30.5634251   4.8615923  12.8490839  16.8640175  22.0914040
  12.6649733  17.1860962  21.2090206  12.9811554  17.6558743  22.6127014
  42.4315033  12.6321211  24.5181618  41.8185387  11.9172201  24.3466206
  43.2965736  12.2301846  24.4385891  25.4504738  44.2703094  11.9660835
  25.2206535  44.7491875  11.1697865  25.3480415  44.9116440  12.6692419
   4.9184747  61.8616371  42.7937813   4.5961604  61.7316704  43.6856651
   5.5434761  62.5828476  42.8676910  76.3618011  13.2921801  15.6179752
  76.7073975  12.5345984  16.0900593  77.1211624  13.6590910  15.1652374
  37.8638878  12.7276402  22.4253750  38.5845947  13.0086031  21.8615742
  37.2406349  12.3131351  21.8287411  14.2617445  53.4961510  72.7308426
  13.8712673  54.3686256  72.6803360  14.2602892  53.2867966  73.6648712
  67.6554108  40.4518356  34.0197639  67.9283905  40.3405342  34.9304390
  66.9904480  41.1396294  34.0514030  50.5802917  66.9159012  77.3216934
  50.6365623  66.8148956  76.3715057  51.4768600  67.1093674  77.5955048
  65.7115021  25.6652775  85.6452637  65.5406189  25.4195290  86.5544662
  65.7248840  24.8339787  85.1709290  64.6941910  37.4556656  89.2037277
  64.3747253  37.8393631  88.3870544  65.5595169  37.8452263  89.3289795
  77.1496048  64.4914322  75.8558273  76.3728638  64.0848312  76.2399826
  76.9367676  64.5845642  74.9272461  44.1213799   6.2376270  15.5281239
  44.8915405   6.0108719  16.0493374  43.9719086   5.4705548  14.9754124
  64.2830887  44.5621986  83.5234833  65.0807724  44.7129326  84.0306549
  64.5028534  44.8545418  82.6389084  64.9222107  61.9245262  24.0249443
  65.8176193  61.6330299  24.1966915  64.3891373  61.4488754  24.6619816
  80.1446991  51.6902657   1.7841934  80.6814041  51.7238045   2.5760634
  79.2829590  51.4079590   2.0906887  22.1335526   0.4851675  44.7405281
  22.9508858   0.7698389  44.3316765  21.9884529   1.1130011  45.4483452
  73.8030472   5.7887115  82.4683075  73.3891830   6.6395841  82.6130981
  73.9976730   5.7733974  81.5312271  23.7216606  53.6639404  78.0013580
  23.3445778  54.4887962  77.6953201  23.0362263  53.2739296  78.5438538
   2.1387978  13.2932377  71.2724762   2.1128259  12.5781507  71.9082489
   1.3866680  13.8409796  71.4972229  70.2545624  62.5757790  14.9922647
  69.4469833  62.5116081  14.4824276  70.2139969  63.4421883  15.3971434
  51.9538918  48.1178284  12.6965857  51.2722969  48.7211418  12.4004898
  52.1565132  48.4038811  13.5872879   7.7660403  47.6053314   1.6904706
   7.3004475  48.4197044   1.5000757   7.1102762  47.0463524   2.1073027
  55.6862984  58.5109787  37.1579132  55.9788551  58.9471130  37.9581795
  56.3441315  57.8338127  36.9999962  41.1681709  70.7652359   5.5726237
  40.4748230  70.8752213   4.9219294  41.9799309  70.8910675   5.0812554
   0.8925294   2.1055133  31.8744144   0.7429175   1.4752491  32.5791245
   1.6840099   2.5752947  32.1372757  84.1496048  49.4404068  81.0723038
  83.7308578  49.4877586  81.9317474  85.0336990  49.7772255  81.2177505
  81.8327484  43.6093636  84.4536133  82.2839203  43.8748245  83.6522446
  82.4096832  43.8988724  85.1604156  83.8083725  49.4820442  26.4930172
  84.4852219  48.8750496  26.1935768  84.2916565  50.2561493  26.7818604
   4.2772622  54.9700127  69.4039001   4.6167140  55.4076233  68.6231995
   4.9955091  54.4081764  69.6949310  71.9793930  46.5482445  47.5603752
  72.5577011  46.4615479  48.3181839  72.1846542  47.4108887  47.1998940
  18.6646824  48.8045006  38.0260429  19.3555126  48.1567535  37.8867264
  18.6707458  48.9618378  38.9702034  46.2557068  29.3940487  18.8043709
  45.8774986  28.7647953  18.1901817  45.5028229  29.8736248  19.1499195
  33.3896332  46.7113304  -0.0017886  33.6552658  46.5776711   0.9080510
  32.4941559  46.3755341  -0.0416593  68.6372681  24.1754723  79.2382050
  68.6689758  23.2653446  78.9434280  68.9155884  24.6838131  78.4763947
  44.2947617  48.0018425   0.0827097  44.6730385  48.0488091   0.9607363
  44.1705322  48.9156380  -0.1737587  83.0459747  20.1548405  56.3013153
  82.5788956  19.7101688  55.5939713  82.6415787  19.8212299  57.1021919
  24.6669807  56.2824745  40.8309174  24.8505707  57.1763306  41.1199684
  23.9702835  56.3790359  40.1816711  56.9123497  53.8557549  53.0995407
  56.2274437  53.4430008  52.5734558  56.5360260  54.6940804  53.3675308
   8.3694057  40.9520149  82.6371078   8.4998217  40.3583679  83.3765717
   7.4187269  41.0299568  82.5573044  42.9433823  53.1733551  51.0039368
  43.3793793  52.4944344  51.5189171  42.9819183  52.8523903  50.1029778
  68.0061493  25.3328094  13.4654570  67.9208221  24.9698124  12.5838776
  67.9049988  26.2771816  13.3464508  13.1919737   1.7855844  38.9646225
  13.9057760   1.4733663  39.5207138  12.7706404   0.9876682  38.6451874
  60.5835609   8.9324045   2.2406833  61.4986992   8.7266273   2.4315088
  60.1410065   8.8628035   3.0865736  78.6195831  24.7451496  52.5766716
  79.3618927  24.3958416  52.0835304  78.4299698  25.5860424  52.1605186
  34.4573059  45.1284485  65.0190125  35.1371078  45.7032394  65.3707504
  34.1044807  45.6062241  64.2683563  79.0824966   3.1771126  38.0888062
  79.4507370   3.9489803  38.5187492  79.6577148   2.4588597  38.3523636
  64.9562225  59.3245430  71.3394699  65.4014893  58.5549812  70.9848709
  64.3874054  59.6207619  70.6288834  39.4321594   5.9583316  83.8463974
  39.4386711   5.0195613  84.0332108  38.5223923   6.2232203  83.9819946
  12.5902700  60.7159882  61.6401978  11.9870968  60.3445930  62.2839966
  13.1681223  61.2820053  62.1520042  27.4495506  39.2352180  20.0980206
  28.2095718  39.2434502  19.5161858  26.7467518  39.6270180  19.5795650
  39.5795631  55.8872299  65.6729813  39.3303146  56.6067162  65.0929489
  39.2963829  55.0981178  65.2110901  52.8610115   6.3324642  39.6103821
  53.3675919   7.1444969  39.5958633  52.0921783   6.5201383  39.0719528
  84.9666290  44.3221436  23.8312168  84.7091141  45.1893539  23.5183849
  85.2220840  43.8481522  23.0398216   8.8504562  43.3274040  84.5849380
   9.7214251  43.2877960  84.9800034   8.7454052  42.4805450  84.1513214
   0.6668050  47.6218185  50.2923546   1.0573925  47.1402550  49.5631294
  -0.1843630  47.9086075  49.9614525  75.9127808  26.5712948   5.6345916
  75.7991257  26.8060722   6.5555654  76.8604813  26.4992828   5.5209727
  32.4684067  23.4621792  15.9091892  32.7346039  22.9567642  16.6772556
  32.6390305  24.3725777  16.1506386  42.6157608   5.0949092  21.8582554
  42.5756798   4.4662547  21.1375484  43.5515480   5.2405372  21.9972858
  53.6739845  51.3045082  30.4396553  54.2027397  50.5070572  30.4127941
  54.1960411  51.9540176  29.9686737  75.0212555  44.0448227  77.1603622
  74.5035629  44.8487511  77.1164856  75.7040100  44.2344360  77.8038864
  59.1879501  41.1185150  32.9304123  58.5144005  41.1727180  33.6083679
  58.7461166  40.7101517  32.1859322  26.5404854   1.9674875  77.1591568
  26.2431850   1.3098075  77.7878876  25.9237995   2.6924105  77.2612076
  48.2768936  35.6293755  19.3547421  48.0542068  36.3615074  18.7797394
  49.1276360  35.8654213  19.7245331  73.0814056  20.7820702  43.2986717
  72.1668625  20.5053368  43.2416534  73.0681686  21.5316544  43.8937988
  43.0255165  12.7350206   2.8526444  43.2641640  13.1408596   2.0192335
  42.0882263  12.9069166   2.9430437  65.3458252  65.3533936  70.4181442
  65.0208359  64.7383041  69.7606583  66.2716217  65.1312485  70.5170441
   0.6852358  51.0604172  49.5918884   0.6456468  50.3161240  50.1924667
   1.1906991  50.7390785  48.8452415  86.3272934  27.7803402  25.9966087
  86.8498917  27.0681210  25.6280079  85.6797333  27.9773636  25.3197918
  85.3314133  26.6826973  82.6183777  84.4624786  26.5956230  82.2264633
  85.4373703  25.8901272  83.1445312  44.1156425  34.8095360  71.9344482
  43.5318718  35.5109978  71.6456680  44.0136948  34.7895966  72.8859940
  83.9058609  56.9864120  80.4958038  83.2059479  57.5624580  80.1883469
  84.6310959  57.1474380  79.8921967  67.0587540  15.5395260  38.2791252
  66.9987488  16.4157314  37.8984756  66.8678436  14.9484177  37.5508575
   1.9766984  40.2881775  87.8850632   2.5966089  39.7464523  87.3967209
   1.5711111  39.6854324  88.5083008  26.0583553  62.8996239  35.6801605
  26.2359982  63.0892410  36.6014214  26.4727249  62.0506210  35.5261497
  44.0799751   2.2074232  67.5232315  43.7518730   2.7317142  68.2537766
  44.7870827   2.7333436  67.1495514  34.7185097   9.4758234  36.0122910
  35.2412109   9.1335630  35.2871170  33.9412842   9.8457718  35.5936127
  49.7689018  30.2022057  22.9791603  49.1940193  29.9513798  22.2560921
  50.3352165  30.8802853  22.6107502  79.5515747  65.4810257  55.6333466
  78.7022400  65.2803726  55.2401466  80.0424500  65.9141998  54.9350433
   1.0857860  22.8959084  84.2264786   1.3092077  22.5442924  83.3646851
   1.9244395  23.1686172  84.5986633  80.4824295  28.8336506  38.7755470
  81.4001694  28.7316093  39.0276985  80.3191071  29.7745056  38.8415108
  81.7125549  65.5747299  17.9502754  82.1629105  65.1261215  17.2346230
  82.3423462  66.2263565  18.2584743  31.8920689  56.5041809  87.6474304
  32.2501831  57.2753677  87.2078171  31.0052376  56.4191704  87.2973785
  37.7652817  56.9430199  23.0998230  38.1588364  56.6349525  22.2834644
  37.0248108  56.3542862  23.2458553   7.1969829   5.9350562  74.7281570
   6.6625438   5.1884279  74.4576874   7.9534001   5.9130077  74.1420059
  42.6662788  57.3340759  29.5717316  42.0082855  58.0282135  29.6098003
  42.3691254  56.6870270  30.2114677  33.2139549  54.9130020  48.3832283
  32.5622139  54.2120361  48.3939056  32.8150330  55.6187248  48.8921967
  82.4753876  28.5747700  53.4915237  82.9538879  29.3961334  53.3791466
  83.0721970  28.0160904  53.9894447  64.3667297  59.4003296  85.8559723
  63.6673584  59.2973366  85.2106018  63.9301338  59.7639046  86.6263123
  37.5786705  67.3165588  32.9611130  36.8407593  67.0383530  32.4186058
  38.1812935  67.7376175  32.3480988  20.4882889  42.2736092  28.1544304
  20.4638100  43.2286530  28.0950451  19.7186184  42.0462685  28.6761150
  35.6061707  60.7272682  23.1288834  36.0711136  60.6385002  23.9608574
  34.6988297  60.5040474  23.3365631  11.8870449  27.8095074  78.4898758
  11.3838835  28.4500694  78.9926071  12.5604610  28.3270454  78.0484085
   4.4972386  37.4821320  84.1907959   4.1246524  36.6005211  84.1775970
   5.0711279  37.4881668  84.9568558  40.7727547  21.2483330  73.2197342
  40.1241608  21.9086475  73.4637527  40.8825493  21.3580265  72.2751999
  62.8298950  37.1863823   4.1641655  63.1758118  36.7245216   4.9278779
  63.6021309  37.5621109   3.7414207  84.7842865  67.2649460  30.3188496
  85.2384415  66.4331589  30.1842842  84.6523209  67.6112900  29.4363174
  84.5913544  31.7200031   8.9485645  83.6517563  31.5379372   8.9637451
  84.7309799  32.1901207   8.1265383  74.5282745  58.4794273  82.3155975
  74.5585709  58.6755981  81.3792114  74.5323410  59.3372498  82.7402802
  37.4109383  58.6697350  14.0456448  36.8635330  57.9299927  14.3090134
  36.8590202  59.4387360  14.1879463  76.9823761  55.3668518  16.5222111
  76.5131989  56.1442337  16.2192669  77.6840897  55.2461395  15.8824730
  24.7602673  41.7475853   1.2673004  25.1252232  41.1813507   0.5872889
  23.8882008  41.9764633   0.9458290  76.1651611  53.1562843  56.5037766
  76.3838425  52.3530731  56.0312767  76.9373245  53.3365288  57.0399666
  79.2123718  55.3784256  75.6189423  79.2810669  54.4342384  75.7604370
  80.1155624  55.6929092  75.6586838   0.6340454  23.4872971  54.3209114
   0.0820722  22.7174835  54.4585571   1.4997975  23.1292572  54.1246643
  21.0501728  49.2664719  80.3303070  20.7690487  48.3557396  80.4184341
  21.1110363  49.5865097  81.2303696  18.5378342  42.7038040  64.1686707
  19.0736389  43.1223717  64.8424225  18.0589466  43.4253807  63.7609596
  54.9141121  23.4995899   4.2774625  54.4625435  22.7104797   3.9780939
  54.4847527  24.2142353   3.8071795  71.7899017  25.3110256  51.3637047
  72.4227219  25.9370003  51.7157478  72.1877594  24.9998589  50.5506096
   0.3894830  60.5029755  88.0339203   0.5228293  61.2395554  88.6304932
  -0.5263404  60.5752602  87.7650833  74.1339264  13.0425539  58.2618904
  74.8951492  12.9088955  57.6971664  73.4205322  13.2479134  57.6576347
  26.6703396  25.6694145  86.9790649  27.0952911  25.2053566  86.2577438
  27.2969246  25.6155777  87.7006760  67.9548111  62.8568535  88.6472092
  68.1239319  63.1770172  89.5332794  67.1529694  62.3403931  88.7281265
  85.0476227   6.4614048  55.4353294  84.6777191   7.3442330  55.4306259
  85.1040573   6.2303019  56.3624954  16.5443802  52.0486984  60.8130913
  16.3577499  52.9746628  60.6582222  17.4013634  52.0451431  61.2394676
   1.1385573  32.8482666  44.5399475   1.8634123  33.4686470  44.4628677
   1.3200675  32.3669357  45.3471718  34.8229790  33.3516998  23.5637836
  35.1353264  34.2221527  23.3168411  34.5608063  32.9477158  22.7365608
  77.4039612  69.2622528   0.9106200  77.9122238  68.4621887   0.7772181
  76.8543320  69.0728378   1.6710570  63.2216682  57.6392097   4.0962868
  62.5682869  57.2771378   4.6948133  63.9394569  57.0062027   4.1138883
  16.8706875  38.5674210  18.2760410  16.4490261  39.4261398  18.3082447
  16.9229240  38.3610878  17.3428059  54.5385361  68.5100250  65.5637131
  55.4828758  68.6394882  65.4759827  54.2534218  69.2138138  66.1464920
  59.4838486  52.5334816  79.9659882  59.6487083  53.4661674  80.1043549
  59.6264992  52.1350822  80.8245697  60.3666763   5.8783984  44.3738480
  60.2192917   6.8173633  44.4872284  59.5515404   5.4709287  44.6666870
  55.2458572   5.6253843  11.1808071  55.8837585   5.5204315  11.8867083
  54.5848160   6.2164207  11.5412703   1.8778113  16.1985359  11.1173029
   0.9811696  16.2860107  11.4407434   1.8424215  16.5311069  10.2204332
  81.9954910  67.0378113  52.3983612  82.3075638  67.3478317  51.5482254
  81.0830765  66.7931290  52.2438736  25.9845295  30.4923458  49.3483658
  25.5028172  31.1294422  48.8208313  26.7234573  30.2347565  48.7971268
  11.4652767  11.8623190  59.3186264  12.1370230  11.2097130  59.1209068
  10.6930380  11.3476686  59.5531807  15.8034124   9.5425081  86.2650528
  15.8409138  10.0358381  85.4456329  15.9313602  10.2014742  86.9474182
  23.1985893  22.1605301  77.3875046  23.1287460  21.2472610  77.1094894
  22.7499199  22.6547279  76.7014313  76.5686111  51.0741615  39.0329933
  76.3776474  50.1800842  39.3165245  76.9027328  51.5081635  39.8180046
  24.3197594  34.2839890  75.1290054  25.1619377  34.7304001  75.2166672
  24.4851398  33.5820160  74.4996262  41.5433540  17.4691887  42.6452522
  40.9024582  17.0131836  43.1907272  41.9649734  18.0900669  43.2393684
  51.8111496  62.4760017   3.5618956  51.5455742  62.4372177   4.4806976
  52.5111465  63.1285744   3.5422530  55.4514885   6.6478782  -0.0108708
  56.2417641   6.1426783   0.1800997  54.8890190   6.5099111   0.7512498
  61.7666206  61.5741425  76.2761459  62.0395775  60.6589241  76.3402252
  61.0060463  61.6382484  76.8537674  28.4355793  52.2724266  57.7058868
  28.4791203  53.2161331  57.8600044  27.7861443  52.1731415  57.0097466
   9.3263102  61.1562042  13.0193748   9.2211561  61.4587059  12.1173391
   9.9100933  61.7995796  13.4212379  76.4522781  22.9588623  77.1194992
  75.5383224  22.9267979  77.4021301  76.9543762  22.9784203  77.9342117
   1.8219169  26.7567310   4.1812325   1.0029269  26.3128757   3.9610505
   2.4039717  26.5638790   3.4462140  57.4481697  32.9596748  11.0547838
  57.6928864  32.7912140  10.1448574  56.8619957  33.7150307  11.0092468
  12.1385393  19.2262230  72.2845230  12.7530766  18.5455570  72.0101700
  11.3814878  18.7449589  72.6184235   8.8358421  23.8745422  34.1062088
   8.7259073  24.3692150  34.9182739   8.8716125  22.9598274  34.3859367
  45.7608566   1.7078594  48.0072021  45.4106102   1.5447643  48.8829651
  45.0249405   2.0785625  47.5201340  81.2794037   1.6177912  78.2594986
  80.7894363   0.7955617  78.2697983  81.0224686   2.0394540  77.4394836
  42.0594597  56.6511688  60.4307480  41.7141647  57.5393829  60.5206375
  42.2829399  56.3895378  61.3239632   1.3274431   2.6447165  70.9248428
   0.5542156   2.1268473  71.1488113   1.7246385   2.1767204  70.1903687
  75.7385712   8.6647749   4.7222228  76.5644150   9.0195122   5.0514178
  75.6837463   7.7897143   5.1062746  35.3296852  67.4112778  48.1550980
  36.2217140  67.4195328  47.8080330  35.0172272  66.5214386  47.9914207
  70.3892593  11.4931078  11.1144218  69.5774231  11.9369211  10.8690977
  70.1037216  10.7407084  11.6326857  58.6261024  39.9400787  25.4974766
  58.2757225  40.5006104  26.1897659  58.2756500  40.3117638  24.6879940
  43.0187111   6.7661963  17.9469795  43.8653336   6.7474647  18.3931999
  43.2308922   6.6231594  17.0246181  75.5084457  57.7604446  19.1314182
  74.5824509  57.8825760  18.9219875  75.5862579  58.0383224  20.0440845
  66.2011948  68.7863541  47.3908997  66.9818878  68.2529831  47.2416763
  66.3350983  69.1696701  48.2577209  34.4513931  59.4935799  50.9017029
  35.0015564  60.2713432  50.9946480  34.2851219  59.4288101  49.9612846
  37.3270035  32.6598892  28.9010754  36.9456558  31.8181458  28.6515312
  38.2504082  32.5853004  28.6602573  22.8428402  29.2002144  81.9572601
  22.4154854  28.3520794  81.8378220  23.7790318  29.0027809  81.9289856
  14.5551596  53.5604591  75.4326706  14.6021795  54.4926720  75.2205429
  15.3743868  53.3779259  75.8928680  18.5846252  17.8353519  44.1131058
  19.4857864  18.0846901  44.3179741  18.6499596  17.3605270  43.2845497
  23.0894909  61.4759903  54.0804977  23.8533497  61.7818146  54.5696030
  22.3519936  61.9459343  54.4697075  26.3542271  68.7911148  34.6714058
  26.0159378  69.4235687  35.3052788  27.0176926  68.2989044  35.1549110
  67.6648483  20.5065956  26.1303520  68.3123703  20.4263649  26.8307152
  67.5235672  21.4491444  26.0415993  12.5763025  46.6370964  33.6960564
  12.4322042  45.8137169  34.1624374  12.2052851  46.4878693  32.8263969
  17.2587891  22.8028393  68.5589905  17.7890568  23.5313225  68.8820419
  16.7283726  22.5405693  69.3113937  17.0401993  69.1745148  80.1272354
  16.6374588  70.0369339  80.2285233  17.5134487  69.0333786  80.9472046
  83.0457458  69.6532593  86.8124161  83.2078781  69.6322403  85.8692856
  82.1060486  69.4921799  86.8975525  18.5272160  16.0072975  12.8645220
  18.3177586  15.5602560  13.6845903  17.7003574  16.0234470  12.3825712
  75.2941055  27.1192398  33.4373055  74.9313354  27.8206520  33.9782791
  76.2289734  27.1173592  33.6428528  83.5023880  57.1808815   2.6506779
  84.0716629  57.9228325   2.4465642  83.2131958  57.3409042   3.5490069
   3.8798912  70.5926971  34.7762566   4.7508826  70.2844162  35.0263901
   3.9299743  71.5449982  34.8589935  72.0667267  66.8899002  49.2552528
  71.2053528  66.7914429  48.8495712  72.4200439  67.6941452  48.8750038
  48.4991913  37.3830109  24.8041973  48.1419106  36.5090027  24.6470661
  48.7112770  37.3908195  25.7375736  73.8543777  58.7425499  23.5570393
  74.6435471  59.2180176  23.8165894  73.7488174  58.0688744  24.2287941
   2.8998775  10.0055952   9.3379679   2.8988223   9.8600292  10.2840347
   3.5773299  10.6672249   9.1981945  83.0357132  18.9799671  38.5151291
  83.4280624  18.6809826  37.6948242  82.7691345  18.1756020  38.9602852
  66.2406006  45.8169785  75.5985336  65.6424255  45.3238792  76.1600189
  66.7629395  46.3403816  76.2063522  68.8130112  10.2903595  57.4749794
  69.7234879  10.5289888  57.3008308  68.8332138   9.3410950  57.5963058
  55.2099190  14.6660442  29.4944096  55.5012283  14.9766598  28.6371517
  54.7534828  13.8452826  29.3093510  20.9352093  32.0939293  86.7819214
  21.1352005  31.5416718  86.0261078  20.1132545  31.7427254  87.1243744
  54.0742188  27.7821255  19.1786423  53.6089134  28.3214035  18.5391884
  54.9333229  27.6309509  18.7845421  75.7687531  44.8465881  61.9529686
  75.6367340  43.9388847  61.6793404  74.9976044  45.0519753  62.4815407
   4.9306102  27.3722744  53.1548882   4.5352879  27.6026669  53.9956436
   4.7295980  26.4432182  53.0422783  20.7343731  12.1109915  81.4101105
  20.0543137  11.4654856  81.2175674  21.5294437  11.7437534  81.0238037
  56.2369690  12.2485456   1.5007648  55.5104904  12.8220606   1.2567598
  56.1447067  11.4878645   0.9271070   1.4196001  40.4432945  11.8445807
   1.1821535  40.5012817  12.7700472   0.5902368  40.5452347  11.3776798
   2.1299868   2.8546367  25.6482639   2.0314536   3.5262799  24.9734173
   1.2772894   2.8240960  26.0820923  51.3693161   7.4030919  51.4517174
  51.1672363   6.9210973  50.6497955  51.6733017   8.2580976  51.1471062
  79.0725937  37.1233902   0.8741756  78.3774643  37.6553421   0.4868120
  79.2281113  37.5198669   1.7314103  45.5505104  33.8691292   9.2823486
  45.2639542  34.2141914  10.1279535  46.0006332  33.0521355   9.4971533
   7.7810917  62.3101196  17.6619911   8.5309725  61.7800751  17.3918724
   7.6364284  62.9106293  16.9307652  43.8375130  34.6344528  15.2167721
  44.1937218  34.3221130  16.0485115  43.9182472  33.8860435  14.6255064
   7.4688616  31.9980221  26.2601051   7.9028401  31.1576519  26.1128941
   8.1861353  32.6252670  26.3512955  45.2146034  12.6463451  82.3355408
  45.2274361  11.9609184  81.6675110  45.8544312  12.3582773  82.9865952
  41.9099121   3.2076654  20.1615257  41.5973053   2.5490439  20.7817879
  41.1213722   3.4987977  19.7036228  18.6447792   3.7665522   5.7318583
  18.8741016   2.9036963   5.3867168  19.4416561   4.0701108   6.1666813
  47.8662720  28.2227211  21.0710716  47.2484627  28.2407227  21.8019772
  47.4345131  28.7250690  20.3800850  34.6668434   6.6068587  83.2606201
  33.8793640   7.1443381  83.3456116  34.4738884   6.0122204  82.5357742
  38.3101501  29.0758648  17.0351715  38.8907394  28.7201309  17.7079277
  37.7280083  29.6688061  17.5103130  49.0690994  35.2045288  10.5940647
  49.9946213  35.4327583  10.5071402  48.8626747  34.7303505   9.7886000
  13.2584963  63.5507240  38.6150513  12.4110060  63.7488861  38.2166481
  13.8721008  64.1423416  38.1794891  70.5990982  35.7048340  27.7025146
  71.3236313  35.6704750  28.3271027  71.0171280  35.8847809  26.8604336
  85.9099884  43.5966187  26.3026257  85.8492050  42.6469421  26.1993980
  85.8209991  43.9403458  25.4137135  49.3610725  52.8177185   8.7896595
  48.9752007  52.6646423   9.6521568  49.3915520  53.7708244   8.7066450
  48.6336327  69.2204514  51.0154686  48.9978447  68.9654465  51.8631439
  49.3144112  69.7613525  50.6152306  72.7845917  16.9146271  66.8634033
  72.5183792  17.5497761  66.1986160  72.8743973  17.4301910  67.6648788
  69.7104797  25.3412609  60.5536766  69.6021347  25.8538074  59.7525597
  70.6491699  25.1588058  60.5961647  13.0918636  68.9833374  12.9308643
  13.2549849  69.8705292  12.6106873  12.3376360  68.6810150  12.4249277
  16.9363480  68.6062241  25.4497356  16.3886395  67.9910736  25.9374180
  16.8715191  68.3154678  24.5400715  10.3983116  25.0002823  18.4461441
  11.2639360  25.0652962  18.8495026  10.0183754  24.2057838  18.8211823
  54.3349915  21.6771545  65.3712616  55.1906548  21.6228142  65.7968369
  53.8007202  21.0241756  65.8233719  73.9702454  65.1788635  69.6142120
  73.3330231  64.6205902  69.1686630  74.7261810  65.1951218  69.0272522
  14.3329515  55.9595222  34.2382545  14.5830421  56.6305580  34.8733902
  15.0849476  55.8947906  33.6495743  60.4350624  41.1842766  15.3732414
  59.5306740  41.0928650  15.0733137  60.9218788  40.5329933  14.8681955
  85.6163559  15.5231791  51.8281517  86.2851562  15.0075026  52.2787247
  84.8446350  14.9570074  51.8168449  86.2374039  47.5060730  29.0722008
  86.9441910  47.5929298  29.7118473  85.7740784  48.3427124  29.1121387
  43.1360207  22.6294022  71.4476013  42.4338837  22.0838451  71.0931931
  42.8461075  22.8472919  72.3334351  86.4621582  41.1839790  84.3975830
  87.2167130  40.5986671  84.4630127  85.8451996  40.7172966  83.8338470
  69.7042084   1.7584133  38.7664909  68.7494507   1.7560904  38.8348198
  69.8775558   1.9184747  37.8388252  58.7168999  52.8218040   6.4019837
  58.0486832  52.1790771   6.1640344  59.5437851  52.4141617   6.1444626
  64.9977112  49.4553413  74.2306442  65.3526764  49.9006958  73.4612961
  64.4491806  50.1139336  74.6567917  26.2609863  40.7323303   7.3382936
  25.6500187  41.0285606   6.6636095  27.0505409  40.4875946   6.8556542
   7.3080602  49.0599251  31.4522495   7.2672653  48.4243622  30.7376671
   6.4661393  49.5139923  31.4172897  69.3900833  32.7265396  67.9113541
  70.2679901  33.0135574  67.6600723  69.2869415  33.0322380  68.8125381
  48.5728073  14.4419594  69.7020645  48.2319565  13.6352482  70.0884171
  48.3985214  15.1149263  70.3600693  85.8241043  68.3052673  20.6653748
  86.3968735  67.5615997  20.4779606  86.4223404  69.0399475  20.8017406
  76.7843475  18.9328079   0.8568463  77.3690720  19.2106934   1.5619053
  77.2257156  19.2132530   0.0551118  36.6985092  67.9030075  22.0450878
  36.2857132  68.3232651  22.7995491  37.4555855  68.4546280  21.8481636
  21.8829098  47.1114273  82.3956833  22.1747303  47.5041199  83.2184067
  22.6260109  47.2191505  81.8020248  43.4119072  57.6311417   4.0844283
  43.3667755  56.7176895   4.3669143  42.5905533  57.7776031   3.6152170
   7.0778170  37.1003036  83.0919189   7.6514997  36.8151474  82.3807144
   7.6328373  37.6558533  83.6392288  74.7149658  18.0780849  35.5686264
  74.3911819  18.9372978  35.8390923  74.4761887  18.0123329  34.6440201
  73.2411804  11.5294199  24.7306652  72.8563995  10.7497225  24.3303585
  73.1015320  11.4100723  25.6700726  70.5566483   3.3961315  42.2898941
  70.4592590   2.4586194  42.1231041  69.6687622   3.6990962  42.4799118
  71.7370605  49.4870186  84.2933044  71.9201202  49.6699104  85.2148590
  70.9539948  48.9367561  84.3092880  59.2951775  63.1474648  26.6347656
  60.1372261  63.6019974  26.6590252  58.8535576  63.4182434  27.4396782
  65.7819672  33.4708328  69.0192642  65.5933304  33.5663147  68.0857086
  65.0477676  33.9013748  69.4572372  26.5261860  20.8267822  77.4545670
  26.0913296  20.4159508  76.7073441  27.0580635  20.1282673  77.8358994
  28.5074749  67.2176895  64.9026566  28.8116798  68.0217514  64.4817200
  27.5924110  67.3934631  65.1217422   7.9379196  31.1688118  34.4464417
   8.7654219  31.3459854  34.8937454   7.3724632  31.9018536  34.6896324
  69.2304306  38.7062340  49.4458694  69.1267395  38.0671005  50.1508446
  68.6059570  38.4275017  48.7761116  51.3280602  47.6614494  60.8869324
  51.4441757  47.3314171  59.9959602  50.7200851  47.0440826  61.2936974
  80.7987747  44.8764801  19.9729996  80.5360184  44.0870399  20.4462624
  79.9827194  45.3587608  19.8399792   6.3854795  41.8087044   8.4447422
   6.1742411  42.6463547   8.8569975   6.2037792  41.1562805   9.1211720
  40.1326408  18.4687233  22.6167622  40.8927689  18.5625191  23.1909065
  39.8716888  19.3675385  22.4161015  55.1766624  28.5214806  23.1097355
  55.8902855  28.1576748  22.5856953  54.4650726  28.6571007  22.4840508
  17.5777054  50.6116676  74.2753830  17.9849453  51.3592339  74.7130280
  17.2662392  50.0562744  74.9900589  19.6308289  47.4363632  85.8186951
  18.7244377  47.4151115  85.5117188  19.8892193  48.3545799  85.7390366
  52.7988281   0.9422399  54.8175468  52.4220810   0.9716120  53.9380951
  52.3305893   0.2312182  55.2550735  62.0800743  20.7538834  12.4753246
  62.8783531  20.3346977  12.7966690  61.6175919  21.0273571  13.2675095
  13.5739288  43.3430481  52.4649811  13.8899727  42.8300476  53.2087440
  14.1879625  43.1436386  51.7582779   6.7906275  67.5498428  75.3847961
   6.8498311  66.6202393  75.6051865   5.8782544  67.6766586  75.1245575
  29.7290554  15.7422533  25.6707058  30.3532085  16.4377747  25.8778648
  29.1336555  15.7237701  26.4199657  22.0979156  50.3149796  22.9033070
  21.5101891  49.5635872  22.9822063  22.3393345  50.5259628  23.8052139
  34.1883049  13.5572386  83.5467377  35.1341858  13.5740232  83.4009399
  33.8338394  13.1248875  82.7697830  66.9282532  37.1734276  12.7231426
  66.5918732  36.8580933  11.8843088  67.4406891  37.9502029  12.4989538
  77.9537811  25.8236046  86.5222015  78.3278275  25.1429615  87.0817108
  77.2590942  25.3792038  86.0362473  77.6114960  38.0016594  34.0076561
  76.8505173  38.0288658  33.4276543  78.2613068  38.5566216  33.5763855
  16.9291935  61.5864677  26.4210396  16.2654305  61.4394684  27.0948658
  16.6105118  61.1000061  25.6607571  76.4898758  69.1838150  20.8175583
  77.1566925  69.8008652  21.1189384  76.7738571  68.9349976  19.9379692
   6.7951880  20.6294937   3.9571741   7.7140598  20.5236187   3.7108071
   6.4399662  19.7407322   3.9448164  61.8385048  38.0330353   8.3574638
  62.3826256  38.1049156   7.5732450  62.4339256  38.2289162   9.0808849
  33.0198593  47.2627716  69.2489471  32.3040123  47.8965836  69.2944870
  32.6409645  46.5051498  68.8032074   8.0491829  35.4041634  20.6378479
   7.7707610  34.6853638  20.0703640   7.2391334  35.7221107  21.0365486
   3.1480470  65.1377258  68.2355118   3.9602871  65.3364334  67.7696609
   2.9103954  64.2593155  67.9385986   7.5475101  35.2832870  74.6389847
   8.1291666  35.8939972  74.1862869   7.7488103  34.4305191  74.2536392
  19.9331627  53.9647446  77.4008865  19.8497276  53.1712799  77.9297409
  20.5898304  53.7443123  76.7402573  45.3801460   3.9925032  43.7844963
  45.8052216   4.3438559  43.0021324  44.5334206   4.4377041  43.8174210
  46.1270638   7.9346261  67.4892654  45.4246750   7.4763107  67.0279312
  46.9318466   7.5423169  67.1506653  77.2691040   8.9498272  65.1964417
  76.9869614   9.7742929  65.5925293  78.1976776   8.8826733  65.4188614
  14.1093550  57.9806252  16.7429848  14.9692402  57.5603104  16.7558804
  14.0488634  58.3756371  15.8731928  79.6014709  31.3671703  61.8692322
  80.3640976  30.7889118  61.8849602  79.4847183  31.6344585  62.7809105
   6.0592928  16.6150379  41.4591255   6.3558526  17.5118752  41.6139412
   6.1696305  16.4855270  40.5171661  37.6159821  33.4222336  18.1497726
  38.1284218  34.2216759  18.2703133  36.8661537  33.6957664  17.6214046
   3.6556947  26.2124691  37.3570175   2.7470608  25.9114799  37.3523979
   3.8618958  26.3374634  38.2833481  68.3662262   1.4676042  58.4803200
  68.9287796   0.6971018  58.4022827  67.5049133   1.1138259  58.7021637
  86.0660019   3.4902818  45.0820160  85.5918350   4.2990856  44.8890648
  86.9817352   3.6998694  44.8983498  83.4635849   1.2318925  85.9439697
  82.9468994   1.0026302  86.7164383  84.3159943   0.8239233  86.0962524
  75.3798599  29.0726528  88.8342743  74.6421127  29.3599014  89.3722687
  75.4081192  29.7000446  88.1119080   3.6536148  36.9591103  68.3626862
   4.4089279  36.4940414  68.0028992   3.8954823  37.8838768  68.3122864
   4.2822666  45.1204262  83.9757843   3.9155395  44.3081093  83.6266632
   3.7630057  45.8128166  83.5668945  81.8695602  34.9534798  43.8304482
  82.5286789  35.5588226  44.1700897  81.7935486  35.1778641  42.9030304
  46.0128632  63.4059486  20.2506142  45.6999969  63.7696953  21.0788879
  46.2443314  64.1716919  19.7249718  55.3753166  12.5835772  62.6859016
  55.3135147  12.8885765  61.7807007  55.9521179  13.2168140  63.1131554
   8.9579020  59.2092590  42.3184624   8.0299168  59.3909378  42.1699104
   9.3754101  59.3915787  41.4766312   0.6137319  18.3863735  67.2214966
   0.7514355  17.4476032  67.0950775   0.9892867  18.5697079  68.0826492
  70.3130112  43.8410950   1.6716655  70.8938141  43.5839424   2.3877444
  69.6319122  44.3658295   2.0923731   5.6291575  31.3496914  21.7167950
   5.2795119  31.1121788  20.8579769   6.1334739  30.5834808  21.9903240
  76.4175339  49.8496819  57.8821793  77.2605591  49.4305382  58.0549660
  76.2671890  50.4085617  58.6445961  -0.1985141  42.3578873   5.6557016
   0.5964083  42.3274918   5.1233430  -0.3893610  43.2913094   5.7480783
  12.0032787  35.6470032  65.6704559  11.6181688  35.8709602  66.5176697
  11.5598955  36.2216377  65.0464096  70.9871368  33.5235901  48.5952301
  71.6023483  32.8011665  48.4693336  70.7412491  33.7861252  47.7081871
  21.6482887  42.2806435  84.5011673  22.2382679  42.3084602  85.2544174
  22.0517445  42.8649063  83.8592224  52.4691696  43.9334450  65.5151215
  51.9236221  44.3379860  64.8406143  51.8467216  43.4966240  66.0964737
  64.7965469  59.5924187   6.3390431  63.9957962  59.7834969   5.8506637
  65.4576492  59.4382477   5.6642041  32.4388924  46.9031944  75.8163376
  31.7744026  46.3210220  75.4478912  32.7023811  47.4599571  75.0836639
  39.4850082   9.9111090  21.8684902  38.9608498  10.4707518  22.4414558
  40.2960091   9.7630529  22.3548908  81.6494598  69.8090744  53.3138924
  81.6484833  70.4301987  52.5855827  82.0539246  69.0193863  52.9546623
  22.5425301  48.5643158  87.7020569  21.9933548  49.2068901  88.1512070
  22.7179699  47.8950882  88.3635635  64.7505951  34.4509964  17.4694881
  64.9806290  34.8368950  18.3147068  65.5576782  34.4982147  16.9570255
  45.6717911  25.6743279  10.3252163  46.1289902  26.5147667  10.3546305
  45.7018127  25.3536625  11.2266064  43.6983452  56.5688705  58.1652832
  44.6358299  56.7621231  58.1629677  43.4429436  56.6325531  59.0855789
  69.6792679  14.7664385  22.1879768  69.8625031  14.6977091  21.2509937
  69.2877502  13.9237766  22.4179020  35.8184166  23.0233307  23.5943184
  36.2311249  23.7357635  23.1061153  36.5482674  22.5614395  24.0068741
  67.6689301   7.4518657  56.9478951  67.1774063   8.1336575  56.4898529
  68.2170486   7.0556836  56.2705193  40.6996040  61.3275719   0.0117319
  40.1400642  60.9518433   0.6914191  41.5905876  61.1191673   0.2927078
  71.0907669  36.4921989  68.2940750  71.8309708  37.0551834  68.0674133
  70.3480072  37.0914001  68.3682251  33.5461502  50.7578888  76.7068176
  33.8318710  50.4133224  77.5529099  34.3572578  50.8919830  76.2165527
  67.7148972  55.6884270  20.6814747  67.8179703  56.1465302  19.8473568
  66.7925797  55.4332161  20.7021980   1.3661021   6.7554779  68.1503372
   1.4251680   6.2972999  68.9886780   1.6393895   7.6514449  68.3472900
  82.1603165  50.4642677  43.3152351  82.5501862  49.9043159  43.9865723
  81.8845673  49.8577423  42.6279793  67.1680527  46.2848434  47.5657692
  67.8961411  46.7568665  47.9698906  67.1954956  45.4152031  47.9647789
  36.8340721  70.6661377  53.9659882  37.3310928  70.4630280  54.7584152
  36.1617050  69.9861374  53.9240952  48.9088554  32.8003731  25.7606659
  49.0656319  32.0029793  25.2548885  49.0177994  32.5308456  26.6726513
  23.0362186  57.0328140  44.6472855  23.3919163  57.9002533  44.8403168
  22.1101437  57.1893616  44.4625969  81.7782059  33.1008987  25.8636131
  81.1126938  33.1795845  26.5470791  81.5955505  32.2585602  25.4472866
  86.0515900  56.3478699  41.8063087  85.2583160  55.9310646  42.1427803
  86.7523346  56.0185814  42.3691254  72.7973709  11.0210209  27.2708530
  72.2367859  11.2093248  28.0235233  73.0035782  10.0898924  27.3527889
  55.3385582  22.4228725  17.2822742  56.0340347  23.0693321  17.1613121
  54.6658630  22.6734562  16.6490898  14.2477436  43.4664993  29.0096645
  14.8109236  44.0619278  29.5041656  14.7733078  43.2151146  28.2501793
  15.9957457  16.2689114  65.8639526  15.1280727  16.6728783  65.8502884
  16.2333679  16.1805477  64.9409332  34.6892204  56.6355553  56.4887238
  33.7325554  56.6041298  56.4824905  34.9591255  55.7173119  56.4743652
  18.2042484   9.9336061   2.2727909  17.3448067  10.2685881   2.0170963
  18.3557644   9.1913452   1.6877071  31.9013405  54.1035385  30.1381950
  32.0604095  53.8729668  29.2229004  31.3933144  53.3702011  30.4851189
  64.9074478  71.0755920   2.6263421  64.2384338  70.7041321   3.2013795
  64.4455872  71.2577286   1.8079643  49.4203453   6.6023850  11.6117668
  48.9967728   5.7457929  11.6671658  48.7818413   7.2099104  11.9852066
  63.1680412  46.7385597  52.3713608  63.6449738  47.5455666  52.1777000
  62.2576866  47.0166588  52.4720993  47.3347893  51.6819305  64.0575943
  46.8874702  51.7071953  64.9034653  48.2101402  51.3513336  64.2593460
   6.4530072  30.0230236  66.2567520   5.7588711  29.5972805  66.7598877
   6.7755342  30.7162476  66.8326416  14.6177273  18.4599380  78.6851273
  15.4039106  18.7071209  78.1982498  14.4883652  19.1738014  79.3095398
  84.2781525   4.1994452  29.0868149  84.1098862   3.2727485  29.2575550
  85.1768570   4.3386822  29.3854370  22.7418098  54.0082588   1.7710812
  22.5460835  54.0352859   2.7076669  21.9707947  54.3928032   1.3540759
  74.0544434   9.3123674  57.4453278  74.5620880  10.1232491  57.4137306
  74.6262360   8.6561470  57.0470123  57.4880180  27.9131107  65.8711777
  58.4004440  27.6875038  66.0523376  57.1155815  28.1127071  66.7300644
  23.7541332  43.0369492  71.2877426  23.2209587  43.4587250  70.6138992
  24.3135052  42.4287071  70.8046494  14.9893475  49.0044785  60.7323990
  14.7675219  48.7261620  61.6209755  14.7437916  49.9291687  60.7027168
  55.9133453  64.9531250  88.7129745  56.5621033  65.2479248  89.3520660
  55.2642517  65.6562042  88.6888428  13.6681938  13.9947443   4.2742519
  13.1190138  14.7756977   4.2053742  13.2589655  13.4743786   4.9656153
  31.9030018  45.1649780  15.7446404  32.8122940  45.0035629  15.9963684
  31.9490471  45.9097939  15.1451693   8.6134987   3.9120359  70.4242477
   8.9042835   4.7976766  70.2067261   8.1972313   4.0004344  71.2816544
  37.2917900  38.9719429  81.5187302  37.1077385  38.9785767  82.4580460
  36.4954948  39.3185005  81.1161880  75.6878662  60.7842560  23.8622551
  74.9895630  61.4238853  24.0018368  76.4873657  61.2419472  24.1221504
  76.1585617  61.6652412  50.1169243  76.4791412  61.2273712  50.9054260
  75.2954636  61.9986115  50.3622017  43.0760498  71.8153763   3.8441238
  42.7043152  71.6726379   2.9736795  43.8085747  71.2013626   3.8953617
  11.4656010  58.0048752  17.7061863  12.4106417  57.8567848  17.6715546
  11.2237759  58.2204208  16.8054695  71.4201660  19.6200676  23.4757824
  71.2916107  19.1661205  24.3086300  72.2547607  19.2858562  23.1471710
  18.5953693   7.2467809  76.8047180  19.5218201   7.0777044  76.6334534
  18.5620728   8.1712751  77.0505524  84.0874023  50.8410721  88.6994019
  83.9898987  50.5849648  87.7822723  83.6125031  51.6692772  88.7685928
  60.8558960  64.0948257  74.9832382  60.0558052  63.6111298  74.7779922
  61.4184837  63.4538269  75.4178009  24.0104427  13.8359880   4.7352943
  23.5304432  14.4827414   4.2180486  23.3487949  13.4489384   5.3085718
  27.4271927  70.0522308  59.4114304  26.8115788  70.7642212  59.5855598
  26.9732399  69.4916077  58.7822571  33.6361504  55.3213654  10.3862848
  33.8608170  54.5574646   9.8550510  34.4710884  55.6117096  10.7534494
  12.8037138   1.0776855  65.3073425  12.8458767   0.9788707  66.2584915
  13.7186356   1.0802931  65.0260162  28.2736969  14.6203995  81.9571457
  28.2693348  13.6663179  82.0342178  27.3523750  14.8561201  81.8483734
  82.6492157  56.7829094  57.3120918  83.3758240  56.7815247  56.6889763
  81.8641205  56.7749405  56.7645493  35.3060989  51.4185066  74.8222885
  35.1391335  51.8497963  73.9842300  36.0765610  51.8656960  75.1724930
  20.8076191   0.9024616  67.5286331  21.1758213   0.9070189  68.4121704
  20.6213284  -0.0195832  67.3515472  85.1607437  31.1142387  21.5007515
  84.4193802  30.7607517  21.9923401  84.7667007  31.7302170  20.8830662
  18.8548450  32.4317017   9.4139910  18.7109795  32.2994652  10.3510332
  17.9985485  32.2753944   9.0157995   5.8829250  26.1529579  17.9210320
   5.4474502  25.8099098  18.7013588   6.2200751  25.3765659  17.4740658
  14.2853909  23.8255615  34.5848885  13.9634933  22.9652252  34.8540230
  13.9881697  23.9201527  33.6799355  64.5277634   3.8952537  14.8876104
  64.4026871   4.8011875  14.6049976  63.6419296   3.5365300  14.9409771
  54.7607460  46.3824120  32.7456703  55.4127808  47.0776825  32.8332901
  54.5411034  46.1451111  33.6465988  14.5678997  47.9363518  63.6436577
  14.5091600  46.9811287  63.6255035  13.7340117  48.2205238  64.0179672
  82.1554337   4.4943557  10.0248280  81.6438904   3.7718942   9.6606798
  81.9072189   5.2534127   9.4971409   4.8588414  28.4286041   4.0004773
   4.2804365  28.2067299   4.7301702   5.6782699  27.9749546   4.1978865
  15.1494770  53.3395576   8.6278648  15.4020205  54.2498016   8.4732389
  15.0154915  53.2856064   9.5741043  54.9532623  63.2263603  53.3815689
  55.4939308  64.0156097  53.4132156  54.9604034  62.8949814  54.2795486
  77.6370316  29.6511898   1.4823360  76.6861496  29.5487690   1.4428453
  77.9676590  29.0907021   0.7803602  58.8940735  20.1877384  79.6342010
  59.0472374  21.0812874  79.3270493  59.3248367  19.6336021  78.9833527
  70.5386276  52.7059479  45.6247444  70.1252747  51.9326019  45.2409363
  71.0411530  53.0902977  44.9064293   0.3614201  34.0211754  35.0777245
   0.1689378  34.9234772  35.3327408  -0.4898224  33.6519661  34.8425598
  39.3930931  42.5964050  24.9389248  40.1087799  43.2222176  24.8276482
  39.8264465  41.7768173  25.1770687   1.1298835  28.0557270  38.7387428
   1.4889436  28.9157658  38.9570084   0.4328272  27.9174290  39.3800087
  57.4234619  19.8210125  52.7921944  58.0921783  19.7896309  53.4763489
  57.2962570  20.7547398  52.6242599  78.1067657  30.8673859  84.2280731
  77.7069626  30.2809410  84.8703156  79.0053101  30.5494118  84.1400986
  12.3045883   2.1224892  80.3503265  12.4728537   3.0224981  80.0712128
  13.1047516   1.6481456  80.1245651   0.9272880  30.0278168  25.4575253
   0.6051761  30.2382774  24.5810642   0.4194151  29.2606125  25.7215252
  77.9371796  24.5897465  69.6025696  78.1982346  25.5077839  69.6753006
  78.7299652  24.1374226  69.3142395  59.4961853  37.0121193   8.4308147
  60.3623314  37.4165955   8.4800110  59.4203606  36.5090637   9.2416286
  42.3033638  59.3950996  14.1997337  42.8440094  59.0403633  13.4939766
  42.7355270  60.2134171  14.4443235  12.9734774  22.5119247  10.5008783
  12.4552355  23.2632599  10.2125168  12.7875919  22.4378242  11.4369268
  50.7966576  10.6896572  56.8377609  50.9877625  10.0939445  57.5622177
  51.4069710  10.4306698  56.1473427  45.5338326  10.7416077  34.5399055
  45.9565430  10.2987909  35.2757454  44.6380539  10.8995810  34.8380013
  68.6624527  36.4958763  29.7889824  68.5367279  37.4155922  30.0225430
  69.0510483  36.5217743  28.9145947  59.1883698  26.3828621  88.5693130
  58.7795563  26.0655613  89.3745575  60.0987053  26.5507259  88.8129120
  60.2325630  45.2706070  20.9952183  59.6037064  45.5891724  20.3476925
  60.9640617  44.9378929  20.4751778  75.8535767  26.2792168   0.5910565
  75.8337021  27.1204987   0.1348950  75.3284607  25.6967239   0.0422476
   4.1428199  49.0560417  83.0182571   3.6914766  49.8402061  82.7058334
   3.5451427  48.3374290  82.8118286  60.8530235  25.0485191  34.1794815
  61.4825401  25.2017727  34.8840790  61.2860680  25.3835506  33.3943329
  82.2751465   0.4403450  42.6579857  82.6434784  -0.0115397  41.8987961
  82.1293640   1.3367721  42.3556633   1.1041486  38.5846252  21.1184464
   0.6338346  37.7828712  20.8899117   0.7171136  38.8608093  21.9492054
  55.7990036  70.7238617  83.4461288  56.0212250  69.8157196  83.2408752
  56.5436897  71.2314377  83.1235733   7.5314894  52.3940086  41.5729446
   6.9067769  52.0125389  40.9561424   7.1825328  52.1710739  42.4359436
  23.6775417  69.1114044  49.2685738  23.3834171  68.2005234  49.2653313
  22.9405842  69.6023560  48.9051247  80.1903305  25.0573292  75.4808044
  80.2989349  25.5195980  74.6496964  80.2865219  25.7374096  76.1474915
  81.6219711  53.2176666  73.9517059  81.4751740  52.2722168  73.9800949
  81.4434586  53.4605904  73.0432129  70.6936111  30.8046131  37.8910141
  71.1052170  31.5863667  38.2593498  69.8369522  31.1052856  37.5877457
   4.3067870  62.9389725  33.9083900   4.0788531  62.0199509  34.0486870
   3.5224285  63.3231773  33.5167274  60.9717064  40.2618446  55.7569847
  60.1187515  40.4046707  56.1672363  61.6048279  40.5538559  56.4128189
  22.5058308   9.8183289  81.5005493  21.8252621   9.6029434  82.1382599
  23.1718807  10.2817154  82.0083694  36.7986870  60.8339119  63.4310417
  37.5009613  61.1549759  63.9966965  36.6438904  61.5479507  62.8126411
  74.5032806   0.5095425  60.3502846  74.7065964   1.2172070  60.9619255
  75.3386307   0.0620482  60.2155151  64.3711395  65.3944016  14.7663021
  64.4662018  65.2842712  15.7123823  65.1803207  65.0365906  14.4010220
  78.4001465  69.8043442  78.6454163  78.9979095  69.3491211  79.2384415
  78.9669952  70.3719330  78.1231461  57.8946991  69.8062668  79.0599518
  58.6610870  70.0194778  78.5275726  57.1637688  70.2263260  78.6065979
  46.1996651  60.9161797   6.3577256  46.7046700  60.2953835   5.8325472
  46.2713966  60.5861473   7.2533622  18.1154060  13.3222351  16.1631851
  17.2904682  12.9818163  16.5093365  17.9120998  14.2194195  15.8986855
  21.3653851  52.5477448  62.9957542  21.7001076  53.4402618  62.9085732
  21.9999428  52.0069618  62.5255165  84.0783920  43.5191498  51.2705383
  84.6467743  44.2892113  51.2572746  84.5942764  42.8483696  51.7179222
  39.7069435  23.9787178  23.8078365  39.8512611  23.3954105  24.5529232
  39.1378899  24.6681252  24.1500759  72.9041290  67.4018707  65.1479874
  72.5289536  67.7694550  65.9482117  72.3035812  67.6750031  64.4544678
  67.6273804  71.0213318  40.4419518  66.9741745  70.3948135  40.1304665
  68.4624100  70.6707458  40.1320343  46.2067871  11.7396431  40.8406410
  47.0307961  12.2206230  40.9174423  45.8036880  12.0810385  40.0424004
   1.6911886   4.6527100  11.6081476   1.7640113   5.4357638  11.0624771
   2.4263330   4.1027918  11.3372517   0.0548504   4.5281167  30.6055431
   0.6751276   3.8048387  30.6969585  -0.4956897   4.4716625  31.3865356
  26.9351616   6.4967022  24.4419346  26.6994438   7.3794031  24.1564388
  26.2546215   5.9351830  24.0707340  59.7233315  43.9858932  32.6286964
  59.4753380  43.0616913  32.6528435  59.1368141  44.4077415  33.2566109
  64.7499313   2.7656484   9.7800779  64.3130112   2.7039900  10.6295052
  64.7568207   1.8677243   9.4485416   1.9356819  56.7050591   7.4433026
   2.7300544  56.5644150   6.9281096   1.9696677  57.6297569   7.6882691
  68.8533478   7.0110493  51.8299141  69.2330399   7.8835158  51.9341507
  67.9353409   7.1737027  51.6130142   5.5715599  22.1662445  42.0419998
   5.0357833  21.6458416  41.4433708   5.9916368  22.8188114  41.4817123
  21.6882992  52.1221962  84.7783508  22.3561172  52.7167549  85.1200485
  22.1851158  51.4095268  84.3764725  66.4494400  53.0249519  65.2049332
  65.7513199  52.5319633  64.7738647  67.2524338  52.5622520  64.9654694
  18.4734039  14.2584152   5.7738733  19.1470833  14.3806286   6.4427915
  18.3734570  13.3089218   5.7052732  52.5725136  40.0202179  84.2487869
  52.1245766  40.1503716  85.0846405  52.1239700  40.6095276  83.6423645
  44.3750000  32.3947296  13.1412516  45.1197891  31.9281006  13.5204325
  44.5543671  32.4083710  12.2011061  79.0141678  39.6312561  10.6593161
  79.1087723  39.1221657  11.4643669  78.7318726  38.9930687  10.0041389
  65.3994598  37.9508591  69.2899323  65.8751221  38.2542763  68.5166855
  64.9050598  37.1904945  68.9839249  47.1185036  36.7900581  65.4196777
  48.0087814  36.6221199  65.1107483  46.9921951  37.7295723  65.2870483
  29.6629333  37.4249535  23.1814270  28.8511696  37.0652122  23.5389957
  30.2790604  37.3996239  23.9135323  80.8658676  61.1569061  82.1132202
  80.9580231  62.0550613  81.7953262  80.1777039  61.2070732  82.7766495
  42.0748787  31.3278255   3.2022688  41.6592369  30.6675014   2.6477916
  42.1246643  30.9183712   4.0660391  81.6514511  28.8223419  21.1723728
  82.1893692  28.7704086  20.3823261  80.7506332  28.8292847  20.8487663
  64.8860397  62.4472961  31.8064308  65.1308594  63.3722153  31.7777348
  64.9091034  62.1649551  30.8921089  61.6877670  13.6180582  63.2324257
  62.1627922  14.2098751  63.8158112  62.3222237  12.9348021  63.0159645
   5.1619134   2.7994733  64.8536682   6.0817213   2.8360174  64.5912781
   4.8584809   3.7050602  64.7898560   1.9010627  33.6980095  14.5604887
   2.7437365  33.8019524  14.1185293   1.3708694  33.1877480  13.9483118
  79.3791733  63.1316109  61.7476807  79.7777863  63.8058739  62.2978745
  78.7466660  63.6058807  61.2080231  23.3899765  60.4715118  66.6589813
  22.5080242  60.3112869  66.3232422  23.9521885  60.4285088  65.8854828
  44.7687378  69.3639908  84.0063171  45.6044579  68.9484406  83.7938919
  44.5334244  69.8473129  83.2143173  42.6698875  57.2816658   8.7429285
  41.9519691  56.7765350   8.3612585  43.1327553  56.6563377   9.3005581
  45.4556503  70.1631393  56.8354378  46.0973969  69.4610291  56.7284851
  44.6184692  69.7095337  56.9334335  11.1062803  69.3575287  63.3136101
  11.8905058  68.8285065  63.4597702  10.7096519  69.4424667  64.1806183
  79.3838120  52.7599602  76.4080505  79.0984650  52.6528168  77.3154297
  80.1034241  52.1367378  76.3080978  79.7849960  33.9509354  85.8054581
  80.0114670  34.8735161  85.9228973  80.5885315  33.4777069  86.0213699
  21.5834541   9.4165096  86.2709122  22.4713840   9.7265110  86.4489975
  21.1014690   9.5934315  87.0787659  72.0700531  54.0639687  43.9283066
  71.8343735  53.7115402  43.0701218  71.7890549  54.9784622  43.8970680
  36.2701492  18.7503910  86.4661255  35.4106522  18.3429279  86.3590240
  36.2185822  19.5567226  85.9528961  29.9510841  58.4830322  71.9709702
  30.7237034  58.9301071  72.3165359  29.4023247  58.3248329  72.7391281
   5.3541684  39.5929260  75.0770645   6.3019781  39.6142883  75.2090988
   4.9879560  39.6580582  75.9590378  41.9250793  69.0468216  26.9155598
  42.2006645  68.5150604  27.6622257  42.5257950  68.8012924  26.2119350
  73.9698410  25.8781586  57.8415031  74.8483353  26.0045547  58.1999855
  74.0964813  25.8750839  56.8927231  34.2515335  39.9991074  10.6434002
  34.6212044  40.8696899  10.4962196  34.2317581  39.5973206   9.7748327
  69.5295029  52.8770828  42.1450005  68.8196640  52.4122009  41.7019997
  70.3273087  52.5420837  41.7357178  14.2431698  55.3320236  77.7845306
  14.0167828  54.5736504  77.2461548  13.6879854  55.2496109  78.5599136
   2.0866952  19.9347363  62.4201164   2.5041082  20.7844715  62.5613594
   2.2534163  19.4487896  63.2277641  12.6047449  22.1875610  18.6601162
  12.8964682  22.9704723  18.1930199  13.3706923  21.6135330  18.6671638
  56.4415970  59.9051704  82.3025818  56.5897293  60.6015129  81.6627426
  57.1957741  59.3241692  82.2031860  68.8862228  38.2612190  62.4992790
  69.3221207  38.6839981  63.2392006  67.9624481  38.4893723  62.6032829
  25.4862938  44.9028244  82.2141190  26.0232773  45.3029480  81.5301743
  25.9772968  45.0520630  83.0221329   2.1089289  17.5392189  37.2163391
   2.9504087  17.8656921  37.5350189   1.9810725  16.7124729  37.6814995
  68.9115372  20.9510880   0.8303577  68.1341553  20.5126305   0.4844447
  69.1091309  20.4834404   1.6418345  12.0532379   8.9607840  29.8303165
  12.4559450   9.6291180  29.2758904  11.7642450   9.4374189  30.6084766
  50.2644157  13.0344629  54.2166290  49.6117859  13.6615992  53.9051704
  50.8478203  13.5517588  54.7718544  41.0451050   9.3678322  30.7799015
  40.3261528   9.8069010  30.3254128  41.5335159  10.0774193  31.1972370
  74.9243851  17.7711220  33.0811768  74.4014893  18.0420361  32.3265800
  75.7881775  18.1520901  32.9232025  48.1701355   0.4457245  59.2680206
  48.0325584  -0.4999856  59.2138176  48.6684341   0.6608449  58.4795685
  32.8466644  65.8314209  46.6824036  33.6239243  65.3654938  46.9906464
  32.4327011  65.2259903  46.0673294  81.0323715  37.8731346  60.9196739
  80.5229034  38.6771011  61.0212212  81.9304047  38.1744499  60.7819138
  76.6644669  39.1133919  80.0538635  76.8677979  39.1525497  79.1193314
  76.4912033  40.0221519  80.2995682   3.1344912  51.1716232  61.5131073
   2.3321075  51.5978699  61.2118988   3.6281998  50.9969482  60.7118759
  10.7531567   7.7870150  27.4991932  11.1678514   8.3419247  28.1597500
  10.5668297   6.9675722  27.9574814  45.0315170  35.9418030  58.6685486
  44.7437286  36.3087769  59.5044556  44.9704247  34.9942093  58.7892570
  53.6841240  19.3701744  52.8895531  53.2462502  19.8661118  52.1977844
  52.9765053  18.9038181  53.3345413  42.3984032  54.3008766  81.3049774
  43.2086868  53.9150925  81.6379089  41.9817581  53.5942993  80.8116302
  12.8459339  34.2583733  72.3601303  12.7989473  33.3486023  72.6539688
  12.1856422  34.7133141  72.8828888  35.2431259  70.7779694  33.7948761
  34.7740479  71.2724152  33.1227722  36.1300278  70.6834488  33.4474564
  76.2539749  39.0810928   8.8342323  76.7661133  39.8782616   8.6983252
  75.3432693  39.3652802   8.7562389  11.0042925  21.0792179  34.0375328
  11.6187639  21.6469765  34.5026207  11.5320740  20.6619396  33.3566818
   2.2255604  18.1895638  88.6214371   1.9439751  17.4223080  88.1231766
   3.1177516  18.3578186  88.3182526   7.6935425  28.6186504  26.5919876
   7.6108003  27.6928120  26.8204803   6.8597021  29.0063763  26.8577156
  65.7106476  23.1342010  36.8419952  66.6367416  23.3306503  36.9833984
  65.5208054  23.4876671  35.9729424  40.5947266  15.9880409  75.6441193
  39.9049072  16.2456512  75.0325470  41.4065170  16.2682152  75.2213440
  81.7104874  64.6514053  20.7077103  80.7979050  64.6433716  20.9964104
  81.6694717  64.9256592  19.7915592  46.7274628  54.2419662   9.9278870
  46.7214127  55.0111771   9.3582287  46.7016869  53.4980469   9.3260965
  79.2617416  57.9641991   5.8258290  78.5519333  57.3641319   5.5971007
  79.9377899  57.4022331   6.2045012  82.2966537  59.6034088   6.8676376
  81.6696167  59.3883438   6.1771312  81.8948059  60.3345718   7.3368406
  17.3102360  66.5809784  55.1856346  17.5497856  66.4942169  56.1083031
  17.1012516  67.5089417  55.0786667  75.0612946  20.7861977  28.8652458
  75.2365189  21.7162189  28.7217560  75.3247910  20.3638973  28.0476475
  26.8411808  54.4166412  41.3525963  26.0864048  54.8444290  40.9481964
  26.4952679  53.5911331  41.6918755  84.3408356  22.8958035  37.2155609
  83.6316528  22.2557983  37.1547661  85.0601501  22.4177570  37.6282120
  84.2169189  41.6025162  44.5210686  83.4342499  41.4579201  43.9893303
  84.6068726  40.7333679  44.6146049  36.2988739  50.0812607  87.3271027
  36.0282135  49.3412209  87.8705292  35.6039200  50.7294312  87.4417648
  62.0145111  62.2639160  52.7785683  62.4310532  62.8118248  53.4437904
  61.6951866  62.8840828  52.1230850  10.9393358  25.9173470  43.4654236
  10.5331125  25.0619793  43.6052780  10.9485435  26.0255051  42.5143967
  80.7037735  68.2121124  60.5727158  81.4504852  68.7693558  60.3533363
  81.0641479  67.5500565  61.1626778  16.2846718  57.1217041  36.4083633
  16.1019726  57.9963455  36.0650597  17.1841660  57.1742859  36.7314377
  32.3792915  65.7332687  63.8200150  33.0782433  66.1376114  63.3059998
  32.6898880  64.8436966  63.9886169  53.2901039  10.4205284  22.1666813
  53.0528679  10.0796232  23.0290813  54.1299667  10.0064468  21.9681911
  34.6713600  45.8941154  71.0974960  33.9698181  46.3029747  70.5906448
  34.2280922  45.5114555  71.8546753   6.4461012  66.8054352  10.6715183
   5.5154819  66.9207306  10.4794550   6.5043802  66.8747635  11.6244240
  67.6582031  37.6951790  76.7716599  68.0787735  37.5401878  77.6174316
  66.7335587  37.8227692  76.9837646  12.9227009  46.0393181  70.5677032
  13.2593203  46.2152634  71.4463120  12.7339973  46.9050980  70.2056885
  57.7007217  67.1116104  56.2872505  57.7578430  66.5562897  57.0648003
  57.9365425  67.9853287  56.5990791  28.6371841  25.3481178  48.5541840
  29.1718731  25.5334778  47.7821846  28.1052990  24.5934544  48.3015709
   2.4402623  57.5187950  45.5176773   3.1443684  57.9490013  46.0028458
   2.6017454  57.7524643  44.6035881   1.9729263  50.9515114  29.8301029
   2.6354904  50.7404747  29.1723003   1.2910875  51.4145088  29.3433132
   9.7693071  42.5085106  53.7770500   9.6090155  41.9689293  53.0028458
   9.2606068  42.0889587  54.4709015  67.8021393   5.0269775  20.5880108
  67.7217331   5.7187939  21.2446346  68.3169479   4.3453875  21.0200233
  43.2936935  70.4282913  59.7849693  43.2321396  70.3950577  58.8303299
  44.2095757  70.2234650  59.9732018  33.3286285   5.7711678  65.6298599
  33.7004814   4.8968925  65.7464828  32.9169197   5.7430801  64.7661819
   8.2979393   1.4148990  31.5457973   7.4215589   1.1480300  31.8232307
   8.8898640   0.9066224  32.1003342  21.3756886  71.0344543   6.2272348
  21.0741901  71.6645126   5.5727491  20.6841621  70.3734131   6.2597175
  13.9805269  21.0767822  83.0920563  14.0528965  21.2875271  84.0229645
  13.6434975  20.1810455  83.0747681  31.8260651  67.8450394  44.0159111
  32.4690132  67.1561890  43.8475876  31.3448963  67.9298859  43.1928024
  42.8603096  41.8289528  29.0320415  43.0512619  42.1945839  29.8958015
  41.9044304  41.8038826  28.9885483   4.3570385  58.7704849  46.8782578
   5.2807593  58.9865761  46.7506790   4.2492185  58.7315025  47.8285675
   0.7446638  47.8499413   4.7512875   0.8968593  48.1240234   3.8468823
   0.3437453  48.6125069   5.1684084  28.9519444   2.3445015   4.4927664
  29.6517544   1.7633816   4.7907538  28.5735264   1.8956404   3.7367530
  61.2292442  23.8651619  19.9343605  60.3057899  23.7840576  20.1728706
  61.4941635  24.7144260  20.2876301  65.0535812  45.3904381  12.4028120
  64.7730637  44.5885658  12.8438797  65.8955078  45.6032715  12.8054295
  47.0060997  70.3954620  86.7148590  46.9240646  69.9144592  85.8913727
  47.4295807  69.7783279  87.3115540  13.2323389  47.2944756  24.3839741
  13.4576387  47.2171974  25.3110676  12.2955236  47.1012573  24.3482418
  67.3693161  66.9286041  36.4830284  67.2658920  67.8801804  36.4769897
  68.1215591  66.7730637  37.0541420  21.0794449  67.7216644  33.4662819
  20.2414036  67.4625397  33.0831718  21.4678459  66.9012146  33.7700043
  60.3307953  67.5245438  18.4561234  60.5149231  67.9601517  19.2883358
  61.1430473  67.0661240  18.2408791  72.0937805  68.1801147  70.4847565
  71.5973206  68.4556351  71.2553711  72.6864243  68.9106750  70.3078461
  77.3606491  57.0797081  76.8875580  76.5609283  56.9536209  76.3768921
  77.9959259  56.4852943  76.4884033  69.1964874  44.5755157  41.1018639
  69.9033813  44.2860260  40.5250435  69.2194290  43.9613380  41.8356819
  19.1209583  19.1795845  61.9696388  18.3425522  19.1818066  61.4125824
  18.7770290  19.2211113  62.8619499  21.0880280  43.6845589  65.7318802
  21.4643688  43.0484085  65.1236725  21.8086205  44.2831039  65.9286652
  13.1420364  42.2589684  17.3438854  13.7002239  41.4890327  17.2349758
  12.2610588  41.9473839  17.1364574  70.4064255  29.7959976  77.5841293
  71.3500443  29.7230930  77.4409332  70.0552292  28.9518948  77.3006134
  34.7312431  14.2754345  15.0162916  34.3642120  13.4029627  15.1588144
  33.9777031  14.8635054  15.0671129  15.5181618  36.9981956  55.3648109
  15.9493284  36.6062279  56.1242104  16.1779785  37.5810776  54.9891434
  68.9899902   1.2720968  71.9276352  68.2831268   1.8374974  71.6163559
  69.7917252   1.7346649  71.6837387   8.8277245  19.2505493  86.5737000
   9.6588602  19.3718681  86.1146545   8.7084551  18.3013706  86.6063309
  83.8513107  67.0340271  77.1223984  84.7063370  66.6129379  77.2110062
  83.6163025  67.2890244  78.0145721   3.2513003  68.3170242  77.7032547
   2.6754830  69.0813446  77.7252731   2.6554394  67.5696259  77.6525040
   8.8977842  10.6971521  53.5143967   8.1005688  11.2021694  53.6745148
   9.1959734  10.9872255  52.6523247  19.5450363  50.2723808  85.5284271
  18.6700172  50.6577225  85.4827423  20.1375427  51.0240860  85.5387039
   4.9445410  67.9303665  32.5262871   4.1678777  67.8710480  33.0826187
   5.5027733  67.2090302  32.8166046  37.4402580  22.8053608  25.7020683
  38.1965141  22.6433182  26.2660255  36.9843330  23.5374508  26.1172886
   5.9085422  45.5202599  32.7198029   5.5928879  44.7245636  32.2914772
   5.1408410  45.8691025  33.1727638  51.8507805  32.9061127   8.9359283
  51.0061836  32.9111519   8.4855232  52.1177483  33.8251419   8.9545994
  27.4277725  55.6021385  45.1344528  26.5716953  55.6434021  45.5606689
  27.2868328  55.9993019  44.2750168   9.4029007   2.6956134  58.9620247
   8.8840418   2.4948072  59.7409325   9.5049715   3.6471667  58.9809990
  13.8099909  10.4983206  35.8461037  14.0064344  11.1328077  36.5353584
  12.8546925  10.4982700  35.7857971  64.8178558  35.1778107  37.0065460
  64.7143478  36.0022469  36.5313377  64.0261383  35.1077690  37.5399323
  19.9364243  52.9073792   5.6455441  19.1389389  52.3998146   5.4951138
  20.0480156  52.9019814   6.5962014  59.6796303  25.1431751  64.9708405
  60.0094528  24.2447701  64.9529266  60.0264244  25.5094509  65.7843628
  34.3877182  42.6890030   3.4997468  33.5715790  42.9885712   3.0992374
  34.3558540  41.7353516   3.4237919  74.0433350  45.8808098  45.3650475
  73.1524277  45.6691475  45.6438293  74.3210754  45.1210098  44.8533897
  54.7099953   8.3882656  31.6652966  55.0136528   7.8983283  32.4294853
  54.7206154   7.7501121  30.9519386   0.7091449   1.6551925  74.7291107
   0.4157795   0.7459552  74.7879028   1.4581225   1.6271850  74.1337280
  20.3184490  56.1226578  79.2090378  20.7218552  56.6258698  78.5017395
  20.1462936  55.2635078  78.8237381  68.4916611  40.6788940  85.2717667
  67.7323074  40.5375557  84.7064133  68.8128891  41.5472183  85.0287552
  79.1752319  18.3715286  77.4170532  79.4655838  19.2211361  77.7488556
  79.7439270  18.2005215  76.6663361  67.8190536  51.2670021  40.5054970
  66.8767166  51.4295578  40.4630318  68.1087036  51.2975502  39.5936852
  59.7949028  18.5654278  84.4864426  59.2238197  19.3270016  84.5869370
  59.7824402  18.3789196  83.5476761  70.0849838   9.5703030  86.7961426
  70.1566238  10.4675407  87.1218109  70.4062119   9.6160078  85.8956070
   8.3761015  32.5890045  31.3872395   7.9069405  31.7550316  31.4119186
   8.0618906  33.0634460  32.1569214  65.8349152  67.1061249  87.4172745
  66.0480957  68.0195999  87.6079178  65.3589478  66.8047256  88.1911316
   0.2737812   8.3423910  13.7304258   0.1969718   9.2121086  14.1227551
   0.4713494   8.5117645  12.8092794  19.7161713  32.4612732  72.7015152
  20.2423000  31.6719437  72.8295059  19.0875778  32.4497719  73.4232941
  65.3909912  70.0020828  38.3214417  65.8916092  70.6751480  37.8603592
  66.0556030  69.4297256  38.7047577  79.6480103  57.5984688  31.2158260
  79.7559814  57.1122322  30.3984222  78.8326263  58.0859528  31.0986156
  18.3967285  18.4185104  24.0826893  18.8580627  17.5833664  24.0056362
  19.0721626  19.0799732  23.9327202  47.3109398  59.7964249  76.5571671
  47.1734734  59.9843903  75.6287231  48.2572365  59.6786613  76.6401443
  43.6180725   3.4907835  14.7191982  42.9850044   3.5651739  14.0051117
  43.1920433   2.9197559  15.3584614  25.3339024  25.4373016  74.2220993
  24.4957104  25.4916363  74.6811371  25.1271610  24.9980450  73.3971481
   9.4559698  52.1780434  20.1697578   9.2803650  52.9595070  19.6456299
  10.0485020  52.4796638  20.8583546  50.0567207   7.0453072  48.6204643
  49.2807961   6.5198331  48.4253922  49.9984398   7.7899022  48.0217857
  54.5309906  49.2457008  64.6655121  54.6489220  48.3025246  64.7783813
  55.1594963  49.6397514  65.2704391  61.6886940  17.4384632   2.0715764
  62.6295967  17.2992363   2.1790643  61.5290451  18.3013573   2.4538834
  46.7818604  62.3231468  87.2853394  47.1186867  61.4881630  86.9604034
  47.4297256  62.9688377  87.0032425  48.5744743  65.3112869  51.3484268
  48.5458717  64.5766830  50.7354202  48.4488258  66.0857849  50.8001595
  83.2310486  37.1246529  84.3757172  82.6157074  36.4015694  84.4971390
  83.5235672  37.0403862  83.4682083  37.4433212  57.2635880  51.5647202
  38.0862732  56.9041328  52.1759796  37.5660934  58.2113914  51.6178856
   1.1759390  47.3145409  63.6897545   0.4028767  47.0952568  63.1696396
   1.1129673  48.2599678  63.8255386  18.3196507  41.9549789  29.5588589
  17.7567120  42.6993866  29.3462830  18.3020401  41.9066353  30.5146751
  35.7824097  13.2743721  20.3622799  34.9611015  13.5940380  20.7357731
  36.3309593  14.0551271  20.2864780  34.7226562   8.6604156  62.5146675
  33.8414078   9.0316772  62.4723053  34.9272957   8.4253712  61.6096191
  37.0491180  67.8690720  61.8640404  37.7712860  67.3406830  61.5241776
  37.4397507  68.3815842  62.5718346  51.6164093  10.1626225  38.6821823
  50.8339081  10.0261707  39.2163239  51.8276901   9.2937899  38.3405342
  11.0480137  64.4694366  52.2399025  10.6739635  64.1705399  53.0687447
  10.9608011  63.7182770  51.6530571  11.5133276  21.1254482  42.4717636
  11.7066650  20.2044163  42.6465569  12.0768785  21.3522778  41.7320404
  66.7710037  18.8258209  59.7418098  66.4810638  19.1259136  58.8803520
  67.0538483  19.6227188  60.1903458   3.4051421  46.0710449  30.9737568
   3.1966026  45.1998978  30.6363468   3.0387385  46.6728706  30.3258476
   5.6623812  30.1666412  27.6476269   5.9662886  29.8256645  28.4888210
   6.1425552  30.9868679  27.5340843  50.4332581   9.0486784  10.6114340
  50.7641029   8.3477049  11.1730461  50.5065460   9.8389940  11.1464691
  51.2293892  67.1159668  23.1614666  50.9756393  67.7128448  22.4574871
  51.6634293  66.3892670  22.7145405  51.6651459  51.9018860  14.6451387
  52.5783386  51.7152557  14.4272518  51.1593590  51.4157600  13.9939117
   9.3588791  34.9773560   6.3153186  10.2625217  35.1922531   6.0840583
   8.8922682  35.8111687   6.2582197  64.1866302  35.3333702  29.0325680
  64.0831909  34.5912437  28.4369392  63.6250496  36.0157280  28.6648159
  78.5860748  21.2307167  41.6560669  77.8935471  20.6063404  41.8723907
  78.7884521  21.0550537  40.7371445   0.3683501  46.1289825  32.7801476
   0.1114701  46.3676109  33.6708221   0.4731550  46.9664497  32.3285980
  82.0080032  29.7725277  61.4627266  81.8533554  29.0460815  62.0665436
  81.9699097  29.3736706  60.5934219  41.3355293   9.6266127  72.0008392
  40.5542488   9.5274487  72.5448914  41.4897308  10.5709000  71.9729919
  40.9745636  52.0380707  28.0195885  41.4248123  52.3428917  27.2318134
  40.3929749  52.7601128  28.2575932  37.5375481  19.7803745  81.6114960
  37.3932762  20.0718594  82.5117493  37.7459488  18.8495770  81.6916122
  76.2294998  58.2275429  52.4847069  75.4559555  58.5476952  52.9487801
  75.8855057  57.8611221  51.6700706  18.4040279  60.3842087  64.7423248
  17.7066917  59.7504921  64.5739212  18.8683758  60.4566154  63.9084396
  15.9586306  65.8792267  81.3446198  15.5802622  66.3038025  80.5746841
  16.7696495  65.4834061  81.0255508   6.7207608  35.4691162  39.1105804
   6.8199716  34.9167862  38.3351326   6.9911819  34.9100952  39.8390007
  29.6560593  18.2622452   7.1980224  29.5883884  18.3013115   8.1520281
  30.3829136  18.8476181   6.9852967  58.3105850   8.2626257  87.3855286
  59.0585594   7.9406977  87.8886490  57.8917198   7.4715681  87.0463943
   5.7064700  26.7206573  71.7793121   5.3072963  27.5816536  71.9041214
   5.6208048  26.5506458  70.8412399  60.6648941  13.0216179  40.0806885
  60.8441887  13.0327463  39.1404953  60.9238358  12.1445904  40.3635330
  36.3167725  63.5621414  41.4706993  35.6993523  63.0250435  41.9672356
  35.7631607  64.1259689  40.9304733  56.8588982  22.3054752  69.5068359
  56.1936302  22.2995358  70.1950378  57.3965340  23.0734882  69.7000580
  16.7270546   9.1131487  29.3423538  17.3849735   9.7987509  29.2269135
  16.1059494   9.4806566  29.9711590  75.0144882  25.8414059  26.1620731
  75.1140594  25.7450714  25.2149525  74.9426346  26.7858124  26.3005219
  85.4268799   5.8084025  43.8472519  85.6853333   6.7266836  43.7685623
  84.6394501   5.7341633  43.3081055  25.3397427  10.7760391  82.1374359
  25.7882576  11.1423988  82.8995667  25.9944324  10.2157574  81.7206650
   7.1741858  60.4580460  20.2153912   7.6522536  60.0535240  19.4914799
   7.5608468  61.3295326  20.3004532  22.1757603  49.4466705  66.4586258
  21.6354675  48.6595802  66.3892975  23.0356598  49.1760178  66.1368256
   1.3542739  37.6786690  58.2103653   2.1640077  37.8284416  58.6983528
   0.6578488  37.8352509  58.8480988  82.6023331  16.4437504  48.4911385
  81.8394241  16.4501839  49.0692062  82.3324356  16.9614220  47.7325821
  84.7734528  60.4358826  25.2213345  85.6524200  60.0895958  25.3753719
  84.9189987  61.2633362  24.7626705  63.1850662  15.6539040   5.5094366
  63.2708931  15.3996649   6.4282556  62.3261871  16.0730877   5.4561362
  10.3822851   0.7598698  85.4464722  10.6856680   0.0525899  84.8773117
   9.5970221   1.0952653  85.0139160   6.5933890  26.0546093  10.9699488
   5.9278455  25.6011829  10.4525623   6.3927178  26.9836922  10.8569670
  46.1053047  11.1991444   6.2375698  46.5081367  11.9878016   5.8742805
  45.5470886  10.8692265   5.5334539  76.8423080  10.4995985  43.5589027
  76.8341599  10.3165083  42.6194115  75.9718246  10.2403469  43.8610077
  19.8255291  40.5111694  78.6736679  20.4563503  41.1917152  78.9085159
  19.8464203  40.4850426  77.7170486  45.8936882  30.0075874  82.7070084
  45.5923424  30.5481014  81.9767609  46.8203697  30.2279034  82.8016281
  79.1646423  20.9089260  64.9016495  78.9057159  21.8138390  64.7275314
  78.3391266  20.4254322  64.9331741  67.7975616  54.8654404  39.5260086
  67.5705338  54.0820274  40.0269623  66.9882278  55.1033707  39.0736694
  54.2302589  52.2012062  18.2509613  54.1974983  52.9119530  17.6106472
  54.1457825  52.6382027  19.0983868  21.2164478  13.6142168  56.4691582
  21.5029106  13.6195488  57.3824730  20.3234940  13.9579229  56.4962082
  78.5347443  26.9510212  15.6722698  78.0894775  27.7277527  16.0108719
  78.6477966  27.1277943  14.7383518  33.0455437  56.6006393  38.8627205
  33.4185944  56.3496666  38.0176888  32.1025543  56.4770432  38.7544365
  52.0091019   6.5741725  23.7030640  52.0813866   7.4957380  23.9515076
  51.2587395   6.5442700  23.1095181   2.9439676  48.1306343  21.4010410
   2.2495983  47.6377068  20.9638863   3.3750932  47.4883995  21.9648628
  59.6019516  29.5729828  74.3046951  59.5980110  30.1070080  73.5103226
  58.7806892  29.7922611  74.7447891  45.5236626  47.0554085  86.6098022
  45.6259041  47.9263420  86.2260666  45.1267433  47.2159729  87.4659042
  47.9578629  21.7099895  15.3659058  48.1188126  22.5971298  15.0444860
  47.2879715  21.3602428  14.7784061  14.9018345  67.0876694   8.5024986
  15.6754894  66.5961151   8.2267017  15.2479858  67.9236679   8.8147640
  25.1779289   8.8323107  24.2039738  24.3981037   8.3886175  24.5374985
  25.5557404   9.2618752  24.9714146  64.4757309  25.6773453  52.1434288
  63.7410393  26.1459103  52.5395393  64.1579361  25.4218636  51.2774239
  71.7583542  55.0904694  52.6475716  70.9968109  54.6376877  53.0098801
  71.5284271  55.2512474  51.7324142   9.8047924  48.6539459  85.6121368
   8.9113903  48.6349068  85.2690582   9.7449369  48.2149277  86.4606094
  62.4627037  14.2879858  33.0426102  62.8099556  15.1795197  33.0711708
  62.4722939  14.0568571  32.1137810  10.5796280  21.4031181  64.0951767
  10.1920071  22.2616539  64.2651749   9.8305569  20.8306904  63.9294930
  40.5849380  55.3205833  13.7284422  39.8184624  55.5883179  14.2354574
  40.7197266  56.0331841  13.1037292   9.5295115  60.1573601  52.1072159
   9.2333965  59.6673584  51.3401146   8.7231064  60.4010963  52.5616798
  67.3325729  54.5198631  70.5180969  67.1236877  54.3735886  69.5954895
  68.1932602  54.1177750  70.6354675  78.7736511  16.7834835  39.5258827
  78.0652618  17.4158669  39.6463242  79.3359833  16.9051743  40.2908669
  67.6197128  57.7311287  25.7769012  67.2309952  57.3222198  26.5501556
  68.4513245  58.0889854  26.0877113  78.0055084  54.5615425  53.1675644
  77.8686981  53.9613724  52.4345474  77.1546021  54.6046600  53.6038361
  34.3244972  13.7634172  30.0750961  33.5349388  14.1979618  29.7526054
  35.0439110  14.3152113  29.7681751   4.7686357  36.8158569  78.8393936
   5.0692668  37.5766907  79.3363724   5.0583196  36.9855843  77.9430084
  32.5352097  22.6737499  11.3852129  33.0672874  22.6166382  10.5915737
  31.8549709  22.0110035  11.2657270  16.9460335  42.9674339  14.8204746
  17.7474537  43.2729683  15.2454538  17.2470913  42.3354416  14.1676493
  58.2854195  26.3971138  59.7787361  58.4235687  26.2387924  60.7125893
  58.6703491  27.2594643  59.6224899  68.3143463  67.0385818  72.2148285
  67.4931641  67.1912994  72.6823425  68.0875626  67.1458130  71.2910767
   9.7256117  59.5286751  67.7322388  10.0412960  59.4214973  66.8349762
  10.2655525  60.2315254  68.0937653  37.2506256   3.9603782   0.5016152
  37.6337967   3.0942869   0.3626965  36.3508987   3.7830286   0.7759714
  35.6733322  60.6764565  10.7062073  36.2154694  61.2274055  11.2708092
  35.5018005  61.2183685   9.9360504  31.3977871  21.7770023  82.7779083
  32.0733147  22.0299664  82.1487045  30.7830486  22.5107117  82.7772522
  44.3652649  39.8847389  11.7185774  44.0977478  38.9670219  11.7682076
  44.6909752  39.9912758  10.8248234  66.0564423  39.2204666  26.7253933
  65.2293472  39.3979759  27.1733131  65.7972794  38.9154625  25.8558865
  78.9257736  55.9325981  33.3816948  79.4620514  56.5552368  32.8908272
  78.1340790  55.8299255  32.8535728  24.3162975  17.0241089  10.0555372
  24.9620380  16.3330059   9.9084749  24.5792103  17.4252224  10.8839188
  73.0651627  24.0322495  66.6273499  73.6610718  24.0322838  67.3764343
  73.1126251  24.9242954  66.2835007  12.8993216  41.0346489  77.7817383
  12.1936016  41.6785278  77.8418350  13.0505171  40.7598839  78.6861038
  14.2610188  64.4606552  23.9620171  14.7460337  64.3348312  23.1464443
  14.6663990  65.2280197  24.3658104  27.2023869  58.8651047  81.8318100
  27.6064243  58.0619965  81.5031738  26.9852085  58.6684265  82.7430649
  62.8138428  53.8922920  70.6832886  62.5447426  53.4763565  71.5023193
  62.0196953  54.3159523  70.3575974   5.5499582  37.4320755  73.5497131
   5.4102778  38.1089401  74.2119675   4.6988330  37.0028305  73.4627304
  86.0033646  63.6156197  20.8263569  85.0983353  63.5667000  21.1342010
  86.2271271  64.5443192  20.8870564   2.0848572   4.8267560  23.8004131
   2.8532124   4.5465655  23.3030643   2.0598459   5.7769365  23.6874390
  71.3072891   5.3195853  37.7334862  70.4553223   5.7525520  37.6794014
  71.3611603   5.0089784  38.6372871  52.8956184  27.5146179   5.2745085
  53.3724060  26.9711876   4.6471434  52.0571594  27.0675335   5.3899951
  65.8737183  60.1927757  68.1919250  66.3363190  60.7381020  67.5556488
  66.5688400  59.7412109  68.6706009  51.9538345  56.8292580   8.3311625
  52.1851921  57.7136421   8.0473118  52.7346878  56.3068924   8.1477623
  75.9785919  34.9365273  12.1294003  76.6406555  34.6208458  11.5143814
  76.3473129  34.7527809  12.9934111  39.8310509  63.1653557  37.6958122
  40.4288292  62.7898903  38.3422813  39.8431702  62.5430984  36.9685707
  68.4801941  15.8600779  83.2027054  67.8572998  16.4338341  82.7565689
  69.3138580  16.0222492  82.7611923  31.0642433  30.2210655  16.7859764
  30.4869022  30.8542061  16.3593140  31.8088684  30.1366577  16.1904602
  85.5179596  10.8191996  59.0487709  86.3578873  10.3962288  59.2272606
  84.9093628  10.0937233  58.9090576   3.3466094  61.7638130  74.3255768
   2.9622083  62.0746460  73.5059052   2.5941398  61.5420914  74.8740845
  68.8139267  33.6185646   7.4580965  69.1583557  33.6498604   6.5655618
  68.5444717  32.7080727   7.5790515  11.1375628  16.2240448  64.8229599
  11.8475485  15.6068211  64.9995651  11.5483189  16.9219570  64.3126373
  51.5497360  66.4565811  10.8396912  51.1758080  66.0190048  10.0748777
  51.8167305  67.3171234  10.5165701  52.4552383  18.4936695  11.5962391
  52.1190414  17.6904926  11.1986065  51.8117332  18.7152500  12.2693167
   3.4913635  60.7113380  40.6728287   3.4792979  61.1482048  41.5244331
   4.4168139  60.6861725  40.4296417   9.9488564  22.0324268  69.5645981
  10.2426043  22.3280106  68.7028732   9.3093338  22.6899872  69.8381958
  52.1769485  24.3414059   8.1062450  51.3776360  24.4845638   8.6130400
  52.8041382  24.9687328   8.4658632  30.2579460  47.1606865   3.6050413
  30.6722641  47.4110527   2.7792771  29.3188801  47.2055855   3.4251223
  63.7066154  37.4470940  16.1940937  63.3512802  36.5922699  16.4374924
  64.3147659  37.6637192  16.9008160  31.1632843   4.8318462  81.4334793
  31.3205528   4.0758910  81.9991913  31.7391109   4.6923184  80.6816940
  67.0679626  48.2994308  52.5347633  67.9016800  48.6463089  52.8522949
  66.4311295  48.5600014  53.2001801  37.7031937  10.7700253  38.7053757
  37.9065285  11.1978188  39.5371704  37.3035583  11.4582329  38.1734962
  44.4908333  17.6679707  79.1506577  44.5892715  16.7943630  78.7720413
  43.6240425  17.9565506  78.8649597  29.1216240  45.0930595  81.1397552
  29.1377773  45.4620552  82.0228271  28.5746765  44.3113022  81.2168045
  83.5538712  57.9264565  13.5452681  83.8286819  57.0104637  13.5861597
  82.8459854  57.9929771  14.1861277  75.7886353  37.9884682  55.2760658
  75.3873520  38.5872879  54.6462898  75.9140015  37.1752586  54.7869797
  20.3100986  37.0833015  71.3821564  19.5042801  37.4350739  71.0038147
  20.3936615  36.2103462  70.9984894  22.1429539   9.2006741  62.8179741
  21.9049358   9.3382311  63.7348480  22.8084641   9.8654985  62.6409531
  19.4263306   4.1331391  78.0793152  18.8477249   3.4011765  78.2930374
  19.1003876   4.4590540  77.2404022  73.5487823  46.8912849  39.4773903
  73.5055542  46.5617485  40.3750381  74.4809494  46.8740997  39.2605743
  -0.0516282  31.8973789  37.7025909   0.1857078  32.2764626  36.8563042
   0.0143651  32.6268959  38.3187790  73.0584564  29.5440083  32.5641594
  73.6449814  29.1825848  31.8996353  72.6729126  30.3156261  32.1491966
   5.3855195   4.4362693  83.5127487   5.1466212   4.3377013  82.5910950
   5.2436943   3.5685163  83.8910675  54.7263527  30.9463062  20.6457310
  54.7882881  31.8936653  20.5236378  54.3630753  30.6218605  19.8217201
  76.7446442  61.5961800  85.4610977  76.5945740  60.6610069  85.5995102
  77.6954956  61.6778145  85.3872604  81.5940552  68.3719330  47.6751251
  80.9486237  68.8385925  47.1442070  81.6909180  67.5232315  47.2432060
  60.8753662  68.4200668  47.5900650  60.4151497  67.7236786  47.1215858
  60.2080154  69.0898056  47.7394638  44.2280579  21.0732079  43.1381416
  45.0679512  20.6580830  42.9419823  44.1335793  21.7507095  42.4685936
  76.2650604  15.8464584  12.5117483  75.5602875  15.5048571  13.0620556
  75.8160095  16.3489723  11.8319912  55.7791557   2.5990269  78.5490799
  54.8603096   2.8639746  78.5071945  56.1611099   2.9298205  77.7361145
  19.5223541  11.9273500  35.0868492  19.4183407  12.1944466  36.0001259
  19.7920208  11.0101719  35.1347694  54.1540985  52.6756859  52.4615746
  53.2887421  52.4853134  52.8237152  54.6333389  51.8508224  52.5400581
  40.5436325  27.3827896  10.6510353  40.6196213  28.0845337  10.0044975
  41.4469490  27.1888657  10.9013195  41.9277802  18.4263039  78.4504776
  41.0103264  18.3776569  78.7190704  41.8931503  18.5735512  77.5053024
  33.8411522   5.8989549  71.8466339  34.1212234   6.4651365  72.5658188
  34.0222893   5.0114303  72.1560211   7.0823560  49.6524277  47.6638680
   6.7074022  49.0141411  47.0570488   7.2926493  50.4087639  47.1161766
  81.4368286  68.2913895  23.3057652  82.0185471  68.7895126  22.7315617
  80.5794220  68.7014999  23.1921692  67.8228912  71.3735733  22.7851868
  67.0185776  71.0259018  22.3999138  68.1928101  71.9335403  22.1026688
   2.5171607  46.6557770  80.4522095   2.5012431  46.3907776  81.3718567
   1.6041653  46.5981636  80.1705093  10.3881388  22.1373825  23.0027390
  10.9143028  22.1104965  22.2035770  10.9534836  21.7563934  23.6746502
  76.0552597  65.0696716  73.3984375  75.4103546  65.7638855  73.2628479
  75.8161850  64.3935165  72.7644882  71.9200897  22.8031845  83.3137741
  71.2938538  23.5256634  83.3594513  71.9293442  22.4379501  84.1985092
  61.2309303   5.0796938  60.3459702  61.0680771   5.1400228  61.2872810
  60.5530243   5.6273355  59.9500351  66.2882156  27.4106712  37.5709419
  65.4925842  26.9255600  37.7897186  66.9599686  27.0395012  38.1429710
  64.4324188   0.9513886  82.8226242  65.3782806   0.8388081  82.9169769
  64.3344650   1.7953721  82.3817978  51.8547096  36.9337234  59.9820213
  52.7683067  36.6710587  60.0941925  51.8714981  37.8891029  60.0386124
  31.5492153  27.7635365  86.7829514  31.5372868  28.7205276  86.7989120
  31.0238400  27.5047951  87.5401001  57.3180656  23.7034302   2.9280026
  57.5397072  23.1269531   2.1967146  56.3915558  23.5315914   3.0961585
  48.5870514  10.4240065  50.7712059  47.6938858  10.6669998  50.5273895
  48.9583740  10.0456791  49.9742012  50.2397385  11.2506647  12.2240744
  49.3127632  11.2459126  12.4626522  50.6987190  11.4060669  13.0495558
  17.8287048  57.0832901   0.5006762  18.2086830  56.2049141   0.5180827
  17.1645241  57.0706329   1.1898309  75.7375336  21.8843555  62.6693459
  75.2528839  22.6961193  62.8189697  75.4210968  21.5690479  61.8227768
  18.5563278  57.9219780  61.9630013  18.0141659  57.7624168  62.7355537
  19.1298466  58.6446724  62.2179947  13.0329828  18.8467522  49.3931313
  12.2175846  19.3385143  49.2955284  12.7606335  17.9983807  49.7428780
  62.5330734  34.0334549  31.2968311  61.6062050  34.2449417  31.1854076
  62.9725113  34.5011292  30.5866146  54.1605606  66.4387512   8.3428040
  53.5553055  67.1705246   8.4628248  54.0382309  65.8964767   9.1220350
  56.5017395  52.4100571  58.8005562  55.9085884  52.2608109  59.5368500
  55.9954300  52.1544418  58.0294914  75.4818420  35.0914192  83.5611649
  75.8846893  35.9563293  83.4845047  76.1906281  34.5229111  83.8622513
  64.9286118  32.5658417  27.1264172  64.0375137  32.9027405  27.0333405
  64.9897995  31.8672028  26.4749641  65.8092422  21.1188164   1.2252457
  65.9676971  20.4497070   1.8911411  66.0722885  20.7054176   0.4029685
   0.2114298  16.5454235  17.0925274   1.1557668  16.5042820  17.2434139
  -0.1291695  17.0381756  17.8391323   6.1604872  32.9040985  47.9173813
   6.4177203  32.6964073  47.0190887   5.7238917  33.7533569  47.8512192
  20.6352024  30.6464844  22.5400734  21.0244026  31.4970531  22.3368778
  21.3773136  30.0422630  22.5605373  62.3579712  23.0179482  51.6945992
  62.6936989  23.6859856  51.0969048  63.0115585  22.3192749  51.6644020
  59.2407341   1.1838690  58.1328278  59.7848625   1.3620908  58.8998947
  58.4251099   1.6550510  58.3030434  47.1815033  66.9865112  85.2738342
  46.8435822  67.5730515  84.5970612  47.7817955  66.4042206  84.8081970
  39.6821404  57.9721031  79.1811371  40.0884056  57.7134781  80.0083618
  39.7595596  57.1977158  78.6238632   3.0556123  66.9201279  63.8373718
   3.2227929  67.8431320  63.6467209   2.8633349  66.9002075  64.7748489
  52.8546524  52.4176750  40.0684547  52.7689514  53.3706360  40.0410309
  53.0066109  52.2173424  40.9920387  43.0634117  53.9822121  64.4146423
  43.8247795  54.3387680  63.9570160  42.9927979  54.5104866  65.2097321
  75.4909592  36.9712791  67.3329544  74.9855423  36.3376503  67.8421783
  76.3923264  36.8557892  67.6336670  55.7684631   8.7714729  21.9060745
  56.5971336   9.0081558  21.4895153  55.7687416   7.8142991  21.9131432
  52.9230537  53.3444328  35.7486687  52.7689819  52.7657814  35.0019073
  52.6487961  54.2088585  35.4424286  52.2818146  50.4772835  81.5863953
  51.7583771  50.3484840  80.7954102  52.9809608  49.8269424  81.5194702
  82.2298508  70.8067551  29.0844555  81.4558716  70.8142242  28.5213184
  81.9813156  70.2546616  29.8258419  68.3379364  12.1080418   6.5382795
  69.1525803  11.6750879   6.2830644  67.8468170  12.1950645   5.7212977
  83.4651337  10.2402925  52.1257401  82.8321304  10.8947201  51.8303413
  83.8825989  10.6385279  52.8895264  78.5977554  18.6924725  81.2345428
  78.0600204  18.3139496  81.9300919  78.0713043  19.4141636  80.8906784
  15.0921144  14.0254612  81.6059799  15.4626904  14.5257454  80.8789215
  14.9602537  13.1469240  81.2495880  70.4545517  30.6640511  26.8554802
  70.0883179  31.4805107  26.5156307  70.0296631  30.5463085  27.7050877
  21.7744255  32.3681221  24.9375496  22.4694366  31.7374268  24.7493591
  21.7220497  32.9090271  24.1495724  24.3528728  49.6914597  21.6614532
  23.6177235  50.0448723  22.1623402  23.9603138  49.0244637  21.0982037
  83.2504272  26.9243412  31.3039761  83.2872314  26.1691189  30.7170219
  84.1578522  27.2221336  31.3683033  26.7356071  19.1869011   9.3685789
  26.2319832  20.0003548   9.3983803  26.2913876  18.6073666   9.9874821
  84.5798950  58.4723206  29.1651573  84.4558868  57.6699333  29.6721382
  84.5897293  58.1805420  28.2535648  53.7305489   0.6816574  84.6410446
  53.2635880   0.9408321  83.8466797  54.5517578   0.3055507  84.3241959
  40.2740784  -0.2125001  20.3282547  39.6357651   0.4718871  20.5292511
  41.1228333   0.2254526  20.3918533   6.6099634  30.2089233  44.4505386
   6.6638989  29.6100368  45.1952934   5.7500763  30.6206417  44.5360565
  86.6252594  46.6684456  81.6215286  85.9168396  47.3061218  81.5335541
  86.3210754  46.0644493  82.2989502  39.2371140  18.1682243  32.0185776
  38.5707626  17.8804817  32.6426086  39.9141273  18.5730591  32.5607910
  62.2124252  39.4017334  66.6815948  62.1779022  39.2204208  65.7423553
  61.7371178  38.6745720  67.0835266  17.8171253  34.3041267  12.7877970
  17.5424366  34.7546730  13.5864115  18.5063877  34.8599701  12.4242163
  82.9110641  12.4430914  54.6190491  83.7624283  12.0149088  54.5292130
  82.4714508  11.9579248  55.3173218  37.8598480   2.2750983  35.7358475
  37.9910278   2.7613018  36.5498695  37.3458443   1.5099978  35.9940262
  84.1144867  49.8316307  86.2291183  84.1137314  50.3131332  85.4018402
  84.5079956  48.9860573  86.0137329  44.4276848  36.8167725  87.9264526
  44.7898064  37.3261604  87.2014542  43.4914818  36.7601433  87.7352753
  70.8291626  61.1317291  33.8283958  70.4431458  60.7893829  34.6346359
  71.6577606  61.5220146  34.1064835  53.3699074  64.5225525  35.0012627
  54.0533943  64.4968109  34.3316231  52.5507851  64.5470276  34.5066223
   2.0415628  55.3570328  38.6445732   2.2324531  54.4485893  38.4110565
   2.8441670  55.6709824  39.0611000  70.7069321   9.3076859  13.1081867
  70.7360764   8.5038719  13.6270943  69.7858047   9.5676947  13.1208868
  85.4463654  32.3188782  46.5636368  86.2501450  31.7993507  46.5472336
  84.8986588  31.8919811  47.2224312  51.5532990   3.4675596  68.1816330
  52.1565552   3.8589551  67.5498657  51.5136757   4.1003633  68.8987198
  78.8700333  46.4727898   6.0059385  79.6099854  46.2747841   5.4319234
  79.2247925  47.0835342   6.6519780  66.8049469   3.7511563  72.4465408
  66.7844086   4.3745933  71.7204971  66.6748505   4.2888470  73.2276917
  17.0539074  56.1249046  33.2200394  16.8757858  57.0046616  32.8875771
  17.9692249  56.1548538  33.4984779  83.1783752  36.4093628   7.1277885
  83.9532623  35.9281540   7.4179945  82.4877625  35.7479553   7.0850930
  84.2707901  34.3389244  33.9709969  84.0721359  35.1959229  33.5937424
  84.8170013  33.9084854  33.3132706  48.0675850  45.1423950  31.0501194
  48.4918022  44.2982292  31.2039337  47.8350182  45.4563293  31.9239559
  61.7448044  46.0127487  79.3231201  62.4714546  45.5267754  78.9331970
  62.0954323  46.8913002  79.4695435   1.3321354  54.8173523  67.8376770
   1.5090288  54.2749519  68.6062698   0.3771074  54.8595772  67.7889938
  73.5485306  16.2744770  14.4628372  73.7851944  15.3786850  14.2224598
  72.5946198  16.2576065  14.5402975  36.3481064  47.8751068  80.2819061
  36.4162903  47.9652557  79.3314056  36.4376755  46.9353790  80.4404068
   2.6093369  39.4241447  81.6811142   3.5661464  39.4248047  81.7084503
   2.3442669  39.2171097  82.5772781  29.1148472  63.5670547  60.2293587
  29.4400063  64.4282532  59.9669876  29.8396854  63.1757011  60.7168846
  21.7190838  36.5981865   0.7239186  21.7276554  37.2291107   0.0041313
  21.6286736  35.7470894   0.2953298  19.5061340  11.9692135  37.8292465
  19.7280540  11.0496674  37.9755974  18.8449192  12.1646309  38.4932022
  31.8562927   5.7414055  87.2565918  31.4230137   6.5245914  86.9172974
  31.1825256   5.0622354  87.2249756  26.1009274  40.2251358  80.9681320
  26.1369171  39.6570435  81.7376785  25.2641048  40.0145302  80.5538788
  18.0761032  18.0258408  17.1014118  17.4846668  18.7365265  17.3491192
  18.9386330  18.4380302  17.0526905  25.2934132  49.2395706  87.3759079
  24.3542709  49.0595169  87.3331833  25.6880417  48.3992157  87.6089478
  27.0483627  51.0803452   2.3174298  27.9231644  51.1713829   2.6951435
  26.4773312  51.5601959   2.9173460  71.3467178  52.8794022  76.2736130
  70.8268127  52.5308723  75.5494232  70.7664261  52.8250961  77.0329208
  20.1926403  59.8072128  49.1544685  19.3611908  60.2537537  48.9947052
  20.4064655  60.0171890  50.0635452  25.5752258  61.4825439  25.9284630
  26.3492165  61.2834587  26.4552803  25.8778400  62.1325645  25.2943306
  30.9549828  53.1115303  47.9312248  30.1724167  52.6794357  48.2734489
  30.7801208  53.2182503  46.9962044   3.4541388  54.3122749  12.9601698
   2.9740889  53.6800346  12.4253235   2.9658365  55.1295586  12.8609848
  65.2556992  46.3022842  35.7340393  65.7864914  46.8639946  36.2988167
  65.0719681  45.5299950  36.2688751  57.2070198  47.6142273  43.6516685
  57.4511108  46.8773804  43.0915718  56.3555260  47.8968811  43.3180618
  40.1524544  27.8227940   6.2917614  40.6642647  27.0460567   6.5175076
  39.5492058  27.5228367   5.6118002  64.7068710   9.2213955  28.1989212
  64.1637802  10.0045404  28.1096439  65.5866623   9.5112677  27.9577351
  75.6725235  70.7546997  67.0869141  75.3696442  69.9361572  67.4799652
  75.0399628  71.4101028  67.3810959  58.1760445  44.0582123  79.0452881
  57.2720413  44.3698082  79.0015259  58.1552162  43.3528557  79.6920319
  73.2351685  41.3502426  80.9937820  73.1335449  40.5589333  80.4648819
  72.3995285  41.8081207  80.9027481  50.3261337  28.5004139  76.2621231
  49.5739136  28.4944363  75.6702042  50.3444176  27.6190624  76.6351089
  28.6545506  66.1307755  21.6800842  28.3055515  66.6246567  22.4220486
  28.6761456  66.7621613  20.9609737  65.1376877  21.7653503  15.9689341
  66.0501862  22.0540924  15.9830656  64.6312485  22.5647869  16.1126461
   6.0977068   6.1630888  39.1145630   5.5960574   6.8997226  39.4637756
   6.9364033   6.2052307  39.5739594  76.3863220  63.9442940  32.9675560
  76.8182144  64.0572357  33.8142815  76.7686462  64.6229630  32.4112549
  11.4730816  50.2256889  47.5361099  11.3741484  50.1961212  48.4877243
  10.5852032  50.1058159  47.1991615  44.2324715  66.8211136  65.8311996
  44.4599915  66.6362610  64.9199905  43.2761688  66.7849350  65.8513641
  21.1442547  59.0911102  65.4044876  20.2363548  59.3859329  65.4753723
  21.1481209  58.2266006  65.8153915  22.7700844   4.9471211  23.3672047
  22.7495117   4.9593973  22.4103050  21.9898453   4.4521947  23.6172180
  77.2314072  13.1491632  37.6169510  77.9194870  13.7978373  37.7652969
  76.4185944  13.6107855  37.8230476  81.2510605  54.5149002  26.8105068
  80.9092255  53.9642601  27.5149078  80.8125610  55.3572197  26.9307003
   2.2922785  19.9278717  50.6710205   3.1630573  19.8597336  50.2794456
   2.3819928  19.5118370  51.5284004  33.7442284  62.4523048  15.1102695
  33.0757751  62.0288696  15.6488829  33.8233566  63.3335037  15.4755878
  79.8172684  11.0510178  14.1058397  79.3308563  11.7884779  14.4743328
  79.4798355  10.9629965  13.2144232  12.7576332  63.4546280  45.3208656
  12.4155340  62.8315086  45.9618988  13.4322176  63.9403954  45.7954178
  66.6915283  63.7420578  28.3289185  66.1704559  62.9663239  28.5361691
  67.5143890  63.6107178  28.7999668  33.5282745  26.5746899  32.2437668
  33.7870064  26.3962498  31.3396397  33.9927139  27.3801517  32.4712791
  52.4899521  64.1867828  76.4081802  52.1478806  63.8159637  77.2216415
  53.3443642  63.7701683  76.2957230  77.1693344  14.5921535  46.2639313
  78.1136551  14.5464325  46.1142426  76.8400269  13.7399578  45.9783630
  39.1227531  32.9053268   5.2604899  38.3620300  32.6102753   4.7600131
  39.1507416  32.3227577   6.0194793  13.6838531  32.4448509  22.4550343
  13.9232388  32.0125694  21.6352425  13.5397797  33.3590240  22.2105732
   6.1184506  11.0501108  72.7041245   6.3739886  10.8762970  71.7981873
   6.6009631  10.4022217  73.2175903  33.8037186  10.2241716   0.7067873
  33.5596352   9.8935108  -0.1576892  34.1256485   9.4542294   1.1755949
  52.1166763  23.7922039  77.2297821  52.2118530  23.3293476  78.0622101
  53.0150185  23.9528084  76.9409561  72.5795822  17.3578815  -0.0449507
  73.0464630  17.8801956   0.6073061  71.8457260  16.9748058   0.4356128
  44.8959656  60.9682388  63.8005180  45.4326591  60.9938087  63.0083427
  44.6125603  61.8737106  63.9271469  52.7088051   1.3503901  16.3850956
  52.7297707   0.4246268  16.6274891  53.2638664   1.7808626  17.0353508
  47.6652832  25.5200214  17.3273315  48.1081123  26.3422489  17.5372791
  46.8636093  25.5394936  17.8499889  36.8128395  39.9742775  22.2582016
  37.2188148  39.5760536  23.0281582  36.1396675  40.5536880  22.6150627
  18.9110851  67.5185776  46.8508301  18.3924026  66.7636108  47.1287270
  18.3519268  67.9749832  46.2221260   4.5486479  30.3828926  47.5903587
   5.1868587  31.0128670  47.9250984   3.7011025  30.7292786  47.8694878
  48.6845589  57.0223083   2.6043341  49.1651840  56.7153244   3.3730950
  47.7663612  57.0078583   2.8743956  24.9650707  24.9102383   4.8912125
  24.5924835  24.0948696   5.2267499  25.5946503  25.1790390   5.5602465
  71.8850174  32.8679733  54.7844353  71.0696716  33.2700272  54.4847641
  72.0213623  33.2275810  55.6609726  55.6593590  65.0221558  28.3342075
  56.3557854  64.3841858  28.4898376  55.9667664  65.5346985  27.5865231
  53.3997650  43.9059181  13.9462004  52.8485794  44.2455711  13.2411747
  52.9161377  43.1534424  14.2869616  39.3203011  67.3411255   8.9306250
  39.5713348  67.9460907   8.2326078  39.5138474  67.8150558   9.7394285
  14.5713234  34.2720490  84.9286652  13.8120203  33.6895905  84.9078217
  14.8485489  34.3369598  84.0147858  20.0582886  19.6915359  82.9472656
  19.2950363  19.1306782  82.8089981  20.7932949  19.1853848  82.6011276
  15.2654934  22.8745098   4.1274033  14.9518366  22.5443993   4.9693522
  16.1473961  23.1983986   4.3106365  80.8107681  55.5371361  42.5386353
  80.5629807  54.6392326  42.3181686  80.3475800  56.0774536  41.8985252
  49.1427383  55.5620270  17.3988304  49.5578880  54.7700691  17.0572281
  48.4722595  55.7793961  16.7511902  70.3830719   7.1491342  29.5016842
  70.6897812   8.0472918  29.6260815  71.1822662   6.6224470  29.4909649
  67.1841888   5.5686669  40.7888145  66.2935333   5.8620205  40.9809380
  67.3935394   4.9592223  41.4966164  54.6570625  24.6678295  56.1203156
  54.4515495  23.7341595  56.0728378  55.3952103  24.7200241  56.7274780
  77.2817230  56.2245674  48.9534073  77.5613708  55.3127213  48.8723526
  76.4854126  56.1846962  49.4830704  29.5580921  62.9041367  10.6565342
  28.8916874  62.3115273  10.3087511  30.2544975  62.3255653  10.9671879
  37.2773361  11.5781364  85.0232315  37.8176384  11.2201939  85.7276382
  37.6193008  12.4612970  84.8842468  39.1078148  15.0685940  68.0317154
  39.5276527  15.9281559  68.0652237  39.0538139  14.7925863  68.9466705
   0.9673831  18.6568890  48.5459518   0.2762273  18.0639019  48.8407440
   1.2999698  19.0556183  49.3500862  46.8480263  50.8568764  24.6683884
  47.3042336  50.0206909  24.5740776  45.9866905  50.6221733  25.0137100
  77.5703735  69.4465179  82.1463318  77.7393646  69.1763000  81.2437515
  76.6257477  69.5978546  82.1781616  81.0162125  26.2591515  79.8525696
  81.0497589  25.5425568  80.4862900  80.0978699  26.3001308  79.5857544
  47.1632729   1.7208488  61.5956078  47.8568497   1.6980612  62.2548981
  47.5911179   1.4364997  60.7879410  79.6157913  15.1302595  24.8751793
  80.4952545  14.7545204  24.8351803  79.0606461  14.4093828  25.1724644
  37.4733467  24.6457710   3.3038580  36.7309799  24.1057186   3.5749021
  38.2221184  24.2756596   3.7713954  71.9047699  49.3876381   4.9578023
  71.1707535  48.7941399   4.7990403  72.3793030  48.9915352   5.6886621
   7.2510009  60.4436150  33.6403503   6.9936228  61.1102409  33.0034828
   7.0902667  60.8508568  34.4915543  36.0630226  22.0127010  74.9369049
  35.8280869  21.2400913  75.4508209  35.4312515  22.0232716  74.2178879
  52.4742393  57.2311325  28.3555698  52.9773712  56.4172173  28.3304176
  51.5693550  56.9581223  28.2043037  68.4021988  54.2372169  49.3004074
  67.7147293  54.1265259  49.9571838  67.9532471  54.1250725  48.4624977
  77.1091843  38.6671753  36.8499374  77.0955887  38.2492332  35.9889107
  76.1865692  38.8083496  37.0622482  72.5582275  68.0884705  44.8926964
  72.7479401  68.2239609  43.9643173  71.6547470  67.7727432  44.9089394
  79.1913986  13.8658419  59.0500412  79.6759262  13.8554964  59.8754845
  78.6750870  13.0599747  59.0652695  15.3060675  46.3644562  67.0388031
  15.7935715  46.9570847  66.4666519  15.7222652  46.4620781  67.8952408
  74.9854813   4.6009951  84.4284210  74.5183640   5.0747128  83.7402191
  75.4150543   5.2856269  84.9412384  60.1731834  21.7568645  44.6806107
  60.0748177  21.5931454  45.6185608  59.3340874  21.4940929  44.3023186
   1.7102000  47.3507881  67.3245697   2.5733700  47.6138916  67.0052872
   1.7918549  46.4114037  67.4892731  36.5837364  27.1533813  30.9205532
  36.2035294  26.2775059  30.9877338  36.0445328  27.6935062  31.4982700
   6.9918413  20.6479950  51.1312180   7.8549356  21.0314445  51.2869949
   7.0404425  19.7789268  51.5294495   7.9361167  54.2979012   1.6474860
   7.4893928  53.5929909   1.1786844   7.4511461  54.3846855   2.4681587
  22.7964039  49.9211693   9.2772093  23.4108734  49.6088943   9.9413948
  22.0454121  50.2409744   9.7771749  85.4861603  40.6844215  79.2443008
  84.7333145  40.2717247  78.8210449  86.0278778  39.9515533  79.5370026
   1.1067907  69.5650482  80.4783478   0.9591911  70.2958832  81.0786133
   1.2386075  69.9786606  79.6252518  82.8365707  66.8055573  89.1501389
  83.4752502  67.1494827  88.5256119  82.2686615  66.2411194  88.6256180
  74.7025146  70.4910049  82.8675156  73.8129272  70.8170624  83.0037613
  75.0085449  70.9497681  82.0851440  14.6099129   7.5182886  42.1917915
  15.2870960   6.9064884  41.9030800  13.8518219   6.9650512  42.3800926
  80.2450867  31.7834206  69.5264435  81.0170441  31.9376373  70.0709839
  80.1790771  30.8302307  69.4689407  14.7241068   2.8785419   0.4975709
  13.8096695   2.5979061   0.4617965  15.2187195   2.1248121   0.1758857
  75.8629913  56.2161789  12.6471806  75.1268311  55.6556702  12.8924026
  75.5819321  57.0992203  12.8869267   7.4588852  23.4260235  87.8785019
   6.7565274  23.6665516  88.4827194   7.3791628  22.4768162  87.7842636
  74.3975677  26.5707035  15.4263954  75.0663452  27.2545185  15.3893986
  73.9325409  26.6451569  14.5930691  84.9784164  18.2702942  85.6388931
  85.4736176  18.6398659  86.3699417  85.0173950  17.3239555  85.7772980
  84.7210007  43.7971840  20.6528511  84.4541626  42.8815422  20.7342701
  85.5850525  43.7592964  20.2427082  11.9957132   9.5654984  51.0369492
  11.9001160   9.1774740  50.1671638  12.8073626   9.1904087  51.3786583
  59.1323242  63.3823051  16.2442188  59.2072601  62.4299011  16.1847076
  58.9847641  63.6677513  15.3425674  53.4203415  58.6821175  43.2969666
  53.8275261  59.3608780  42.7587128  53.3637390  57.9206085  42.7197914
  55.4734802  21.7405605  80.3453140  56.0804062  22.3590164  79.9386368
  55.7927246  21.6467342  81.2428131  56.7089462  45.9278069  68.0444717
  56.9237289  45.4069786  67.2706223  56.1929321  45.3382187  68.5943298
  56.3106079  29.2837620  68.1675873  55.3860168  29.0826912  68.0228882
  56.3848534  29.4009781  69.1146774  56.1809921   8.2047853  76.5569229
  56.0352898   7.9851141  75.6367340  55.9436150   7.4093504  77.0335388
  66.0223465  52.6001854  60.2692680  66.7139206  52.6623192  59.6104050
  65.5956726  51.7622299  60.0903511  61.3580132   7.1707730  10.4456539
  61.4788971   6.6634903   9.6429806  61.0474205   6.5325413  11.0878563
  45.9556198  10.0226526  47.3255768  45.9006653   9.8125858  48.2578239
  45.1628647  10.5284643  47.1468964  74.8740997  67.5939255  82.0271225
  74.3964615  68.2495346  82.5353241  75.1796875  66.9622345  82.6781311
  73.5211105  48.7281456  28.4712849  73.9750519  49.2661476  29.1199207
  74.1817627  48.1022263  28.1746445  46.6151924  36.9429016   9.6735067
  47.1118546  36.2365456  10.0865707  46.5898819  36.7073364   8.7460909
   1.8035257  17.6862926  60.8417397   1.9090420  18.4250679  61.4411621
   0.8573716  17.6122589  60.7170677  38.8572044  46.5801811   4.3571663
  39.6236877  46.4430504   3.8004520  38.2346764  45.9091454   4.0771632
  65.7103119  45.3070602   9.2607012  65.7414703  44.6605606   9.9658976
  66.1403732  46.0804443   9.6256104  23.9482040   8.1976328  74.7383804
  24.5233612   7.4391303  74.8388748  23.6803169   8.1750402  73.8197098
  28.8911819  35.3327522  18.6452866  29.1095905  34.8393135  19.4358845
  27.9623489  35.1529999  18.4997101  45.5219269  67.1531219  69.5661774
  46.2755127  66.8162079  70.0507660  45.0882568  67.7461395  70.1797714
  68.9900208  57.7402458  78.5568924  68.5565491  58.5924835  78.6018982
  68.9556198  57.4063950  79.4533234  59.3498955  50.2297173  45.1070099
  60.1418724  50.5010376  44.6429100  59.4232101  50.6425743  45.9674759
  79.2191391  49.9470596  38.4132767  79.0107880  49.1041183  38.0104446
  78.3951950  50.4336929  38.3902626  23.3201981  55.6359024  30.0942154
  24.0937881  55.8936882  30.5955524  22.9478149  54.9049187  30.5873909
  19.4249973  24.0066261  24.6699028  18.7087955  24.5319424  25.0267391
  20.0588017  24.6498966  24.3525295   8.6267500  50.6767616  64.6973190
   8.2794018  51.4711227  65.1029968   9.3080311  50.9899139  64.1023178
   8.3308554  10.6176758  83.2538605   7.4330864  10.9343863  83.1541748
   8.7613125  10.8555260  82.4326630  22.1448250  57.0201988  71.5164719
  21.2744045  56.9932556  71.9138031  22.1162720  57.7746544  70.9280701
  31.9219303  32.0852013  24.0121059  31.9665489  33.0271912  23.8481236
  32.8262558  31.7838154  23.9249592  68.8776398  38.6426773  42.1770744
  69.6619644  38.5977783  41.6302223  69.2126083  38.7217636  43.0702553
  28.2843037   2.4635191  26.0932426  28.9526787   2.2008133  26.7260876
  27.5797195   2.8302758  26.6273613  83.2556305  39.6972885  81.8491974
  82.5437012  39.1790771  81.4738998  82.8400192  40.5170593  82.1165390
  24.8795414  19.5648232  22.5175343  24.1179581  19.3388271  23.0515251
  25.4903679  19.9721050  23.1317368  18.2227325  14.2828093  63.9593163
  18.3448086  14.6883907  64.8177109  18.7257919  13.4697361  64.0048599
  81.7926102  68.4283752  75.8765488  81.1714096  67.7191010  75.7113953
  82.5694122  67.9903030  76.2242584   7.1639142  62.3956375  86.4952011
   7.5082221  63.2654800  86.2925797   7.1071124  61.9568367  85.6464081
  71.4709473   0.8278831  55.4360008  71.9912643   0.0459401  55.6205750
  70.5701828   0.5087484  55.3811569  68.1213608  64.1405640  41.9017296
  67.2357178  63.7823677  41.9614487  68.6768112  63.4748993  42.3074341
  57.4708405  58.0935249  42.6396446  56.9490051  57.6493034  43.3079185
  57.3939934  57.5355682  41.8656883  22.8740196  16.8100891  23.5167770
  22.3508224  17.4688988  23.9733562  23.0320969  17.1873817  22.6513901
  11.4541779   2.7530050   5.4686456  11.4823799   2.8655403   4.5185022
  11.7993670   3.5748112   5.8175168  81.5583115  14.2726030  18.7077389
  80.7351456  14.1589928  19.1828346  81.2944107  14.3825865  17.7942352
  86.3552628  16.9733849   1.0661370  85.5038910  16.6470642   1.3575289
  86.1449203  17.6506367   0.4232383   6.2309504  21.2303410  44.6651154
   5.9416680  22.1422348  44.6966896   6.3860512  21.0603027  43.7359962
  74.0607986   9.7555113  50.9793777  74.0041122  10.6618004  51.2821274
  73.7909012   9.2333050  51.7348175  69.8050537  12.3070898  77.9265518
  69.3629379  13.1557064  77.9017410  70.6704865  12.4769297  77.5545044
   7.7890406  26.4854660   7.6702127   6.9846864  26.3620796   7.1662073
   7.7090454  27.3658848   8.0372190  69.3051987  56.1474075  88.6732330
  68.6556549  56.1949081  87.9717560  69.2632980  57.0047112  89.0969162
  11.1351624  25.6570034  86.8754425  10.4277039  26.3015556  86.8585587
  10.9144745  25.0782013  87.6051788  70.6552887  54.1088295  17.3350239
  69.9291992  53.4992409  17.2029743  70.8807373  54.0158730  18.2606373
  68.0679016  16.4136600  86.8000793  68.7157974  16.9046192  86.2946854
  68.1033020  15.5279970  86.4387207  70.7631378  67.8119049  63.7450714
  70.1203613  68.1082382  64.3894806  70.2755356  67.2150497  63.1774063
  43.2616463  23.4613190  82.7265320  43.9035835  24.0016251  83.1872101
  43.1958008  23.8564568  81.8571854  34.8543053  47.1586113  24.3245888
  34.5787201  48.0658226  24.4559383  34.3233070  46.8509560  23.5900002
  57.1257629  44.2302322  35.6811180  56.2798805  44.6386642  35.8652382
  57.6639862  44.9408112  35.3323708   1.2314886  22.3633862  81.3056717
   1.8138568  22.2130089  80.5610428   0.6779577  21.5831432  81.3382111
   0.6684371   6.3430371  60.9442673   0.4198471   5.4706612  61.2498741
  -0.1569335   6.8258619  60.9009628  59.8015633  21.0999470  58.6606216
  58.9427681  20.8328342  58.9882698  59.9763680  21.9330883  59.0982857
  56.3440323  66.4386368  85.4340210  56.2340393  67.1982651  86.0059509
  56.9514275  66.7350998  84.7562256  86.6892014  58.2529907  76.4395294
  87.1568680  57.4182243  76.4133759  85.7710648  58.0095444  76.5578232
  76.3212967  55.9818153  31.9932861  76.2122040  55.2691917  31.3636055
  76.5802689  56.7341156  31.4611130  78.4612503  32.3617058  59.6591034
  78.3936768  31.5024281  59.2428055  78.9783478  32.2050514  60.4492302
  64.1254272  53.3105392  57.1643486  63.4174271  52.7505608  57.4827728
  63.7444420  54.1883392  57.1409531  62.6407776  23.2634068  25.0105534
  63.4968719  23.6605930  25.1704750  62.8411026  22.3922367  24.6682587
  23.3177261  33.9919319   8.3098927  22.5036564  34.2171440   8.7602291
  23.0731239  33.2857628   7.7117934  58.9508362  52.8527451  75.0328064
  58.4615059  52.0536690  74.8371964  58.6133347  53.4983253  74.4118729
   3.0367248   9.2807674  47.3456268   3.6479504   9.9059334  46.9560089
   3.4282804   9.0574942  48.1900597  51.5103302  26.9836807  55.6930733
  51.7344856  27.4966812  56.4694862  51.2358971  27.6344776  55.0470200
  44.5943375  60.5347595  46.3614807  43.6740685  60.3220367  46.5166931
  45.0511055  60.1993141  47.1328926   6.1215382  62.7806625  31.9914341
   5.6056662  62.7661247  32.7975960   5.9656506  63.6502457  31.6229782
  73.8994751  18.9671650  30.5661182  73.3496323  18.5222626  29.9211655
  74.3769913  19.6250076  30.0606956   6.4690318  71.2216644  67.6036148
   6.4515562  70.8059692  68.4656601   7.3632183  71.5514832  67.5148315
  31.9977455  27.2599640  10.6222744  31.6835175  26.7062836   9.9074793
  31.3798847  27.1029015  11.3362856   7.3485923  52.1551094  12.6728115
   6.8281541  51.6266975  12.0677013   7.3477712  51.6550903  13.4890308
  21.3621292  71.4330139  33.0846291  21.5521431  72.3459473  33.3006973
  21.7169380  70.9339142  33.8203239  41.5277100  65.6373901  47.0887909
  41.3873215  65.6538467  46.1420860  40.6702843  65.8423691  47.4616699
  17.1826458  58.4774628  50.2433395  17.6738014  57.8347168  49.7315979
  16.7661762  59.0374870  49.5882339  55.3968658  44.1025162  79.4077301
  55.0857048  43.2842369  79.0206528  54.6314583  44.4613419  79.8567581
  36.8207207  15.5440855  87.3415909  36.0468063  15.9159365  86.9184875
  37.5579796  15.8882179  86.8373489  58.3048019  44.8119164  23.2546577
  58.9649315  45.1427460  22.6455460  57.4811630  45.1857643  22.9414673
  20.6666927  60.0770874  56.2233238  21.4603062  59.7576332  55.7939568
  20.5872612  60.9860992  55.9341507  41.2948189  67.3788300  35.8171768
  41.6151123  66.8662262  35.0749664  40.6979027  66.7880936  36.2764664
  63.2329636  51.2566795  13.4891815  63.3166428  50.7784729  14.3141365
  63.2053032  52.1777992  13.7480297  59.6797104  20.3816738  19.7557888
  59.4571304  20.5324993  18.8371239  58.8454895  20.4546642  20.2194500
  23.9540825  57.1296425  65.3686905  23.5721664  57.0370369  66.2415009
  23.8240490  56.2746658  64.9584122  32.0283089  66.8634872  33.5444183
  31.1276550  66.6354904  33.3140450  32.0513458  66.8124924  34.4999809
  64.2341232   0.3222311  30.1227875  64.0024567  -0.5403046  30.4671631
  63.3929787   0.7416544  29.9417095  35.7731705  23.4026871  15.7870407
  35.2803574  23.4470348  14.9676504  35.8491707  22.4663010  15.9704466
  55.3540459  16.1901932  84.6414337  54.6582298  15.6381302  84.2846375
  55.8186607  16.5176258  83.8712692  16.4724445  11.2293081  68.1699524
  16.7133484  10.3029604  68.1787033  16.4219074  11.4548807  67.2410812
  20.1197853  39.2028046  13.0702200  19.9815903  38.4548302  12.4891281
  20.5142956  38.8255539  13.8565245  16.6113338  36.0471001  30.7903900
  16.3385334  36.9529991  30.6449318  17.5311871  36.1122322  31.0470238
  80.2536697  26.3971653  47.5495529  80.6794815  25.6332188  47.9385338
  80.7463074  27.1445198  47.8886681   9.1438932  69.9130707  88.2699280
   8.7459202  70.4421768  87.5786285  10.0637045  70.1779404  88.2747726
  74.4378052  28.0590057  19.4928913  73.8690262  27.7837219  20.2118797
  73.9901352  27.7547894  18.7034111  21.5230446  41.6798859  63.8472137
  22.0907269  41.1046524  63.3343010  21.0239944  41.0859489  64.4079437
  12.9974899  12.5385513  38.4837646  13.7464714  12.8432970  38.9960022
  12.9150581  13.1780176  37.7762909  36.9985390  43.1070328  33.1811066
  36.5755730  43.9597893  33.0804329  37.8668633  43.3099518  33.5290565
  61.2687035   1.2090954  29.6635590  61.2225571   1.1145948  28.7121525
  61.6408882   2.0803659  29.7999363  72.4048843  30.0295391  21.7014160
  72.0799561  30.8675537  22.0306396  71.6230011  29.5772324  21.3846931
  35.3248062  71.2656860   7.6110363  35.3621941  71.2179794   8.5663157
  36.1302452  70.8393478   7.3182306  79.8821411  46.1833611  71.4599304
  80.3368454  46.4649773  70.6660995  79.3692017  45.4232941  71.1852798
  40.9032097  11.3123512   6.2344680  41.3768425  10.9231825   5.4993138
  40.0378036  10.9044094   6.2047224   1.2597861  56.9828568  83.7058792
   0.8188017  57.4131165  84.4384384   2.0321577  57.5234795  83.5403442
  16.0927906   0.5072872  29.6968441  16.1507931   1.4387915  29.9093704
  16.1292171   0.4770217  28.7408161  46.6624680   2.8817248  66.1814804
  47.4334030   2.9167902  65.6152115  46.5595703   1.9529150  66.3887329
  18.5083656  51.9319000   2.3165951  17.6732292  51.4879608   2.1692948
  19.0162029  51.3172455   2.8462472  63.8911819  40.7610970  27.2359028
  64.3989639  41.4644737  26.8313599  63.0142784  40.8540611  26.8635654
  17.7347355  53.3173981  43.5612640  17.6316147  54.2641296  43.6576767
  18.6079655  53.1350098  43.9083061   6.2845187  21.3353481  80.5182114
   5.4455647  21.7771034  80.6495132   6.4846439  21.4716873  79.5921478
  73.4483261  50.0604744  67.6055603  72.8214340  50.6274490  68.0547638
  74.2844772  50.2399864  68.0355072  81.1957550  20.5247784  78.5624390
  80.7803421  20.8822403  79.3472290  81.1796951  21.2459984  77.9333038
  26.4842243  48.4956589  34.8336258  27.4365749  48.5802689  34.8794479
  26.1837196  48.6873360  35.7219887  57.4822578  63.2151680  44.5451088
  56.5662117  63.3171349  44.2868538  57.4886932  62.4372978  45.1028824
  31.5389519  41.8987198  19.6865444  31.0073738  42.5491142  20.1455021
  31.7490196  41.2463684  20.3547802  74.1491394  20.4826527  84.9728317
  73.3478546  20.8639717  85.3316650  74.1303787  19.5702457  85.2616043
  31.3847733  56.9528236  65.7155380  31.8155479  57.1753769  66.5408478
  31.7282333  56.0878525  65.4917297  68.9062195  38.6801567  26.9734268
  69.1583405  38.1769676  26.1991749  67.9568481  38.7762566  26.8979359
  18.7776356  51.6644669  62.8296776  19.6957054  51.8288422  63.0449905
  18.4620934  51.1037598  63.5383873  70.7405243  52.0110512   7.1957488
  71.4004440  52.7039299   7.2213478  69.9926376  52.4089432   6.7501311
   2.2220073  53.8415184  71.0671997   2.4283683  53.0081673  71.4904938
   3.0060511  54.0534859  70.5606689   9.9823303   5.6641340  78.0567017
   9.4807291   6.4343066  77.7893753  10.0154409   5.7195106  79.0117264
  23.5149918  12.0652122  84.1203232  23.2556953  12.7306824  83.4830246
  22.9986801  12.2668648  84.9007034  82.2444305  18.6611614  85.9055557
  82.1482162  17.7889881  85.5230789  83.1861115  18.8310242  85.8807449
  35.2175255  43.8956223  36.8378677  35.2399445  44.8520737  36.8682785
  34.3262215  43.6683922  37.1027603  72.3501968  28.5885868  74.6518402
  72.9608154  28.5820637  75.3889465  71.6015396  29.0959015  74.9654999
  47.0001526  36.7570686  76.5160370  47.5796890  36.8930473  75.7664490
  47.5153008  37.0401077  77.2715149   5.4727073  11.4209347  13.5595646
   4.6336274  10.9636869  13.5038795   5.8097053  11.1982307  14.4273586
  28.9881172  38.9781761  74.2624893  29.3051739  39.7026787  73.7232285
  28.9392548  39.3413200  75.1467819  23.6421776  59.6120338   2.4930208
  23.0616169  59.9526901   3.1735592  23.2543812  58.7726440   2.2454901
  62.6995316  23.4930077  80.6409531  62.2628746  24.1181622  80.0623856
  63.4525528  23.9722290  80.9866943   8.0320253  63.8494949  15.3519983
   7.4364104  63.6430054  14.6316957   8.9038887  63.6667328  15.0017357
  61.7180824  34.7342224  44.2867088  62.0814629  35.3950157  43.6971855
  61.4712067  34.0099640  43.7116127  48.9291725  26.7896271   6.0340190
  48.0042076  26.6278572   5.8482780  49.1013908  27.6531372   5.6586189
  43.2565117  68.5856400  57.1941032  42.3201981  68.3932877  57.1435966
  43.6813622  67.7323303  57.1069641  75.3558731  36.2319679   4.3764291
  75.9049606  36.8451042   3.8877544  75.6689606  36.2967529   5.2786541
  12.8298521  52.8663635  44.7533798  13.5555210  53.0569153  44.1589661
  13.1907883  52.2372742  45.3780441  69.4048309  34.2028732  85.1176376
  69.2385712  33.2648888  85.0239792  69.1893158  34.5710526  84.2607651
   2.2752528  36.7482796  17.2462120   3.2240257  36.6476936  17.3233128
   2.1265371  37.6900177  17.3313198  82.6426544  13.1613121  36.0017052
  82.0772324  12.7612934  36.6623955  82.5925674  12.5677299  35.2524490
  46.7757225  58.0148506  41.3848724  46.4445152  58.1614380  42.2709045
  46.1307716  58.4345970  40.8155899   1.5107229  15.8256960  67.1987000
   1.4918979  14.8921766  67.4094543   2.4411190  16.0504398  67.1894836
  44.1955338  50.9436035  22.3488808  43.5162544  50.4904671  22.8483543
  44.7499237  50.2420082  22.0073338  13.8887768  54.0807495  68.9262161
  13.9646292  53.8488922  68.0006256  14.7887907  54.0645943  69.2517090
  35.7492104  36.6428757  24.8003769  36.4366570  36.0471458  25.0982990
  36.1750107  37.4992371  24.7607307  27.8099556  25.8140430  21.5385437
  27.7317390  24.9059048  21.8307743  28.6626644  26.0988159  21.8672161
   8.3213530  37.3476639   5.8165236   8.1708269  37.9251671   5.0681486
   7.9947233  37.8407936   6.5690994  59.9278145   1.3322676  40.6068230
  59.8143044   0.5366415  41.1267509  60.2562561   1.0220923  39.7629318
  36.6766167   1.2802978  49.6118431  37.0968857   2.1372256  49.6845016
  37.2753792   0.7649319  49.0713654  15.4130220  64.6107941  41.5864372
  15.9391680  64.8071365  42.3615799  14.9506874  63.8027878  41.8091621
  80.2424850  12.5029602   5.7393327  80.8412933  11.8330765   6.0693669
  80.6874084  13.3312759   5.9187002  68.1976547  33.5147285  21.4169998
  68.6442032  32.6756783  21.3037586  68.0769958  33.8439522  20.5263348
  84.3387527  37.1034431  32.8466949  85.2033157  36.6950760  32.8915215
  84.4926605  37.9431686  32.4137840  72.0251541  18.3013420  59.3699150
  71.3231812  17.7576408  59.0123444  72.2748566  18.8763409  58.6465530
  55.0200996  54.9001198  45.0587807  54.7591934  54.6589470  44.1699638
  55.6190300  55.6374130  44.9408531  50.4811363  22.5661182  28.5305691
  51.2212639  22.0900707  28.9071636  49.7083740  22.1117783  28.8661938
  61.2397156  37.6740532  35.8262062  61.5757141  36.9935303  35.2429199
  61.9136200  38.3537178  35.8144875  14.6629524  64.8131943  78.2272644
  15.0214748  65.4994049  78.7901154  13.7139750  64.9139023  78.3016357
  75.3544235  66.7485657  46.9080658  75.2292480  67.3386917  47.6512489
  74.8457718  67.1438217  46.2000580  83.0570297   8.9609089  81.1760406
  82.8441391   8.2114048  80.6200256  83.8174820   9.3625650  80.7557831
  22.5487957  43.6323395   4.7415857  22.0852833  43.4812775   3.9178329
  22.2600327  44.5004082   5.0231934  74.6828613  38.1439781  18.7416744
  75.0707397  38.1701813  17.8669758  75.1245956  38.8451729  19.2206631
  67.6182556  31.6094475  30.9705963  66.6818695  31.8025684  31.0165787
  67.8931122  31.5373783  31.8846493  77.4714737  56.3024025  66.8123627
  77.3975296  55.4715385  66.3428574  76.9953766  56.1585541  67.6302109
  73.6836243  16.4802094  17.5862846  73.1757431  16.4838562  16.7749462
  73.2195053  17.0878620  18.1621189   3.9069331  22.0907249  46.4751015
   3.9164028  21.4341660  45.7786293   3.0070667  22.0809498  46.8012581
  48.5170250  10.7765331   0.6391381  48.3986549  11.6076241   0.1792390
  47.8861046  10.8087540   1.3582582  25.3630924   4.0236259  42.2653198
  24.9424629   3.4019308  42.8592873  25.6408768   3.4918611  41.5194664
  34.6468315  10.6121845  25.3106098  34.5522537  11.5096579  25.6297131
  33.8154678  10.4239550  24.8751411  28.5017796  51.0484314  35.8983269
  28.1884689  51.3402939  35.0422401  27.7080688  50.7985611  36.3714218
  16.2997475   7.3365450  34.4748726  16.3116684   6.7759991  35.2506790
  15.7337494   6.8760533  33.8553352  62.4663353  42.0799522  24.7954731
  61.7847176  42.5277481  25.2965813  63.0633392  42.7780342  24.5262165
  74.6935806  30.2845554  82.4610977  75.4897232  30.1378880  81.9503326
  74.3859482  31.1471672  82.1827316  71.3750458  22.9301414  21.9523659
  71.1520309  22.3028908  22.6401539  70.5820236  23.4542561  21.8398838
  14.8839064   3.3983858  61.2828865  15.5481005   3.5743434  61.9493065
  15.2871704   3.6814318  60.4622192  80.5492172   0.9815245  39.5771866
  80.5149460   1.1968271  40.5092316  79.8389969   0.3524391  39.4504166
  86.1478348   2.6488826  82.1028290  86.6125565   2.2791409  82.8535385
  85.2566528   2.7939942  82.4205780  80.9461517  14.5487165  56.9717178
  80.0732269  14.4867668  57.3595314  81.2228699  13.6394501  56.8581619
  66.0120239  40.0547562  67.5105591  66.9666290  40.1153374  67.4747314
  65.7733307  39.5657959  66.7230453  79.7757568  25.6001511  21.0035858
  80.3002625  25.9619331  21.7178955  79.9606018  26.1709862  20.2577896
  74.5626526  68.6365128  51.7391930  74.0617294  69.4359207  51.5771790
  75.0332642  68.8098526  52.5544853  61.7294350  32.8212967  49.3658676
  62.1394577  32.7420807  50.2271690  60.7982674  32.9389534  49.5537949
  22.0274925   2.7406502  84.2697678  22.1947079   2.7263339  85.2121429
  21.2602139   2.1801672  84.1541214  24.7826443  11.9585390  57.2582855
  24.8914127  12.7285023  56.7001114  24.5780525  11.2485504  56.6497726
  83.7222824  39.6889534  40.9004784  83.4055862  40.1627998  41.6695099
  83.9033966  40.3727531  40.2556190   4.8514166  21.9765186  19.9744434
   4.2444978  21.3877697  20.4230614   5.2718720  22.4694099  20.6790771
  57.4198227  49.3832588   1.4669832  57.4660263  49.8616905   2.2947502
  56.5555649  49.5964279   1.1150568  58.8481750  24.0732269  50.9673347
  58.7771721  24.1287632  50.0143890  58.6670265  23.1549721  51.1679001
  18.0257587  63.9349747  13.2468796  18.3971672  63.5091209  14.0194960
  18.7691917  64.3762283  12.8359785  79.1606216  13.8560266  69.6156693
  78.3809738  13.9782009  69.0739517  79.5837173  14.7146063  69.6235886
  15.0555696  28.8824120  20.0136242  14.2066622  28.6670589  20.3999023
  15.0915508  29.8387527  20.0323505  18.4162254  19.1995945   5.7926774
  19.0549164  19.4239502   5.1159434  18.1363430  18.3110447   5.5727262
  42.0272217  52.6101303  44.0397797  42.8899765  52.2434387  43.8463326
  42.0827713  53.5200424  43.7478790  26.9214306  35.8384895  24.3684387
  27.6232510  35.2418404  24.6286106  26.3364906  35.8648796  25.1256561
  17.6681442  70.7798386  49.7592468  17.6174221  70.4311523  48.8692589
  16.7998772  70.6198196  50.1290245  75.1179886   9.7134771   9.6544189
  74.3672104  10.3050852   9.6037540  74.7792892   8.8703508   9.3533316
  36.3721924  65.5969925  72.7568130  36.1624832  64.8640366  72.1780014
  36.5509453  65.1894150  73.6042557  46.5454025  19.2255440  27.4425373
  46.0468864  18.6963062  26.8199444  45.9911613  19.9886799  27.6058502
  36.7884789  30.8475952  18.3807449  35.8920784  30.9810486  18.0727081
  37.1813850  31.7201843  18.3596725  49.8782463  32.9810448  75.3008652
  50.8347626  32.9955254  75.3340302  49.6661301  32.1548004  74.8666306
  78.4215851  29.4660587  53.0088654  77.9039993  28.8553658  52.4840889
  78.9212952  29.9699345  52.3665047  30.8705826  43.2503471  84.9172821
  31.4685478  42.5359688  85.1371231  30.3982067  42.9383430  84.1454315
   5.2525268  33.0798416  24.7327747   5.7935371  32.5617981  25.3287373
   5.1578159  32.5292969  23.9554958  61.1309891  16.6966209  16.5656319
  60.7474098  17.5733070  16.5883713  62.0693665  16.8425770  16.6855507
   6.1043611  58.4445343  44.0963097   7.0333853  58.2304649  44.1818657
   5.7207265  58.1854362  44.9341164  26.8249378  63.1952400   8.9738474
  26.6804600  62.6310997   9.7335205  27.4194050  62.6956787   8.4141369
  66.2215652  29.0719051  67.3120041  66.6025085  28.2233276  67.5378952
  65.5566025  28.8684597  66.6542282  77.3693542  30.1189899  50.2149963
  76.7969742  30.5528946  50.8477173  76.9325790  30.2431946  49.3723602
  43.9082680  54.7903900  55.6132660  44.0059013  55.2163467  56.4648895
  43.7998962  55.5130692  54.9950218  45.0702019  15.0012474  22.6394596
  45.7016487  14.9191265  21.9247818  45.0056229  15.9435291  22.7949142
  73.8541031  34.4865570  39.5553932  73.6735916  34.9732437  40.3596191
  73.3690948  34.9565125  38.8770599  63.7463646  31.2397556  75.6885834
  64.3651123  30.5660114  75.9704666  62.9089890  30.7814560  75.6179276
  76.7329712  67.4224167  86.6630173  76.0407257  66.8237457  86.9434128
  76.2837906  68.2541122  86.5121765   9.2647352   0.6862054  52.2435684
   9.6748705   0.2269013  51.5107231   8.6804419   0.0374833  52.6359863
   8.4676800  40.1414490  47.4960899   9.2310581  39.5663452  47.5484505
   8.7703028  40.8957481  46.9904442  11.3969259  18.7268353  88.8220367
  10.6335287  18.1677380  88.6775894  11.0595789  19.6188145  88.7395630
  52.5162239  47.5875473  86.6732788  51.9272804  47.1097031  86.0892868
  53.2611732  46.9991493  86.7960358  27.7585411  71.1801376  76.4498749
  28.1462040  71.3355942  75.5886078  27.5064831  72.0500565  76.7596283
  63.4463539  30.0830669  34.5308075  63.5764236  29.6409740  35.3697739
  64.0153198  29.6127148  33.9214821  51.8211403  24.7579803  80.4930725
  52.3689041  24.0411510  80.1731567  51.1401978  24.8545799  79.8273239
  12.3926334  36.8747444  29.2351532  12.3616304  36.4720383  30.1029663
  11.5471315  37.3142662  29.1447258   0.7593480  49.6684227  73.3334656
   0.8907763  49.5982132  72.3879395   1.5742204  49.3401947  73.7135773
  61.8840256  21.2063808  17.8199749  61.3173676  21.8653030  18.2211647
  62.3463364  21.6779213  17.1270466  50.2136612  48.1559563  71.1714630
  50.6967087  47.3295860  71.1740952  50.8433952  48.8025055  71.4902725
   0.5395653  55.2756615  57.3206100   1.0875300  54.5169067  57.1199684
   0.8101053  55.5407410  58.1996841  78.8223267  47.3969002  19.3541718
  78.0430832  47.7045708  18.8911953  79.5550156  47.7703590  18.8643456
  56.0009537  59.9121208  50.4544029  56.7990112  60.3016701  50.8115959
  56.0572853  58.9874115  50.6951790  54.2365570   9.4965773  48.1398087
  54.5358238   8.5913162  48.2245064  54.8884430  10.0099802  48.6169853
  67.0216980  38.8925781   0.7717014  66.7304535  39.7624512   1.0450702
  67.3517151  39.0190735  -0.1178609  54.2256813  47.1556931  54.3950958
  54.1787834  46.8269310  53.4973526  53.4840927  46.7449875  54.8396149
  15.2740612  57.2472610  13.5136108  14.4258728  57.0817337  13.9252033
  15.4476280  58.1725960  13.6864157   2.7252111   1.5138663  69.1047668
   2.5355191   1.1397344  68.2443771   3.5267074   1.0727752  69.3863220
  29.9724236  66.0606461  63.0700493  30.8770123  66.0963211  63.3809814
  29.4584713  66.4363708  63.7848320  63.0057869  42.6580315  81.4649048
  63.4547348  43.5032043  81.4459457  62.4754410  42.6863480  82.2612457
  43.4221306  18.3614693  70.6934967  43.5393372  17.5121403  70.2678909
  42.5135307  18.5988579  70.5082245  72.7505035  28.2656841  17.2675400
  73.2154236  27.7132072  16.6391659  71.8403549  27.9738750  17.2155495
  73.6619949  54.1903381  76.2929459  72.7558899  53.9446068  76.1063538
  73.7343903  54.1329460  77.2456741  54.7782211   5.4871702  16.3025589
  55.6695938   5.7148724  16.0382919  54.4857483   4.8589177  15.6422615
  12.2127686  18.9455185  63.4103470  12.2521667  19.0199413  62.4568596
  11.7465134  19.7322712  63.6929359   6.7472186  66.6058884   4.9740176
   5.8402443  66.3283234   5.1027966   6.6951227  67.2946014   4.3112946
   1.7349752  33.6079025   1.1770821   2.6362612  33.5850029   1.4986269
   1.7091422  32.9428558   0.4891318  16.6266670  38.2048111  81.3048401
  16.3729801  38.6058884  82.1361084  16.5784817  38.9192467  80.6696320
  61.1276131   4.7853308  57.3709259  61.3246422   3.8527112  57.2835655
  61.0856133   4.9337921  58.3156090  81.9637680   5.9578767  83.6960526
  81.5769958   5.2831316  83.1380539  81.5259857   5.8502970  84.5404510
   9.1114283  29.0348663  11.4000835   9.0205984  29.7505131  12.0292349
   9.4919376  28.3174000  11.9067249  27.9098091  10.5717707  84.0684509
  27.5640717  11.4367161  84.2888336  27.6360130  10.0121193  84.7951279
  25.4329357   9.2105894  39.4109001  25.2787209   8.5438986  38.7415924
  25.6852036   8.7143688  40.1895905  35.0826950  31.3519897  85.2245102
  35.9590111  31.0462723  85.4586945  35.1121216  31.4578648  84.2736359
   1.2178606  71.7025757  18.1307774   0.8807818  72.1888275  17.3783340
   1.3730712  70.8196106  17.7953377  70.8920746  61.7319489  72.5692444
  70.9766083  62.5047264  73.1277237  70.0495605  61.3498344  72.8150024
  46.9499702  39.7187576  62.7276878  47.5389328  40.3783264  63.0941963
  46.2528000  39.6324158  63.3778648  66.9583359   6.3692689  67.8383102
  67.3950272   5.6376390  67.4021301  66.6023026   6.8964949  67.1231155
  75.2576828  60.4497986  60.5127258  74.7207489  59.8197517  60.0321312
  75.5294418  59.9804420  61.3014488  69.8586655  43.5568008  71.5164566
  69.5947571  44.3722954  71.9425507  70.0110550  42.9475517  72.2388306
  86.2703171  19.2147179  16.2651272  86.4137650  18.5144520  15.6285114
  85.4965744  19.6768208  15.9425993   6.0518141  25.3942585  31.3099251
   5.6662445  25.0009766  32.0928001   5.7094064  26.2880344  31.2974377
  20.5740929   5.7720766   8.1194811  21.1364365   6.0256591   7.3875666
  20.4892960   6.5685806   8.6435242  25.6234837  45.9680901   2.4376411
  24.8595295  45.7299271   1.9123932  25.3898373  46.8078499   2.8331769
  66.0010071  66.1271973  19.8793640  66.7248917  66.7039413  19.6352482
  66.4130554  65.4264069  20.3846817  17.5959244  63.7164154  20.2842865
  18.2188854  64.4387054  20.3645935  18.1313343  62.9658318  20.0270119
  40.1658363   5.9633164  68.3321152  39.2948036   6.3110709  68.5234299
  40.6611977   6.1005936  69.1395874  71.6872635   5.8150010  42.9989853
  71.9695740   4.9146609  42.8379822  71.8484116   5.9532585  43.9323425
  54.1597748  64.3562393   9.9643888  53.4016228  63.8782272   9.6283169
  54.1771774  64.1510391  10.8991737  58.8329353  62.7182083  59.9714317
  58.6667290  61.8048058  60.2044640  59.7730446  62.7530632  59.7947578
  26.6198769  15.9642010  84.4566269  27.5338612  15.7281942  84.6152496
  26.6596165  16.8541737  84.1064758  63.1393394  34.8324165  48.6891518
  64.0415039  34.9194336  48.9969826  62.8695030  33.9617500  48.9813232
   6.0710416  14.5812101  77.8732681   5.8535008  13.9562969  77.1816101
   6.5627780  15.2706909  77.4271240  62.3795662  40.1158218  38.1993370
  61.6031685  40.3944016  37.7137108  62.3427391  40.6137962  39.0159721
   6.3704548  35.9991875  69.1522903   6.1750422  35.1890907  69.6232376
   6.0713234  36.6947746  69.7378769  86.4540176  32.6618690  55.5458374
  86.6277161  31.8302593  55.9868393  86.0524673  32.4123154  54.7135468
  60.2266617  52.1508560  66.5289230  60.6686134  52.8276978  66.0162811
  59.5330887  51.8289070  65.9531250  38.2858772  57.0729141  84.2457809
  37.5513954  57.6693840  84.1008987  37.9003105  56.3243294  84.7009583
  73.9852676  36.2014580  87.0043106  73.2638168  35.9635010  86.4219742
  74.1720123  35.4004517  87.4939575  17.4970798  42.7974892  81.2300262
  17.7034016  43.6350784  80.8151703  18.1905537  42.6739693  81.8781586
  76.6103516  11.2594299  19.5384083  76.5107117  12.2075233  19.6245670
  77.0916290  11.1426373  18.7192822  68.0415115  70.2032852  14.4221315
  68.9447556  70.5186844  14.3920469  67.7430801  70.4154129  15.3065376
  53.7194786  30.4583416  18.1493702  53.3022346  31.2232590  17.7530899
  53.9874611  29.9192619  17.4051876  63.7381668  52.2812958  81.0469131
  63.6308632  51.3782349  81.3455734  64.6799240  52.4424248  81.1048508
  21.1369972   5.5229239  14.4565945  20.6765881   6.1586213  15.0044489
  20.5100231   4.8092051  14.3393803   1.9741912  33.8495865  51.6096268
   1.5073985  34.2888680  50.8987350   1.5936948  34.2155190  52.4080925
  71.4364471  36.0108833  85.6600189  71.3289948  36.9070053  85.3411789
  70.6886292  35.5362473  85.2970886  53.4386139  53.0704079   2.3995628
  52.5551071  52.7039948   2.4368999  53.3164520  54.0066757   2.5567501
  23.8090458  66.0079498  45.9031181  23.8620129  65.0847168  46.1502495
  22.8982830  66.2492294  46.0720139  51.4658890   4.0323625  83.0536270
  50.6715317   3.7858353  83.5273895  52.1814308   3.7671614  83.6314621
  57.6179008  22.5595360  53.3426399  58.2994766  22.0153980  53.7370987
  57.2900734  23.0943546  54.0656395  55.4608421  69.0456772  74.4476166
  55.9057846  68.2969437  74.0505600  56.1577606  69.6827850  74.6045914
  31.5791016  39.7359009  78.3038483  32.4352989  39.6964569  77.8777008
  31.3601494  40.6676445  78.3156815  46.1977615  30.8902779  14.3599329
  45.7973671  30.0208893  14.3509989  47.1305351  30.7230072  14.4947853
  43.4295120   3.3023674  55.2451553  43.6785851   2.3812287  55.1696739
  42.5579643   3.2831984  55.6404648  86.6874313  42.1109886  22.6010704
  86.9075317  41.9825363  23.5237217  85.9390182  41.5334930  22.4507256
  77.2507248  33.1669731  49.0998840  78.0082855  33.2265015  48.5178299
  76.6822357  32.5166893  48.6873512  22.0744572  36.6660805  22.2850704
  21.5651722  36.9229965  23.0537415  22.7835445  36.1276817  22.6365757
   0.7612290  69.2876511  24.2920780   0.6212434  69.6362762  25.1724720
  -0.1189089  69.0993881  23.9662762  75.7465897  21.0809040  33.9203758
  75.6775055  21.3248825  32.9973717  74.8888931  20.7148209  34.1361923
  56.4763412  35.6241150  21.8554173  57.1041489  36.0799446  22.4160500
  55.6541061  36.0974388  21.9823933  65.4504166  47.2119331  88.7338562
  65.3058548  47.8651924  89.4183960  64.6197281  47.1739311  88.2597809
   5.2376752  43.9090919   5.2492027   4.5382543  43.2570610   5.2927837
   5.3951144  44.1527901   6.1613741  83.3161621  69.8633118  61.1630363
  83.9483109  70.3316345  61.7082825  83.8377457  69.5070953  60.4438095
  74.0046387  19.0077591   1.5260072  74.8950500  18.7542534   1.2828238
  74.0908661  19.9044075   1.8497642  70.7241898  38.7012787  65.4189224
  71.3584900  38.4742355  66.0988846  70.7807922  37.9827576  64.7890396
   8.4242420  18.8761292  38.5869331   8.1932659  19.7749043  38.8216324
   8.6645489  18.9244232  37.6616478  72.3334122  21.4413433  81.0808487
  73.2767487  21.4518890  80.9188766  72.2207947  21.9644661  81.8745041
  55.3933945  20.4689903  29.4339008  56.0009422  21.2067280  29.3803825
  55.5052528  20.1305523  30.3222580   6.4720626  12.4137936  68.4972153
   6.9520183  13.2176056  68.2978134   5.5599952  12.6930151  68.5772095
  32.3067513   5.5797758  50.2311630  33.1565094   5.8746042  50.5586090
  32.5205460   4.9356360  49.5561752   9.3186674  63.1398621  66.9588089
   9.9749041  62.6001053  67.3995438   9.0840969  63.8065453  67.6043625
  58.9096375  40.1193047  17.9410877  59.6819878  39.5555916  17.9849930
  58.6389122  40.0836258  17.0236626  29.7760448  29.1271992  11.3669491
  30.0859623  28.3086529  11.7544594  29.0999279  28.8571053  10.7455397
  78.2133636  56.1465836  13.9870834  77.3860703  56.1020889  13.5076704
  78.3966446  57.0830727  14.0620995  33.4864235  57.1975784  27.1045151
  34.4397163  57.1685677  27.0231609  33.3080750  58.0339622  27.5344944
  30.9809437   2.1757696  13.4238129  30.1771488   1.6859449  13.2499790
  30.8776569   2.4951839  14.3202152   8.4944859   1.6857148   5.7299438
   9.0973959   2.2082958   5.2011333   8.7092905   0.7787263   5.5120845
  53.8692818  46.8065567  79.3076477  53.0103302  46.5558472  79.6476135
  53.6838074  47.2006035  78.4552612  60.1506348  37.0005150  41.7348709
  60.4776421  37.3278198  40.8969154  59.7379341  37.7609024  42.1444168
  44.4352875  68.6066818  21.3028374  44.8841705  68.8079376  20.4817181
  44.7800560  67.7518616  21.5610027  14.3413076  55.2367554  64.6530228
  14.8326569  54.6501274  64.0779800  13.4530258  55.2331276  64.2964096
  45.3934784  67.5168762  52.9225693  45.7918472  67.4933701  52.0525208
  44.7251930  68.1994553  52.8616447  53.7145157  11.8376818  81.6611176
  53.5832558  12.2977171  80.8320389  54.0693359  12.5030766  82.2506790
  56.6747704  27.8515911  35.9020767  56.4897003  26.9146576  35.8377724
  56.0591354  28.2596760  35.2932358  23.9935055  22.8892803  65.1335068
  24.2306595  23.6684723  64.6306686  23.0375099  22.8609943  65.0947342
  29.7596912  61.4055443  83.7820206  30.0532303  62.1873779  83.3142548
  29.4403095  61.7348480  84.6221313  27.9671612  47.2309265  75.9988937
  27.3718166  47.8410873  75.5635681  27.5609322  47.0658722  76.8497543
  21.9799862  36.6438675  73.3800964  22.0861416  35.7361679  73.0954056
  21.3979301  37.0330696  72.7274323  66.3642273  21.8039341  34.1501312
  66.6449432  22.6544056  33.8123016  65.4128189  21.8780251  34.2247314
   4.4540710  61.7612572  83.9639282   5.2875767  61.2952194  83.8982925
   4.4957409  62.4247169  83.2752228  69.9865494  33.8672066  52.6107674
  70.4307404  34.5958176  52.1771164  70.4963608  33.0953255  52.3647499
  21.0269775  38.3072624  24.6875992  20.5298843  38.4719696  25.4888496
  20.6403255  38.8970222  24.0403614  44.3718719  26.6275787  77.3333969
  44.1497498  26.0241814  78.0424805  45.3267365  26.6884308  77.3609772
  85.8261185  44.6993370  83.1461029  85.4927063  43.9153061  82.7097931
  86.1143188  44.3910828  84.0052567  77.1967010  14.6386194   9.2654839
  77.6627884  14.2214823   9.9900465  76.2739182  14.4462500   9.4319172
  43.3549995  66.1764908   8.8279619  43.2996140  67.1286163   8.7465744
  42.5222054  65.8575287   8.4801826  33.6934357  47.2260818  10.9797497
  34.5663910  47.5329552  11.2247076  33.1148376  47.5900421  11.6498165
  45.8465195  62.8875313  58.7456398  45.2714081  62.9116325  57.9808502
  46.7290497  62.9703293  58.3843689  83.2724686  64.0408630  74.6116409
  82.4991150  64.5605240  74.8309631  83.4628830  64.2672653  73.7013016
  55.4247246  48.1705894  74.2006607  54.7872162  47.5983467  73.7736282
  56.0874481  47.5736580  74.5480804  17.9684315  48.7988548  20.9156876
  18.2509060  48.8721619  20.0040588  17.0891838  49.1770935  20.9251461
  76.3467331  67.7483444  38.8549843  76.0098114  66.9881744  38.3807907
  77.1676331  67.4444885  39.2423096  25.2804089  13.9111691   0.5577748
  25.9502392  13.6563797  -0.0767652  25.1796055  14.8549271   0.4337159
  22.0949783   3.8355515  44.3703957  21.2929630   3.6268666  44.8494110
  22.7516880   3.9759586  45.0524902   8.6462841  18.1020679  49.8569183
   9.2596159  17.4750366  50.2401772   9.1062031  18.4508419  49.0933342
  49.2256966  28.2395954   8.6924734  49.1875305  27.8686275   7.8109083
  49.8056412  28.9965076   8.6089134  17.4919662  58.4169617  52.7906189
  18.2376308  57.8276405  52.9042702  17.4206200  58.5329971  51.8431625
   0.7405678  59.8310928  25.9874001   1.2282563  59.7382965  26.8057995
   1.3662399  60.2243271  25.3790150  38.5495758  63.0439529   2.0233028
  37.8946953  63.7170105   2.2086565  39.2952728  63.5269699   1.6671287
  45.1017647  20.6706123  86.7191162  45.2617378  20.6840229  85.7754745
  45.8935204  20.2817249  87.0907669   9.1985626  44.0726051  72.9718323
   9.2794065  44.9889412  73.2364426   8.3542070  44.0264206  72.5233231
  75.5618057  12.3647070  45.4999046  75.5564804  12.5867233  46.4309845
  75.2440186  11.4623976  45.4670143   9.4069901  64.4316940  77.8806992
  10.3632545  64.4348907  77.9229050   9.1317329  64.0498505  78.7141647
  68.0415421  14.5776768  65.0811539  68.5087204  14.4614716  64.2538300
  68.7117386  14.8794870  65.6943207  22.8463974   0.5446990  50.6851692
  23.7608166   0.4281338  50.4273300  22.6322308  -0.2499027  51.1740189
  44.5057983  15.7294388  61.4492264  44.0015297  15.7019691  62.2623634
  44.0808678  16.4096355  60.9267349  45.3352776  57.8033066  47.1497421
  44.6689682  57.5691910  46.5036354  46.1597443  57.5132179  46.7594452
  17.0042992  64.9670029   2.8972087  16.2641010  64.4113007   3.1411932
  17.2623043  65.3944626   3.7138762   2.2129905  44.3369751  24.9451694
   1.5786133  43.6386719  24.7833900   2.0960212  44.5574608  25.8692551
   2.4831843   8.6252022   7.2752304   3.2002566   8.9681053   6.7418857
   2.5553119   9.0966368   8.1051579   6.4675169  63.3043594   4.8873544
   7.2877550  63.4662170   4.4212608   6.1358576  62.4885483   4.5122685
  16.4738884   3.7612216  76.5255051  16.7301922   2.8524685  76.3683167
  16.9435234   4.2614069  75.8580551  49.9198151  68.6397705  41.8596153
  50.2613754  68.7292709  40.9699211  50.6772575  68.3747864  42.3814354
  84.3407135  45.2496490  37.2350540  84.8540802  44.4448814  37.1641502
  84.3306961  45.4455986  38.1719284  80.7490540  44.5378685  16.0094337
  80.8284073  44.9751816  15.1616755  81.5319824  44.8050270  16.4909668
  80.3438568  27.5290356  52.2036285  80.9126511  27.8832531  52.8871727
  79.4792633  27.8892174  52.4010391   6.8445029  19.6669979  10.2629614
   7.6627274  19.5325699  10.7411556   6.8346734  20.6031380  10.0635157
  72.1947021  13.4212589  76.9197083  72.7451019  13.6913729  77.6547775
  72.1897583  14.1779175  76.3334732  57.4438629  41.7066841  34.7961464
  56.9884529  42.5207863  35.0107765  57.2765236  41.1341057  35.5447350
  11.4691229  34.5077591  24.1102886  11.2412281  33.5794983  24.1615677
  11.1194162  34.7939796  23.2664795  28.2415981  58.4609909   6.4412837
  28.2105827  57.9814186   5.6134663  28.4114037  57.7888184   7.1012702
  85.2337799  42.1245651   0.0882360  85.1011276  42.4645042   0.9731529
  86.0948410  42.4545326  -0.1685259  54.5266800   3.0599332  81.2818527
  54.7177162   2.6995096  80.4159241  55.0286140   2.5121326  81.8853531
  15.8358374  39.0013275  83.9700394  15.9596329  38.0646248  84.1233139
  15.0132523  39.0578117  83.4838333  49.6779823  17.1397858  29.2707081
  49.4205894  17.8356209  29.8755188  48.9200211  16.5559769  29.2407513
  14.4091482  66.3102417  57.0788689  14.4676952  65.3555374  57.0421791
  13.7568903  66.5358658  56.4156303  80.4146729  68.8825989  80.2684937
  81.2238464  68.5810852  79.8554993  80.6842957  69.1731110  81.1397781
  22.7878532  28.1773224  55.7810936  23.0657024  29.0912132  55.7191811
  22.2462196  28.0384998  55.0041809  69.7081299  16.7264404  58.6720619
  69.6532822  15.8258753  58.3523636  69.2156296  16.7196484  59.4928093
  64.0918732  54.6371765  63.5335045  64.0731430  54.8979492  64.4543076
  63.3388367  54.0546799  63.4341660  62.1901016  20.4857597  60.3097878
  62.7815628  19.7393913  60.4064407  61.3745842  20.1045399  59.9844666
  48.1591263  56.8529282  74.7425995  48.9019356  57.3468857  74.3955078
  48.5429878  56.2748413  75.4019165  61.0904083  34.2503624  54.6153755
  60.2780914  34.1606178  55.1136932  60.8250465  34.6738663  53.7990036
   5.5850439  40.5781784  51.1141090   5.7839417  41.3519249  50.5868645
   6.1056547  39.8788261  50.7190132   7.8773260  13.3019314  10.6750336
   8.4161568  12.5769939  10.3582392   7.9580469  13.2617474  11.6279764
  61.9029732  57.9515572  68.5092697  61.1236382  57.5626717  68.1122284
  62.4875755  57.2099152  68.6656036   0.1952183  66.3963852   6.5011482
   0.7640074  66.6649857   5.7796450   0.7152904  66.5567169   7.2885818
  70.6843491  33.9394798  37.0000992  71.0851440  33.9188004  36.1310921
  69.7487183  33.8227539  36.8351746   7.7986779  25.2438049  51.7748985
   7.8300543  24.4693317  52.3365364   6.9962387  25.1369076  51.2641182
  57.2814369  19.6468658   1.2049485  57.4822731  19.3208542   0.3276730
  56.8413315  18.9151077   1.6374627  73.4744797  58.3567581  42.6957550
  73.4391861  57.6285706  42.0754890  74.3860168  58.6478806  42.6717339
  14.9657965  10.8070726  44.2727890  15.1850929  11.3601828  45.0225983
  15.6049252  10.0952463  44.3051949   3.9361527  18.8923340  27.2861023
   3.2388897  18.3019447  27.5715809   3.7024767  19.7397804  27.6648655
  82.0686646   1.6438177  36.2412109  82.6045151   1.2394351  35.5588875
  82.0146255   0.9796650  36.9283867  69.5379639  22.7516022  71.1454010
  68.8790970  22.7132797  71.8386993  69.2414093  23.4583225  70.5719604
  58.7319870   7.7520690  28.2732754  58.8251495   7.5223136  27.3487396
  59.6291695   7.8883133  28.5777988  16.6146011  35.0997734   8.0071344
  16.4993572  34.9024315   8.9366541  15.7543898  35.4047470   7.7185864
  31.0079079  43.1890678  76.8291855  31.0363159  43.7186623  77.6260223
  31.8522873  42.7386055  76.8107529  22.1059990   3.1907754  55.9954300
  21.6945572   4.0525241  56.0612793  22.2757378   2.9364657  56.9024849
  64.6081924  15.0221853  52.6164246  63.6549950  15.0480452  52.5328636
  64.8610916  14.1896515  52.2174759  76.5062943  22.0425663  70.0848999
  77.2699966  21.4844418  69.9383163  76.7730484  22.9031982  69.7618103
  73.5329742   6.3222022  17.6593227  73.7653732   6.0307755  16.7776814
  73.6775894   7.2683020  17.6447487  75.7363815  46.7183990  21.4654083
  76.2059174  45.9031258  21.2890682  76.1389236  47.0586166  22.2644367
  30.8591290  29.2554893  23.1777020  30.8921909  29.5967655  22.2840195
  31.3693123  29.8811207  23.6920261  20.8910255   6.1022434  57.0019264
  20.0110054   5.7744684  57.1872940  20.9867401   6.8662820  57.5705376
  76.9514847  15.2571335  56.4425240  77.6599197  15.8845215  56.5865364
  76.1830673  15.7999115  56.2660141  53.2471199   7.0920153  12.1296310
  52.6117935   6.3772321  12.0886736  52.8393326   7.7424550  12.7013550
   3.5379162  13.6323442   8.6453362   3.8643079  13.2833633   9.4747410
   4.2683473  14.1431856   8.2964191   6.8692741   9.7915020  67.8919601
   7.6138639   9.8621721  67.2946091   6.5185776  10.6806335  67.9438019
  68.5136490  39.3297920  30.2266178  67.6015930  39.5912285  30.0999622
  68.9756775  39.7004547  29.4747105  76.5880737   7.6900501  57.9378510
  77.4136734   7.6780634  58.4220734  75.9174881   7.5391607  58.6040154
  32.7672081   1.3046989  69.0685806  32.3842697   1.5193268  68.2179794
  33.5306625   0.7668222  68.8586807  50.4573936  68.9702301  68.1894989
  50.1155090  68.1487274  67.8366928  50.0892677  69.6466522  67.6210098
  50.7535858   8.2141666   1.9229760  49.9520035   7.7372661   1.7078943
  50.9390717   8.7354097   1.1418658   8.6775141  14.5509062  62.6558266
   8.4915285  15.2223368  63.3121986   9.6329966  14.5231237  62.6057014
  36.7652397   6.0995021  36.0630836  36.9136124   5.8416948  35.1532745
  37.6277046   6.0367413  36.4735069  10.6777096   6.5576406  31.3345661
  10.4121056   7.2037983  30.6802216  10.2275648   5.7540460  31.0741119
  65.1858826  17.3635998  47.0870781  65.9733429  17.8943081  46.9667320
  64.5119553  17.9909325  47.3488159  44.3179283  15.9333258  85.7587891
  44.4049568  16.6688061  85.1523819  43.5124435  16.1158543  86.2426376
  40.8176880  31.2127705  11.8826218  40.0195351  31.5284882  12.3063040
  41.2495537  30.6811123  12.5512514  84.2219009  63.8368111  18.1366234
  84.0131073  63.5546150  17.2461166  84.0583267  64.7799301  18.1335564
  48.4330826  10.3888121  59.4591331  47.7573929  10.6680231  60.0769653
  49.0150337   9.8318586  59.9762115  85.6576157  48.7422600   0.8136275
  86.0818253  48.4801826  -0.0034369  85.1889725  49.5471306   0.5927421
  30.3866463   7.0767970  31.1714630  30.8800335   7.3093610  31.9580460
  30.7721386   7.6140289  30.4793568  60.5861626  34.6677132  70.4442825
  60.0021324  35.4196815  70.3458786  60.3441315  34.0810738  69.7276840
  43.2081261  54.7950478   5.3282728  43.0430565  53.9740028   5.7918162
  43.3733139  54.5301933   4.4233980   8.8471899  19.9325790  70.9718781
   8.7573576  20.1980019  71.8871460   9.2080965  20.7030926  70.5333710
  25.6623211  13.1277781  34.4429703  25.3273239  12.2393255  34.5640564
  26.2493343  13.2657986  35.1863365   5.9561348  56.7665787  15.4643764
   5.7606392  57.1891365  16.3007126   5.4131546  57.2320251  14.8281651
  23.8959770   1.8676033  23.1673660  23.1791916   2.3021595  23.6295452
  23.7599277   0.9353969  23.3368168  47.6107483   6.2166977  60.7398949
  46.8041611   6.4105487  61.2174606  47.5336685   5.2919736  60.5050049
  72.5306091  63.9368477  11.1867046  73.0671387  63.6442032  10.4500027
  73.1513519  64.0439606  11.9074287  59.6520233  16.1971245   7.4934764
  59.1958084  16.8969917   7.9606848  60.1387291  16.6475925   6.8032370
  75.2292862  30.6248798  61.4435844  75.6084976  30.1978874  60.6753998
  75.2194519  31.5555191  61.2198830  49.7873039  68.5471497  31.5739002
  50.2802620  67.9083176  32.0887947  49.8137436  69.3482056  32.0972061
  73.3554916  14.3027554  19.3635998  73.7631760  15.0240536  18.8842735
  73.3179016  13.5856018  18.7307415  32.9107857  24.5249977  20.3575249
  33.6862488  23.9638596  20.3605709  32.3432350  24.1455917  19.6865768
  36.5703239  43.5336952  81.6690598  36.6806297  42.7159996  81.1838379
  37.3554611  44.0414925  81.4642868  10.4668674  49.8679543  79.8345108
   9.9975128  49.3470764  79.1828766  10.7209082  49.2368279  80.5078430
  62.4449844  19.7037849  20.2443752  62.5463333  19.1439095  19.4746361
  61.5241432  19.9647617  20.2311497  53.1272812  15.4653111   7.8232689
  53.1837769  15.5635748   8.7737341  53.5910873  14.6485271   7.6389341
  16.9505806  29.9635754  76.5986176  16.2930946  29.3891945  76.9910889
  16.4474144  30.5595703  76.0437775  72.6107407  36.2264023   5.4526567
  72.8806000  35.4194298   5.0142493  73.4096756  36.7513618   5.5010977
  24.0033302  57.1319504   0.9346176  23.6719456  56.9970741   0.0467972
  24.9200745  56.8599319   0.8919911  75.6022110  36.4472237   0.4596815
  75.7036362  35.4990234   0.5424984  75.1762466  36.5693359  -0.3887748
  59.7001953  45.3031311  85.9504547  60.3843536  45.7709160  85.4715652
  60.1291618  45.0078506  86.7535934  67.0384293  19.7287788  88.2673035
  66.8473663  19.6456890  87.3330536  67.3072357  18.8502254  88.5358658
   3.0441737   3.1905634   5.9678617   3.9521182   3.4006007   5.7493367
   2.7417209   3.9400539   6.4807148  16.1541176  18.1635742  20.9989777
  16.1114483  18.8287926  21.6859245  16.1885967  17.3323250  21.4723377
  54.5780067  62.7494926  47.3450508  54.7740593  63.6195679  47.6925697
  53.6321449  62.6544151  47.4570007  22.4710445   9.8723612  68.1757050
  22.0676308  10.7367382  68.2553253  23.4123650  10.0440893  68.2013702
  54.1468773  63.9988785  71.1544724  53.3785782  64.2676010  70.6507492
  53.8511086  64.0065079  72.0647964  34.5281258  17.2770309  52.9806824
  35.0402336  17.2654343  53.7892876  34.0576744  16.4434204  52.9831505
  47.2360573  57.3408966  57.9186211  47.5415077  57.9521294  58.5889359
  47.2953911  56.4805870  58.3340492  83.2873917  43.9893799  86.5714264
  84.0194855  43.6881485  87.1095047  82.6392288  43.2878494  86.6344986
  14.0405979  26.3543034  28.0561275  14.3010588  25.5191727  28.4446487
  14.1787329  26.9960155  28.7528019   5.9870749  70.3645020  32.0990028
   5.4557920  69.5682831  32.0975075   5.3583813  71.0722046  31.9571037
  84.8150253   6.8586750  61.0214920  84.4794617   6.9660597  61.9114876
  84.3247681   6.1161294  60.6686401  19.8523235   9.9584198  51.9195595
  20.6589737   9.6351099  52.3208275  19.3952885  10.4087944  52.6298485
  59.6599579  42.8232574   1.8201735  59.2270050  42.4763451   2.6001978
  60.3403816  43.4033203   2.1619065  32.0059814  15.5596342   3.2562928
  32.3850060  15.1923246   2.4577579  31.1873703  15.9639673   2.9688570
  42.9305840   5.2922201  43.3861427  42.5299416   5.1609273  42.5267944
  42.6734200   6.1793666  43.6372795  46.6381187  13.7228413   2.9012499
  46.1785889  14.4817696   3.2605441  46.8172531  13.1693583   3.6613810
  82.2390671   8.0114145  14.0100775  83.1562958   7.7511282  13.9253550
  82.2736816   8.9416924  14.2328262  81.7557373  31.0151348  45.8483887
  82.2488937  30.4960365  45.2131195  81.1055527  31.4817448  45.3232574
  75.9449005  55.0713692  42.9432182  76.5606537  54.6227570  43.5227242
  75.5163727  55.7182503  43.5037041  17.2797604  52.3555794   5.1221676
  17.2018108  51.9554024   4.2561336  16.8545017  51.7336273   5.7125592
  78.9784546  29.9490833  21.3475895  78.3005524  29.3874187  20.9718094
  78.8534317  29.8751659  22.2937050  11.4532824  53.9583702  21.6238556
  11.0433483  53.2344017  22.0972023  11.1862144  54.7412186  22.1055717
  73.6997147  40.5519676  67.5151062  74.6162338  40.6834259  67.2723160
  73.5500336  41.1711273  68.2295761  32.5252838  40.1182976  16.7682934
  32.8765182  40.9871788  16.5735855  32.2313690  39.7834091  15.9211245
  57.2752495   1.8775759  28.0658531  56.3218002   1.9258590  28.1353855
  57.5834274   1.9106878  28.9714813   8.2064342  11.0714731  28.1932716
   7.7023244  11.5803776  27.5583534   8.4395542  10.2691526  27.7261868
  30.1966133  67.7379074  77.6328506  30.1931286  68.3270416  76.8784332
  30.6229362  68.2403564  78.3271332  30.2340736  63.7347107  45.2277946
  30.2988338  62.8040657  45.4421349  30.6995029  63.8218536  44.3959236
  60.4927826  17.8542652  57.5318298  61.2699280  17.8667660  56.9731522
  60.3544044  18.7709198  57.7702141  69.3556442  42.6250839  54.8368034
  69.6278000  42.1602592  54.0455399  68.7105331  43.2623558  54.5302925
  31.1296425  47.6843338  14.9222050  31.2197437  48.5405159  14.5037899
  30.3113194  47.3317833  14.5725117  55.9608879  25.6176071  11.5801668
  55.8959999  24.7268353  11.9244728  55.5793304  26.1673260  12.2646036
  59.2894211  26.7802372  74.3961945  59.1344261  27.2914276  75.1904831
  58.4226608  26.6808128  74.0024033  64.2893600  47.6956100  79.9432373
  65.0680389  47.9564133  80.4350510  64.3386612  48.2003098  79.1314011
  84.3348694   6.2246027  67.6214676  84.6266785   6.4282618  66.7328720
  83.7435532   6.9418840  67.8496857  41.8263931  22.2851791  44.0378265
  42.5830040  21.8207760  44.3957405  42.1811371  22.7960281  43.3102112
  16.5323944  54.6523170  86.6482086  15.7816677  55.1187935  86.2807312
  16.7776566  55.1632347  87.4195938  16.7602081  52.4787445  76.4616699
  17.1371002  53.0500526  77.1308441  16.3705826  51.7568130  76.9548569
   1.8959550  50.9366188  70.7260361   1.8955982  50.0833092  70.2923279
   2.5529530  51.4461060  70.2516861  34.4222298  10.8524818  19.7470093
  34.8971977  11.6039381  20.1019039  34.8731346  10.0905561  20.1108589
   6.8512635  33.6708527  18.8739071   6.0539222  33.3185539  18.4784794
   7.3060145  34.1035194  18.1512508  55.4851265  71.4515152  48.4446144
  55.2150688  71.1473465  49.3110924  56.4136772  71.6619568  48.5433006
  80.7000656  17.4097176  41.3380013  81.3198090  18.0301552  41.7216759
  81.2074127  16.9449234  40.6725693  38.8328514  65.9695053  60.9891090
  38.5465660  65.4794998  60.2182846  39.7876587  65.9836197  60.9229355
  81.7692795  23.8187847  58.5436821  82.3476410  24.2251816  59.1891098
  81.7224731  24.4548512  57.8299179  71.7913818  14.1058712  39.9425583
  71.2855377  14.2196712  40.7471695  71.1370468  14.1211205  39.2440948
  83.2814941  22.7987022  33.8515053  83.0998077  22.4591885  32.9751778
  83.6603546  22.0563107  34.3221970  80.9493790   8.1692781  47.9114723
  80.7807159   9.1089544  47.8422432  81.9023132   8.0928164  47.8635941
  17.6031914  29.8066692   1.4187844  17.0212555  30.5580177   1.5330573
  17.0179195  29.0492764   1.4119140  21.1749916  55.2719269  62.9022179
  20.3143559  54.8961182  63.0874367  21.0302448  55.8408241  62.1461525
  35.9040184  51.9862022  54.2530365  35.5378456  51.5837479  53.4655228
  36.8433380  52.0435944  54.0780640  77.6542969  63.5397568  48.8442154
  77.0477600  62.8186417  49.0125351  78.0693130  63.7061577  49.6905594
  55.6089211  49.7626877  52.0700302  55.3834190  48.9614258  51.5974197
  55.6130142  49.5040703  52.9916229  30.2761822   1.6388977  70.2119598
  30.4410820   1.2543901  71.0728836  31.0755501   1.4650979  69.7149277
  23.2200394  29.5292568  22.1318283  22.7422028  28.8070660  21.7239742
  23.5727291  29.1569214  22.9400387  75.7098923  57.0659485  40.4103966
  76.2447739  56.2838058  40.5459900  75.0271912  56.7864494  39.8004532
  31.8958931  35.7286034  35.5925522  31.6892071  36.5834389  35.9704018
  31.0512238  35.2821579  35.5337830   5.8088980  67.9019394  78.1099548
   4.8976092  68.1538086  77.9604721   6.2005501  67.8904190  77.2366257
   7.4457932   9.8889618  64.1359177   6.7900553   9.2020683  64.2559891
   7.7885714  10.0491886  65.0151596  57.3355446  64.5844803  64.7872849
  58.2002602  64.2022552  64.9369659  57.0524139  64.2160492  63.9504318
  13.4050007  26.4687576  69.7115860  13.3943291  27.2099209  69.1059494
  13.1739082  25.7138424  69.1703568   1.7990969  20.8378925   8.8857555
   1.3466023  20.9120674   8.0455303   1.1514703  21.1188507   9.5321875
  48.2731857  44.4772110  16.9062080  48.3485680  45.0152931  16.1181622
  47.3503571  44.5408592  17.1523151  13.0927334  62.8810577  70.1346054
  13.4007759  63.5170326  69.4889526  13.2591801  63.2981453  70.9799271
  60.4198380  43.5688629  49.8862686  61.0127258  44.3133507  49.7840271
  60.9746819  42.8652916  50.2229691  75.1187973  55.8834648  28.0703220
  75.4134979  56.4474678  27.3552780  74.9275436  56.4870415  28.7882004
  40.2951469  11.9597921   1.2251967  40.3044662  12.6697416   1.8671606
  39.8945656  12.3462725   0.4464796   9.8547659  29.1799450  29.9619884
  10.3780622  29.7007103  30.5712471   9.9620953  29.6190014  29.1182213
  76.1381531  22.2062836  16.7869663  76.2661438  22.7087612  17.5915565
  75.3666916  22.5996342  16.3790989  55.4962502  10.6988831  38.6171150
  56.4424171  10.8275118  38.6838684  55.1327553  11.5843019  38.6287613
  10.2249174  29.9511471  41.9992714  10.6506958  29.9979401  41.1432610
  10.2327614  30.8528786  42.3202896   4.1092634  60.7730293   5.7367983
   4.0741606  60.6280251   6.6823001   3.2466094  60.5040321   5.4210429
  68.5664139  68.0504913  87.5436249  67.8931198  67.7569122  86.9298553
  68.4049377  68.9884415  87.6456451  32.5623512  39.6191826  14.0924568
  32.2190590  39.4558868  13.2139826  33.4312820  39.2177162  14.0884981
  13.2722759  13.2690039  66.4169922  13.4779720  12.4012175  66.0693359
  14.0633821  13.7841148  66.2587357  15.0617933  20.5864162   2.4121208
  15.3037510  21.2051086   3.1012564  15.6196766  19.8243294   2.5677552
  18.1481705  25.1195850  85.8990936  17.6324081  25.6334229  86.5205383
  17.7475624  24.2504215  85.9163589  40.4472771  42.0597076  66.4479218
  40.4313011  41.1118240  66.5801773  39.9632759  42.1960869  65.6334381
  21.0933743  16.9171810  10.2350998  21.8492451  17.4874229  10.0946894
  21.4365196  16.0313606  10.1176062  11.6132364  48.2268219  18.1517296
  12.3018742  48.0620613  18.7958298  11.4023886  49.1543884  18.2584877
  64.4895859  29.1097431  41.8516502  64.2851105  30.0441723  41.8872147
  64.9533081  28.9974518  41.0218391  82.5903397  13.5249491  12.2170095
  82.8227310  14.2596912  11.6492262  81.7102356  13.7334366  12.5303545
   1.4555628  42.7246056  14.0693531   2.0986483  42.3524628  13.4658785
   1.0177454  41.9640961  14.4516802  81.8051987  38.6580772  28.8081837
  80.9948807  38.4671593  29.2805824  82.4409485  38.0361023  29.1620216
  78.7256470  55.4173012  61.5542908  78.7953796  56.3322411  61.2817955
  78.7157135  54.9233131  60.7344666  76.8937988  20.3037720   4.9060197
  76.9697647  20.1564426   5.8487577  76.0693665  20.7792091   4.8035645
  39.5257797  60.6805496  82.0218353  40.0024147  60.6666451  81.1918640
  38.7400093  61.1953964  81.8381882  76.0320892  70.7441711  73.3876495
  75.7360229  71.2468262  72.6287537  76.5476074  70.0289536  73.0149078
  21.6038628   4.7976985  66.9816437  21.9975128   5.6406250  67.2069092
  21.9749317   4.1832070  67.6148453   4.1335068   2.2940507  45.3652191
   4.8783436   2.6828694  45.8237686   4.5272627   1.6741037  44.7513351
  71.6491699  13.0826397  15.6199493  71.5020142  13.1553984  14.6769314
  71.3250351  13.9093075  15.9774256   9.0440702  57.1232224  68.7479248
   9.5534897  57.8391457  68.3682175   9.5869379  56.7974777  69.4658508
   6.9380474  44.3174896  19.8218975   6.8182940  44.7483673  18.9755898
   6.0977097  43.8934364  19.9958057  47.6274300  69.4997711  40.5839882
  48.1552696  69.5199203  41.3822441  48.0306091  70.1543045  40.0136681
  72.7976913  15.0417109  70.2137527  73.3104324  14.2921352  69.9113235
  73.0189285  15.7451401  69.6034470  68.8753204  50.3059731  15.1309261
  69.7866211  50.4048080  14.8552685  68.5068817  49.6708183  14.5168695
  49.1704178  22.5061817  79.0967636  49.3688698  22.3319778  78.1767120
  49.2505341  21.6536922  79.5246353  19.0262814  40.8284264   9.8317347
  19.2526340  41.7548409   9.9138975  19.8522701  40.3664322   9.9750309
  48.2245178  22.8812313  30.8020878  49.0478325  23.1434402  31.2139530
  47.5995750  23.5571594  31.0643806  49.7459259  56.5775986  28.4506130
  49.3188248  57.2609978  28.9671211  49.4133835  56.7057381  27.5622272
  57.2542000  17.0264721  41.9817696  57.4287224  16.2033691  41.5253983
  56.4914360  17.3918190  41.5335083  71.0096817  63.5004120  65.7245636
  71.5946808  63.3345947  64.9853058  70.4525681  62.7232666  65.7681351
  58.0163536  24.9003963  76.8695221  58.2465134  24.4505825  76.0565491
  58.7901001  25.4224148  77.0817490  57.4021721  18.7348099  87.8628235
  57.0570412  17.9028568  87.5388336  57.1638794  19.3716125  87.1890793
  57.1875343  50.8532448  28.4355278  56.7231674  50.0854416  28.1022549
  57.5814705  51.2506752  27.6589355  22.0907326  10.1545343  32.1592636
  21.1984978  10.1661520  31.8128338  22.4201202  11.0394773  32.0023804
  83.5194473  42.9010315  71.2137375  82.9875259  43.6953163  71.1646957
  82.8907700  42.2026253  71.3960114  12.8659906  54.1629486  19.3989449
  12.4356775  54.2495155  20.2495728  13.5183544  54.8633347  19.3881645
  74.6694489  40.8130379   2.8622241  74.0861740  41.2394867   2.2344015
  74.1614685  40.0742760   3.1975226  86.1964569  49.7279243   9.0384321
  86.2200089  50.5925484   9.4484377  85.3439941  49.3690834   9.2849665
  58.6562614  24.1656628  70.8127670  58.5355721  23.4747047  71.4641113
  59.2886925  24.7631741  71.2118301  18.2132092  40.5025520   0.4960802
  17.2851124  40.6850128   0.3491855  18.2429047  40.0933456   1.3608923
  31.3957272  10.8779459  71.2117691  30.4900284  10.7804308  70.9177780
  31.3623943  10.7030888  72.1522751   6.6931934   9.3674803   6.7306323
   5.7806587   9.4754190   6.4625616   6.7283177   8.4907990   7.1132932
  81.3270874   0.4486063  63.4901466  80.5801926   0.0147151  63.0776939
  81.4610367  -0.0307892  64.3077469  55.2817650  14.4730406  19.3163452
  55.3716278  13.5507746  19.5563068  54.3549919  14.5749531  19.0996895
   9.9034262  11.2522650  51.0450325  10.5036001  10.5512657  51.2992439
  10.2768755  11.6063681  50.2379532  32.1770477  29.4116154  14.3205900
  32.1400833  30.1240349  13.6823711  33.0846291  29.1090221  14.2894678
  49.1734581  25.5406208   8.3967295  49.0309944  26.3963146   8.8013563
  49.1362762  25.7115116   7.4556422  71.7319260   7.6146154  49.6413193
  71.6329041   7.4413238  50.5774803  72.6057053   7.2869973  49.4282074
  10.2177048   7.0619569  16.8399639   9.6593924   6.7401996  17.5477715
  10.5268879   7.9141135  17.1473179  26.3456020  64.8509674  21.8714104
  25.7452602  65.5917816  21.7876377  27.2130222  65.2277145  21.7234936
  49.7157402  58.3654747  53.3051987  50.5228043  58.3933449  52.7912865
  49.3982773  57.4681282  53.2040825  71.0190735  30.6484375   0.9643813
  70.6301422  30.8659306   1.8115302  70.8324966  31.4083118   0.4130092
   2.3485739  66.3662796   8.2012224   2.3369482  66.9761887   8.9388599
   2.9534578  66.7613373   7.5733056   3.9120080  20.6735058  12.7307425
   4.3734508  21.3457546  12.2293596   3.0669625  21.0702515  12.9422216
  86.0666428  49.5001755  47.1560249  85.8464355  49.2824707  48.0617561
  85.2811584  49.9276390  46.8146782  13.4774199  49.2459869  73.3173218
  12.7153940  49.5255623  72.8099899  14.1945591  49.7900810  72.9918900
  12.5244646  17.2842293  16.8700428  12.8432455  17.1365929  15.9796419
  11.8904982  17.9960289  16.7825298  40.7942314   1.0668123  42.7422600
  40.1804008   0.6457878  43.3440781  40.9045677   1.9508487  43.0923119
  11.3050566  18.4002857  42.9890099  11.6808214  17.7904301  43.6239204
  10.4616966  18.0127964  42.7548523  76.8538742  34.7078972  36.1988716
  77.6128387  34.6639442  36.7804909  76.2755356  34.0100212  36.5066414
  20.3574066  45.1020393  81.4992447  19.6036682  45.3041573  82.0535583
  21.0166569  45.7508698  81.7454987   7.8212137  57.3220139  53.9386024
   7.0643024  57.8633728  53.7144432   7.5254169  56.4237442  53.7907944
  73.4324493  50.3096199  25.0603962  73.1868668  50.4021339  25.9809208
  72.7835541  49.7058868  24.6989059   5.0467577  26.4118347  86.3748856
   5.1464276  27.2457008  85.9155731   5.4724517  25.7718143  85.8044510
  29.2784958  30.9156914   7.6279960  29.9407063  31.1930065   8.2610874
  29.1534214  29.9833679   7.8050842  41.2577477  42.6706924  86.5227966
  42.1712265  42.8107605  86.2734680  41.3012009  42.3606224  87.4273376
  53.5310097  28.0687370  10.8290701  53.5597649  28.8263226  10.2447166
  53.7406464  27.3237171  10.2658367  44.3447990  66.9722366  59.8789635
  44.9680214  66.2791748  60.0969048  44.7603073  67.7753830  60.1928711
  13.7672157  46.4862404  73.2950668  13.6735744  47.4379768  73.3357391
  13.3149624  46.1674767  74.0761490  86.6300964  24.5198269   9.6929541
  87.3093109  24.5768280  10.3650045  86.1948242  25.3719215   9.7194605
  71.9386063  57.7398453  72.7690735  72.0185852  58.6467247  73.0647125
  71.8941727  57.8020134  71.8149261   7.8506904  17.1414127  63.2325363
   7.4297280  17.9038486  63.6296692   8.7752953  17.3819485  63.1735382
  23.7154121  61.7914696  44.2152138  24.2611771  61.5915604  44.9757462
  22.8559456  61.9951668  44.5840683  65.0169296  25.1004925  26.1715584
  64.5288925  25.8853912  25.9225903  65.4615707  25.3425503  26.9839230
   6.6837201  69.8536682  69.8704376   7.3239012  69.6260834  70.5446854
   5.8572807  69.4952621  70.1941223  21.1326332  41.0105362   6.5602951
  20.3272705  40.6512680   6.9325180  21.6306591  41.3172798   7.3179955
   0.4212831  15.0066566  28.9165230   0.4562587  14.3779631  29.6374626
  -0.3907903  14.7970905  28.4551659  24.2807808   3.9448600  46.1439056
  25.2152710   3.7377882  46.1528664  23.8560257   3.1490057  46.4639549
   6.3326173  64.3157501  62.8332062   5.4324522  64.1751480  63.1267471
   6.8313589  64.4393158  63.6408081  81.5899124   6.7010050  72.2378845
  81.4536972   7.4746618  72.7848129  80.9100571   6.0876923  72.5169449
  86.4660187   7.1906466  52.5776367  85.9000778   6.6370826  53.1156921
  86.3523102   6.8563094  51.6879616  57.6722488  23.7083855  56.1015129
  58.0652161  22.8747635  56.3601303  57.4546585  24.1375427  56.9289856
  58.5946960   0.8909932  14.0665417  58.9426155   1.0189924  14.9490395
  58.7434273  -0.0365277  13.8826504  44.3966942  43.7615166  27.2142239
  43.9498100  42.9757080  27.5289192  45.0865135  43.9191246  27.8588486
  51.8397255   2.3952968  28.1868343  51.0166473   2.0555110  27.8356724
  52.0270576   3.1676228  27.6533070   1.6785042  56.4000244  33.9743233
   2.6155832  56.2509842  33.8482208   1.5725113  57.3471642  33.8853073
  76.3129349  32.9637756   4.5402594  75.9144592  32.2208633   4.9936099
  76.2244110  32.7526855   3.6108313  43.9191284  70.4985428  33.9394226
  43.0652161  70.8307495  33.6624756  43.8059845  70.2908325  34.8669395
  52.2365837  14.8630333  40.7516365  51.9336548  15.6279898  41.2408295
  51.6798706  14.8406086  39.9733047  86.1720810  53.8898125  18.4198780
  87.0567017  53.6161766  18.1773815  86.2435455  54.1431084  19.3401852
  76.6801224  16.6493168  52.1182632  75.9833679  16.2013283  52.5979233
  76.4779434  16.4886494  51.1965561  68.2962418  21.8260365   4.5726423
  68.0741882  20.8952732   4.5480652  69.2428970  21.8427887   4.7133131
  39.8594131   3.1347256  38.6683273  39.6554031   2.3235171  39.1336784
  39.0580940   3.6545768  38.7305832  45.5984192  17.3390827  51.4261780
  46.5473213  17.4312286  51.3405495  45.3257027  16.9071884  50.6166573
  52.8993835  13.2352133  31.1305237  52.4272461  12.4904957  31.5029678
  53.0565643  12.9877129  30.2193336  74.5302887  30.4828377  45.7066879
  74.3436584  29.6849861  46.2014961  74.0163040  30.3927574  44.9042358
   9.5815439   9.5107708  85.5832291   9.0643253   9.6755896  84.7948456
  10.3456154  10.0800352  85.4917679   1.4592392  57.5997429  87.5121613
   0.5778655  57.8253746  87.2146683   1.3488456  56.7740479  87.9836197
  82.4528961  53.2840309  86.4080887  82.5096130  53.0514793  87.3348770
  82.8779755  54.1396523  86.3493958  76.0690079  15.8374443  85.7764816
  75.8278275  14.9693565  85.4532394  75.6371613  15.9044132  86.6281052
  28.2585163  33.6285629   4.4779444  28.3198528  33.5212479   3.5287588
  28.0067234  34.5439873   4.5997100  29.7286186  58.6977539  84.3729782
  28.8517017  58.3495598  84.2116928  29.7424088  59.5356827  83.9104691
  62.1506615  28.0235882  48.6879997  61.5538292  28.5826855  48.1905746
  61.5800476  27.3855019  49.1163406   7.2986350  60.6099434  68.6583176
   7.1688318  60.2843018  69.5490189   8.2107754  60.4005928  68.4573135
  34.6611786   7.1482511  30.4547291  34.3263588   8.0312834  30.6108742
  35.6131439   7.2455053  30.4777794  50.2570992  10.0526075  44.0287323
  49.9674835  10.8917150  44.3868561  51.1492805  10.2175112  43.7236938
  68.3886566  41.7608986  18.8878155  68.6902542  41.0505753  18.3215008
  68.4352112  42.5424500  18.3371410  11.2031212  19.2619762   5.1118264
  11.3875370  18.3682995   4.8227515  10.5662575  19.5920944   4.4780612
  82.7913437  65.3531342  42.3888245  83.1749191  66.2181625  42.5331612
  82.2001953  65.2264099  43.1309280  57.6027489  58.2426910  17.2514210
  58.1118431  58.8652153  17.7705688  57.3741951  57.5471230  17.8680115
  40.1052780  49.7236671  24.4498901  39.7513657  50.5987968  24.6084080
  39.7389946  49.4668503  23.6036549  86.0470352  12.3014355  81.7565231
  86.0179672  11.7487583  82.5375061  85.3255768  11.9855051  81.2125397
  14.2554293  12.4530582  61.5086365  13.7070303  11.7358980  61.8267136
  14.8439770  12.6463318  62.2383537  78.7311554  65.1962280   8.2161350
  79.0822601  64.5887299   8.8672180  79.5019913  65.5185318   7.7490582
  19.0373249   8.2572966  34.9841003  18.9229012   7.9395046  35.8797264
  18.1532288   8.2631855  34.6172600  51.3913841  61.0812874  60.5974846
  50.5443420  61.2686462  61.0020142  51.1721382  60.7279816  59.7353134
  29.9276867  59.4345055  13.3846626  30.3356056  59.9357872  12.6785812
  30.6430473  59.2540398  13.9945173  15.4330225   4.6169729  29.7619495
  14.6572819   5.1698055  29.8559418  16.1578846   5.2351880  29.6691284
  40.8209267  48.8654594  16.6393719  41.6124725  48.5274353  16.2205372
  40.7081947  48.3174057  17.4160080  16.1983147  33.6844826  88.6048737
  16.8481178  34.1721725  88.0987625  15.8105755  34.3366470  89.1884613
  18.1830254  18.6404209  10.3382998  18.7226372  19.3335991   9.9580994
  18.4064713  17.8586712   9.8331537  66.2351990  52.1675110  86.0296326
  66.7870255  51.5753784  86.5406113  66.1658478  51.7494164  85.1713638
  53.6900749  20.3598099  76.6726151  53.1003113  20.6844997  75.9921875
  53.1094513  19.9752617  77.3292999  50.0087738  28.2439537  19.4180222
  50.8958817  28.0351849  19.7107468  49.4573097  28.0675697  20.1802616
  84.9007263  67.6939316  71.3605804  84.4415436  66.8676529  71.5110931
  84.3631897  68.3507385  71.8031769  52.1105042  43.6252632  83.4301224
  51.5428085  43.2486458  84.1025162  52.9117508  43.8610535  83.8977051
  54.3225136  66.6098022  83.4862289  55.1116714  66.2539520  83.8946838
  53.9945488  67.2507477  84.1169891  65.6712036  13.2824173  65.7484283
  65.2426147  14.0968933  66.0114365  66.5583344  13.5465117  65.5045395
   6.6327224  20.0379677  35.7357750   7.5769105  19.8818626  35.7164993
   6.5106268  20.6819744  36.4333267  65.9204712  67.8555374  73.2124710
  65.8082657  68.8038864  73.1469955  65.3740692  67.6004715  73.9558563
  52.0142441  38.5423927  29.2419262  52.2495117  38.8544617  28.3681450
  52.6644897  38.9396248  29.8212528  85.1944656  43.9803162  67.7612686
  84.8345261  44.1592484  68.6299820  84.4843445  43.5405998  67.2937088
  44.0274467  61.9146843  18.2608757  43.2887840  61.6753044  17.7011395
  43.7344780  62.7014847  18.7205963   8.6036510  67.3652496  32.4228325
   8.4370165  68.2676773  32.6950264   8.2532558  66.8314209  33.1359100
  77.0152740  41.3641472  83.1018066  76.3697739  41.5332451  82.4155350
  76.8715668  42.0605240  83.7426224  83.4129791  67.4764633  39.2836876
  83.6492462  66.5569687  39.4058952  83.2191696  67.7932510  40.1659088
  19.2161274  33.1816025   0.5413022  19.1005840  32.5534706  -0.1716736
  18.3251858  33.4014091   0.8135886  47.6380806  41.8435326   5.7241306
  46.6896133  41.9207191   5.8274779  47.9842606  42.6671524   6.0677009
  53.4461288  69.6990967  41.0105515  52.6312637  70.1994324  41.0540428
  53.4863129  69.3848419  40.1072998  78.5111237  58.9300079  14.4349728
  78.0691681  59.7016792  14.7891426  78.2318954  58.8928604  13.5201597
  71.4226227  17.1684856  30.1803112  72.0163040  16.8017750  30.8355217
  71.2572403  16.4452572  29.5754795  10.3239899  64.2226639  30.4147110
   9.5464592  64.3198242  29.8649502  10.7021494  63.3845100  30.1487694
  43.5025024  61.0375061  66.9824677  42.8405151  60.3657646  67.1460800
  44.2718964  60.5492172  66.6894760  50.3810081  12.0449066  32.3960876
  50.1195107  11.1385441  32.5584412  49.7478600  12.3654652  31.7537479
  42.8833733  60.1387634  52.5352707  42.9322357  60.2735634  51.5888710
  42.0074730  60.4410782  52.7753563  77.8864975   2.7830963  35.6409874
  78.5537033   2.8219941  36.3262253  77.7168503   3.6987650  35.4196243
  61.8743439  68.0070953  28.2719574  62.5595665  67.6761780  28.8526440
  61.3561745  68.5937576  28.8229218  51.3461914  52.4096260  62.2734642
  51.4212875  51.5382652  61.8844681  51.8286705  52.3463364  63.0977478
  75.7797699  21.7593727  86.7383804  76.6749496  21.4520664  86.5953751
  75.2545242  21.2700081  86.1052399  38.2801208  40.6939163  18.2753296
  37.9853172  41.5314941  18.6328068  38.1187019  40.7649231  17.3345146
  39.1394005  57.5958519  55.3635902  39.8782959  57.4871445  55.9622955
  39.1785431  56.8283081  54.7929916   3.3001962   5.0259295  57.1293983
   2.5378561   4.7166986  56.6400642   2.9309967   5.4646888  57.8958244
  36.4925385  63.2352104  71.3542709  37.2431374  63.1791649  70.7629242
  35.9064445  62.5361862  71.0642853  37.6179771  70.3110428  27.4487915
  38.2511024  69.6675720  27.1304703  37.1982574  70.6462860  26.6565304
  77.1301575  68.3097839  72.4813995  77.8438644  67.7034454  72.6794052
  77.1874847  68.4465714  71.5357590  48.6233521   9.9913702  67.1930084
  47.7742996   9.8640671  67.6162491  48.8279877   9.1402225  66.8058319
  10.7022209   9.5519133  21.7464638  10.4124279   9.5835524  22.6581917
  11.3067150  10.2892122  21.6615582  58.5129089  20.5768642   3.5826585
  58.0451088  20.1304474   2.8768935  57.8226509  20.9733829   4.1142120
   4.6199517  14.0932169  20.9030933   3.7179060  14.1814661  20.5952644
   5.1278949  14.6589861  20.3216038  41.7180481   6.8146939  80.9333496
  41.7419853   6.2662959  80.1491852  42.5958519   6.7367573  81.3070068
  76.2399445  42.3381424  45.1401024  76.7673645  41.6072655  45.4624023
  76.6322174  42.5628395  44.2963829  72.3720093  15.8127470  72.8140182
  72.4387054  15.4697218  71.9228897  73.0703888  16.4647141  72.8725967
  22.3809452  37.1676598  63.2133369  22.6559067  38.0790863  63.1136780
  22.0940018  37.1022797  64.1241684  30.0235081   6.1017017   1.5459843
  29.0897026   5.9044809   1.6190763  30.4105072   5.3007722   1.1924641
  52.0910301  65.6841812  87.1039963  51.7884293  64.9822617  87.6801682
  52.3947830  65.2332077  86.3162231  34.3882141  57.2661209   2.0620990
  34.7405624  56.4724846   1.6593305  34.4547882  57.9319229   1.3776196
  44.5628204  63.6299553  42.7395859  44.9414101  63.2296944  43.5223351
  45.1780586  64.3244629  42.5042610   4.1392002  66.8701859  11.9642887
   4.0510216  65.9388123  12.1667738   3.8117487  67.3170471  12.7448807
  52.9467659  30.2157269  79.3580933  53.6678581  30.4411259  79.9458466
  52.9770660  29.2609577  79.2970047  58.5451088  39.9525185  61.7082062
  58.5531540  39.9851036  62.6648178  58.4886436  39.0197678  61.5007935
   9.1271772  19.6096992  79.6931839   8.8507137  20.4843636  79.4197617
   9.9444809  19.4575996  79.2187271  41.7891006  56.1878357  27.0067997
  41.7049751  56.9272804  27.6087761  42.7045784  56.2088509  26.7280712
  35.5295181  44.1691475   0.6626550  34.7546844  43.6139793   0.5751768
  35.8262138  44.3096886  -0.2364839  69.4625397  68.2250900   7.6637492
  70.1776733  67.6127472   7.4909530  68.9511642  67.8068161   8.3564043
  82.8032074  19.3040714  66.0533524  82.1142273  19.5808678  66.6574478
  83.6185226  19.4815998  66.5223770   0.8834700  46.3137093  20.2797565
   0.7562261  46.1560936  19.3442364   0.1987895  46.9409103  20.5122738
  63.4065094  47.1647263  75.7998199  63.2549896  48.0802231  75.5650024
  63.1246490  46.6702576  75.0302200   8.0324726  16.9882030  77.2925873
   8.8295708  16.4667053  77.3869553   8.2707911  17.8526783  77.6274261
  85.2861404  40.5047073   7.2147369  85.6410294  41.1407661   6.5936804
  84.4461517  40.8761673   7.4843163  84.2456665  36.5222397  81.7001877
  84.9075012  35.8307991  81.6896439  83.9292221  36.5646744  80.7978058
  16.4008427  41.8686867  10.5768700  16.1026249  42.7537460  10.3671751
  16.7408161  41.5281563   9.7494106  82.0998611  50.8449211  50.4150162
  82.3720627  50.0200081  50.8170891  82.4988708  50.8304787  49.5450630
  51.0455017  52.6331291  82.5414886  50.6242752  52.1101685  83.2236328
  51.6106567  52.0138474  82.0796204  26.5398960  49.9745789  80.1431656
  26.6400547  49.4679604  79.3372269  27.2678032  49.6910362  80.6963272
  67.6088181   5.5645881  87.7266769  68.4831009   5.3518281  88.0531693
  67.0990753   5.7556720  88.5140076  41.5072403  41.7538948  13.3811359
  42.4367104  41.7056084  13.1575575  41.1018715  42.1843071  12.6283722
  72.0301132  10.2637806  59.2901649  71.9695358  11.1189432  58.8644180
  72.7652359   9.8313980  58.8555641  28.2213402  54.4114189   1.1314945
  27.8064461  54.0527153   0.3470029  28.2563133  53.6749878   1.7419672
  66.8255844  47.6857605  77.5475922  67.1425476  47.3859901  78.3995895
  65.9657974  48.0641556  77.7314987  26.1876316  42.6900063   9.2367058
  26.8478603  43.3280144   8.9660139  26.1487083  42.0641212   8.5135298
  84.0363693   4.9859543   1.0118386  83.7707748   5.8774462   0.7861508
  84.4845734   4.6642904   0.2296119  76.0606613  47.1403580  55.9412613
  75.7448196  46.2698517  56.1835289  75.7370071  47.7143707  56.6355171
  70.5942459  11.1520538  28.9745884  69.8747406  11.7691984  29.1075573
  70.6761398  10.6956291  29.8119659  20.9185791  25.6868114  14.5206833
  21.5743656  24.9900608  14.5474300  20.7375870  25.8097286  13.5888233
  73.9259567  17.6933365  47.3583908  74.2937164  16.8212624  47.2153091
  73.3294678  17.8255787  46.6215401  11.5783691  10.6681719  72.7483673
  11.7220201  11.5617981  73.0598602  10.9810209  10.7661095  72.0068741
  72.1367340  15.8265438  75.6655045  72.2347641  15.8716192  74.7144089
  71.8674469  16.7089462  75.9206161  57.5398140  71.6431580  11.5635891
  57.2574387  72.0834656  12.3652287  57.9657364  70.8417435  11.8678150
  25.8424072  11.4058580   4.3638330  25.2124043  12.1030331   4.5462523
  25.5818863  10.6899614   4.9433618  31.6039867  50.9160347   4.0439568
  32.2417641  50.3861542   3.5657341  31.7569427  50.7021561   4.9643326
  30.6607876  63.5701294  48.0937233  30.3527546  63.7398758  47.2034798
  30.3504391  62.6861839  48.2900848  13.4849434   4.7436700  13.7479944
  12.8432608   4.4781351  13.0892334  14.2173700   4.1395860  13.6260700
  12.1858587  40.3304367  62.6634445  13.0586195  40.2776451  63.0529747
  12.1151276  41.2340965  62.3558311  15.0105972  31.3127193  65.2017288
  15.2736511  31.4908009  66.1046753  14.3142738  31.9455261  65.0258789
  44.6351814   3.1780593  83.4014359  45.4924011   3.3325651  83.0045319
  44.6977196   3.5768430  84.2693558   1.6219792  30.3787212  64.2207108
   1.4786729  30.9721451  63.4834557   2.4880166  30.0034866  64.0613022
  13.5291128  15.0119190  36.8696594  14.1088715  15.3244181  37.5642509
  12.7001152  15.4633417  37.0284424  65.7774277  22.7464123  60.6122627
  65.5342331  22.6198425  59.6951675  66.6428604  22.3445606  60.6882133
  84.1651688  44.9160919  59.3516159  84.5702057  44.3996620  58.6548538
  84.2121353  44.3537254  60.1247711  77.1895752  44.2442245  19.9069157
  76.4024582  43.7047920  19.8314896  76.9315186  45.0952759  19.5528641
  63.7619400  50.8148003  37.9349670  63.5870438  51.7243462  38.1765633
  64.4076843  50.5167427  38.5755959  31.4588604  18.7628880  26.4215202
  31.1570053  19.4619732  25.8415260  31.0699253  18.9716587  27.2708588
  66.7013779  39.3626900  44.8341217  67.5765839  39.3806534  45.2213287
  66.3165054  40.2059669  45.0728416  74.6725235  45.8771248  49.0864182
  75.5885468  45.9206696  49.3607063  74.7060928  45.5363884  48.1925468
  21.1703491  69.0931015  88.3211441  20.5929604  68.7535248  89.0049133
  20.8838749  68.6486816  87.5232391  59.1726456  50.4876137  30.5980339
  58.3939323  50.4830971  30.0414238  59.3335533  49.5642509  30.7923012
  81.5060730  21.4256134  10.0739565  80.8193588  21.2838516  10.7255335
  82.2456589  21.7678986  10.5760441  54.2600288  46.3131676  51.5197639
  54.1852608  45.3847847  51.7405548  54.3543777  46.3260040  50.5673141
  86.6176605  63.0006485   0.2618275  86.9512863  63.7213783  -0.2724720
  85.7104263  63.2414932   0.4493004  27.2057590  61.5744400  44.8345795
  27.6993961  60.7813492  44.6258698  26.4171181  61.2569008  45.2744064
  55.2555695  60.2944374  73.4471436  55.1419067  60.8652992  72.6872559
  56.1593590  59.9859810  73.3819275   9.0787802  39.3133583  51.5183372
   9.1487513  39.1060143  52.4501877   9.3599653  40.2260818  51.4542885
  13.9386673  61.4115410   8.0272570  14.0551119  60.6755562   7.4264250
  13.9046621  61.0091743   8.8951149  33.7420578   4.2226849  19.2898979
  32.9697151   4.7302566  19.0407219  33.8715591   3.6118875  18.5643711
  25.0464230  10.8535748  68.5183029  25.5540085  11.6608019  68.6018143
  25.6502571  10.1618853  68.7888184  44.3599129  12.8894825  13.4771767
  44.4372787  12.0937576  12.9508038  43.5485916  12.7718544  13.9712954
  48.8504601  37.1050186  59.5283165  48.2005310  36.9051285  58.8546181
  49.6909981  37.0521431  59.0734253  61.3439140   5.7016869   8.1376896
  61.0712318   4.8871083   8.5599909  60.8053093   5.7541051   7.3481379
  53.7554932  40.5043221   1.1617079  54.3371582  41.2412987   1.3481524
  54.2808418  39.7287827   1.3586341  43.1241531  51.7427139  76.9427643
  43.0451279  50.9261513  76.4496002  43.7417336  52.2698555  76.4358597
  17.0111847   7.0543590  24.5043831  16.8565121   6.2021065  24.9117832
  16.1688271   7.5049739  24.5644913  57.1398239  70.9315262  29.7709751
  57.5791283  71.2147522  28.9690876  57.3453979  71.6135330  30.4103832
  55.2708626   8.5268869   3.6549881  55.9103813   9.2363472   3.5924077
  55.0369225   8.4964428   4.5826616  18.9319286  69.4736633  42.4375496
  19.1713982  68.8660889  41.7377396  19.7613335  69.6833725  42.8669014
  14.2272968  11.5801477  78.2393188  14.8861532  12.2703686  78.1635818
  13.4481535  11.9457645  77.8203964  74.6912003  67.0866776  59.2899246
  74.7377548  66.5735168  58.4832458  75.5548096  66.9834595  59.6896248
  34.3235626  70.5515442  60.6079750  34.1736679  69.9074097  61.2999687
  33.7972145  70.2392731  59.8719902  79.9929733  37.2122993  85.7307739
  79.7867050  37.1693382  84.7970505  80.1105804  38.1456871  85.9073792
  65.0317307  39.2785110  31.2323112  64.3050079  38.9417572  30.7081947
  64.9817200  38.7891998  32.0534744  37.7016449  66.6410751  56.3263588
  38.5089760  66.3793030  55.8837242  37.7772217  67.5906219  56.4206009
  21.7938690  56.7752495  19.5488758  21.2046318  57.3487511  20.0389080
  22.6445961  56.8870544  19.9731331  56.8244553  63.1858063   9.7441502
  56.3971825  63.0278664   8.9022913  56.1229324  63.5027046  10.3130722
  18.0161362   9.6075735  17.1304398  18.3970337   9.0846167  17.8358936
  17.8881893  10.4739447  17.5167847  62.9710922  33.9776268   1.5747484
  62.2037048  33.4683609   1.8355149  62.7109833  34.8888664   1.7097225
  75.4964600  50.4601250  15.7716599  74.6621857  50.9212379  15.8587599
  76.1206284  51.0007706  16.2557564  24.9094563  30.9742184   3.8592496
  24.7146969  30.9820957   4.7963934  24.5983162  31.8223324   3.5428214
  34.3664818  59.5975952  64.2892303  35.2279015  60.0077209  64.2118607
  34.2357788  59.4908638  65.2314377  12.8291111  21.8096962  65.9526215
  12.3292866  22.1625557  66.6887589  12.4485569  22.2299080  65.1813660
  48.2328110  57.6534920  65.7627640  48.8394775  58.2162590  65.2816391
  48.6115608  56.7772675  65.6919327  48.7114525  52.9592552  53.5375671
  48.9909401  52.0471954  53.6167259  47.7578964  52.9124222  53.4685020
  12.2171068  13.3585377  88.3772125  11.5061598  13.6184206  87.7913437
  12.7792358  14.1315384  88.4292831   8.5383930   1.7444192  83.7446365
   8.0135298   0.9771925  83.9729233   8.4812021   1.7985162  82.7906799
  59.9893799  10.6649075  15.0992899  60.6033249  11.1429472  14.5418110
  60.4246063   9.8305521  15.2743845  15.0570850  22.7855816  70.2547913
  14.4699326  22.7216797  69.5015259  14.5401688  22.4562283  70.9900131
  59.3704948   1.0270514  19.5542393  60.1561279   1.3344045  20.0065041
  59.3443108   0.0868241  19.7317753   1.2895020  19.5496483  79.7462006
   0.5598588  19.4750710  79.1311493   2.0715957  19.4529076  79.2028732
  26.4864445  18.6587200  81.1956253  26.3419247  17.9620686  80.5552902
  25.7309875  18.6063862  81.7810974  40.4042053  16.3427200   7.5815802
  41.1668892  16.8046627   7.2335114  40.5147820  15.4396763   7.2840624
  11.8380966  66.0228119  67.9699860  11.1048288  65.6806259  68.4813156
  12.0810995  65.3026428  67.3881454   9.6929007  66.0250549  50.3095093
  10.0580254  65.5656281  51.0657082   9.6473074  65.3589172  49.6236382
   3.4061203  36.9041023  63.0216293   2.5736389  36.7510757  62.5746536
   3.1971350  37.5396767  63.7061768  67.2016983  56.3096962  57.9662476
  67.2957230  56.8825989  57.2052116  67.2449188  55.4239159  57.6060257
  14.5445147  15.7219982  18.6785202  14.5857954  14.9743099  18.0822887
  14.1929102  15.3604488  19.4920845  76.1494217   5.1589184  74.3038406
  76.4145584   4.3376760  73.8897247  76.4913025   5.8403301  73.7250290
   3.9980755  43.2023582  64.8706818   3.2788396  43.6879501  65.2745743
   3.5746140  42.6486282  64.2147141  28.1337814  54.1213875  77.7420959
  27.7450867  54.5672455  76.9895248  27.4810448  54.2103081  78.4365463
  65.6165009  42.9309883  10.6363802  64.8395920  42.6766434  11.1343346
  65.4016647  42.7129822   9.7294340  36.2909660   5.7313018  46.5830193
  35.6069260   6.0179334  45.9779053  36.7180557   6.5410166  46.8626404
  11.0406322  20.6303692  85.2023239  11.1345205  21.2165813  84.4514771
  11.1876907  21.1912251  85.9639282  57.2438965  13.6798372  54.4137993
  57.2701569  13.1524172  55.2121544  56.6003227  13.2407341  53.8577156
  39.3143730   7.6460214  76.5085754  39.6048317   8.4098225  76.0101013
  38.4139290   7.4992604  76.2189331  22.9808731  49.2193832  36.9119835
  23.2273903  49.9819832  36.3886261  23.6245003  49.1966743  37.6201210
  71.8883896  28.8918953  34.9592819  72.4082718  28.1343231  35.2276764
  72.3535614  29.2450733  34.2009239   8.1512938  28.2887669  34.9168663
   8.8571367  27.8624516  34.4307861   8.2900505  29.2243195  34.7694855
  84.0423431  54.1670456  21.7259769  84.0513153  53.4744301  22.3866119
  84.9660110  54.3200340  21.5267963  62.1379318   0.5339578  74.9329834
  61.2560120   0.4557236  74.5692139  62.6003685   1.1047533  74.3193283
  -0.0915434  21.7920570  10.5700102  -0.0341613  22.7320385  10.3986177
   0.3501363  21.6745453  11.4110470  24.7065563  47.8223839   5.8881540
  24.6947441  46.8660927   5.9281206  25.5207043  48.0329590   5.4309320
   3.6304481  26.7868328   2.2228570   4.1381888  27.3127804   2.8407657
   4.1202178  26.8421383   1.4023089  47.1753349  45.3128853   4.5998316
  46.3292198  45.2147789   5.0365171  47.0207901  45.0059853   3.7064345
  14.3705072  -0.3160779  11.4146137  14.8662977   0.4380251  11.0956278
  13.7632217   0.0509263  12.0570660  71.1269684  49.2366409  47.0165176
  70.5488815  49.5905418  47.6923904  70.6735764  49.4197464  46.1936340
  36.1370163   5.2350435  32.9664040  35.9195404   4.6301827  32.2571220
  36.5115547   5.9972410  32.5248070  56.4840088  69.1611481  85.8122864
  56.9470825  69.6457901  86.4956055  56.2951202  69.8160934  85.1402740
  72.6987305  27.1752930  71.9650879  72.8732529  27.7411861  72.7171097
  72.7445602  27.7606449  71.2091141  37.3238297  29.5317650   1.1830556
  37.1897697  30.2754745   0.5955569  38.0802193  29.0720253   0.8187097
  49.3520432   8.8599520   4.3957410  49.3243713   8.8062067   3.4404519
  49.4803429   7.9558926   4.6828790  79.4049683  62.1521149  68.4313049
  79.7311935  61.4516449  67.8663712  79.0254822  61.6965942  69.1827850
  29.4622612  53.4206467  50.5619469  29.9999695  53.2704430  51.3394699
  29.0600471  52.5710831  50.3811264  46.1719437   7.3217134  34.8295250
  46.9670410   7.6525049  34.4116402  46.0385284   7.8990164  35.5812912
  60.5283012  49.3839073  64.4882507  60.1222382  48.8269844  63.8240395
  60.0992126  49.1328621  65.3062363  64.4102402  57.9789886  21.7379112
  64.7491379  58.5199509  21.0246487  65.1448669  57.8967552  22.3460159
  19.7988167  67.9112549  61.1559753  19.9985619  67.4481201  61.9695129
  19.9391861  67.2598190  60.4688454  45.8669548  64.9312286  40.4876480
  45.1414413  65.5486984  40.3949165  46.6484070  65.4490967  40.2943077
  65.4822235  26.0994968  11.4136314  64.8958511  26.7134686  11.8557119
  66.3385010  26.5266323  11.4375877  21.5196648  45.4137573  60.8919868
  22.1171627  45.5805397  61.6209679  20.9778881  44.6825981  61.1888313
  22.4301853   4.2023225  20.6588631  23.2595730   3.7323020  20.5726643
  22.6104813   5.0731659  20.3048058  52.0397110  60.5042267  80.5516815
  52.1588287  59.9936485  81.3525238  51.0967484  60.4784470  80.3892288
  83.3321228  47.6852875   5.3188663  83.3985596  47.0470276   4.6086283
  83.7418594  47.2531967   6.0682950  51.4839706  35.5237274  24.8918419
  51.2435455  34.9079628  24.1995564  51.4110794  36.3855553  24.4817543
  13.4764223  35.2627144  26.8442192  12.8732433  35.4907074  27.5516262
  14.2905293  35.0283890  27.2898121  19.6072865  51.3961487  79.3617325
  20.0357952  50.6913071  79.8473358  18.7040043  51.3904343  79.6784058
  24.5778160   5.2266178  53.9846382  24.3578091   4.3154984  53.7904968
  24.8312473   5.5971818  53.1392441  70.5952377  65.1587296  40.9026833
  71.4557495  64.8059464  41.1291504  70.0336075  64.9099045  41.6367760
  31.6622658  11.9100733  82.7919083  31.5275803  11.3241835  83.5367737
  31.6106243  11.3389130  82.0255203  61.2361298  20.2206688  41.6129761
  62.1707039  20.4196472  41.6696358  61.1502609  19.3569069  42.0164261
  78.8847351  41.5551376  30.4223938  78.3624954  42.3528824  30.5066280
  78.5116653  41.1034508  29.6654072   7.6478586  52.6406555  15.7025671
   6.7001224  52.6582565  15.8356752   7.8921905  53.5602531  15.5982628
  68.5659027  37.2804184   7.0788240  69.3749390  37.4106026   6.5841088
  68.7928848  37.5215645   7.9769092  63.2931976  11.9799261  83.0103912
  63.3990364  12.4530268  83.8357468  64.1715164  11.6610470  82.8027725
  43.2223930   0.8445022  24.4531555  43.9974785   0.4349768  24.8375626
  42.8741570   0.1835371  23.8547497  31.8644295  67.2731247  66.2062454
  31.6847000  66.8950424  65.3454437  32.1463280  66.5302505  66.7400131
  53.0531311  35.7952919  22.1925125  53.0663910  36.6338692  22.6538658
  53.3334618  35.1567421  22.8481808  83.9437332  57.0315628  77.3378067
  83.6865005  57.2387733  76.4393997  84.2293396  56.1187210  77.3006744
  15.4038286  38.1194496   9.9368782  14.8347588  37.3678894   9.7708998
  15.3534946  38.6397018   9.1349821  58.4619789  58.6686554  81.0650253
  58.0826797  57.8045349  81.2252274  59.2633820  58.4909210  80.5726929
  72.2579498  15.4908829  26.2442589  71.5706329  15.8195715  26.8237343
  71.8100204  14.8704138  25.6692734   9.3337440  59.9247246  60.8656425
   8.5680017  60.4703712  61.0449181   9.7508640  59.8094139  61.7194252
   3.7821448  50.6661530  27.9359207   4.3852506  50.0104294  27.5858898
   3.7784116  51.3627739  27.2794609  59.3119965  16.3912792  12.5257311
  59.4715996  17.1129799  11.9175320  58.7335320  16.7628098  13.1917486
  65.9444275   6.4456525   0.6772975  66.3112564   5.8324203   1.3141772
  65.0465927   6.1424193   0.5424793  33.8443298  53.5459747  32.0425339
  33.1533089  53.8996811  31.4825191  33.5518303  52.6591225  32.2527046
  77.5367889  19.4075336  14.9092093  77.9376602  18.5746517  14.6605339
  76.6016159  19.2803822  14.7494717  58.7546005  65.8433838  71.8871994
  59.6862221  65.6453705  71.9825974  58.7287827  66.5936356  71.2933273
  44.6900940   4.8914371   3.5074711  45.2486877   4.3012981   3.0015674
  44.5036087   4.4116096   4.3144536  21.0123806  69.6495819  28.3336983
  21.4300423  69.2332306  29.0876503  20.7571907  68.9205246  27.7683811
  65.7856979  17.0823822   8.7008514  65.3102341  16.2558308   8.7844152
  65.2930984  17.5768948   8.0458450   3.1670034  14.7993040   5.5816483
   2.5547206  15.5298862   5.4945202   4.0322971  15.2019119   5.5081277
   1.3845770  16.2279701  50.6543808   1.4194108  16.1780167  49.6991196
   0.4510776  16.1886997  50.8623924  41.9023247  43.1387138  23.8252831
  41.7820435  43.8225517  23.1664009  42.7841301  43.2874565  24.1666412
   8.1179380  56.6163902  77.7820969   7.9235158  55.7235718  77.4969482
   9.0740023  56.6587677  77.8015366  19.1175861  43.1199226  22.1393490
  18.5630665  43.8647652  22.3716259  19.9941425  43.3749466  22.4271717
  33.1102524  63.2800179  59.7591324  33.7139282  64.0228271  59.7653084
  33.3896408  62.7505264  59.0122643  26.1741161  24.7724171  14.8320160
  27.0309181  24.8531322  15.2510710  25.9262428  23.8579044  14.9678755
  25.3949318  59.6740303  78.1858292  25.6951828  59.5255737  77.2891464
  24.5009937  60.0019226  78.0878906  77.6633759  40.5146599  41.2618713
  77.8425217  40.1260338  42.1180916  78.0824127  39.9222984  40.6375732
  82.1938705  18.5233650   5.0371151  81.8123550  18.0785770   4.2802515
  81.4486694  18.7019672   5.6107020  12.8442669  39.1741562  36.5363350
  12.1108055  39.7884560  36.5063171  13.6027298  39.7170448  36.7513657
  62.2783966  50.9971046  68.9134140  62.4934883  51.4491272  69.7292786
  61.3216858  51.0001831  68.8829269  52.5022202  33.9772110  36.5531578
  53.1226387  34.4457436  35.9947777  52.8203278  34.1275597  37.4433441
  81.5298996  49.4117737  58.7041245  81.6823578  49.3839645  59.6486969
  81.4480896  50.3438187  58.5020599  43.1450157  27.4914131  83.2062302
  43.9069290  27.1885433  83.7001877  42.9958496  28.3836060  83.5192413
  12.4304085   8.1456604  48.6365395  11.6704092   7.5973125  48.4417381
  13.0603189   7.5477500  49.0389633  80.5983582  11.0767021  60.5639496
  80.9747238  11.9509802  60.4628372  80.4608307  10.9826908  61.5065422
  51.9068489   9.0178680  32.6581650  52.6276665   8.5156660  32.2781029
  52.3321114   9.7613411  33.0855217  74.9621582  29.6298618   5.1651163
  75.1986847  28.7168865   5.0015192  74.1002579  29.7300987   4.7609968
  32.7866478  71.5662994  12.6550932  32.0639877  72.1306839  12.9297905
  32.3638000  70.8468933  12.1861753  62.3728447   9.5605659   8.7920094
  61.6654663  10.1274271   9.0994377  62.3009872   8.7735538   9.3320837
  76.4180679  29.6653214  59.2377472  75.6593018  29.7681599  58.6633492
  77.0903168  30.2249908  58.8490562  60.1687088  13.6343060  30.8416977
  60.1857567  12.8088427  30.3573933  61.0850220  13.9083824  30.8801899
   0.6170819  34.1937027  83.4068604   0.6558672  33.2733536  83.6670303
   1.2741406  34.6249504  83.9532394   6.8809099   6.4919972  50.0545120
   7.7208776   6.1338081  49.7674828   7.1097331   7.2986283  50.5162697
  52.1807861  49.3688049  42.3274536  51.7956276  48.5212212  42.5499039
  52.2555351  49.8252640  43.1654778  34.5412483   5.9890485  80.6859055
  34.2068558   6.8668823  80.8698120  34.1528358   5.7566133  79.8424988
  57.9690895  20.5001774  76.5208054  57.3603363  20.2119789  77.2009506
  58.5691032  21.0937862  76.9722900  36.6643639  45.7017670  32.6126404
  36.8392639  46.5636444  32.9905434  36.8299026  45.8126755  31.6764088
  78.9552383  69.2393951  14.5624752  78.1998672  69.3241348  15.1442547
  79.0155334  70.0876770  14.1231470  50.2810669   4.3555894  80.3518600
  50.0387726   3.5522716  79.8911972  50.5611649   4.0597901  81.2180405
  28.5253353  60.1756744  20.5656395  29.1004982  60.8134232  20.9883595
  27.7000923  60.6439857  20.4395962  73.0435638   5.5838709  46.9459457
  72.4619980   4.8893905  47.2553253  72.4641418   6.1987867  46.4960747
  39.4717064   6.7324996  52.2742920  40.0969849   6.0255904  52.4340973
  39.9642982   7.5332274  52.4543533  66.2885284  20.0223179  68.3355026
  65.4428864  20.2442589  68.7251892  66.3600082  20.5982246  67.5742874
  15.5669422  49.8671303  28.3464413  14.6717110  49.5761147  28.1729412
  16.1153450  49.1332550  28.0691128   7.4336920  34.5047188   4.0275421
   8.2943811  34.8702164   4.2321286   6.9397135  34.5839195   4.8435965
   9.9306412  38.0032158  29.4780769   9.4001770  38.7990303  29.4391174
   9.3509607  37.3477325  29.8660774  19.5428772  12.7633553  48.4086990
  18.8386688  12.3458586  48.9046974  20.2107334  12.9647179  49.0641785
  26.2739639  69.2698975  16.3601761  25.4435387  69.2293396  15.8858566
  26.8519001  68.6748199  15.8825760  77.8035431  33.9231834  51.9306793
  78.5767593  33.9671440  51.3681488  77.3290100  33.1499176  51.6255455
  29.6147614   9.6563902  45.4718475  29.3437557  10.3886509  44.9181480
  29.6894188  10.0337133  46.3483658  26.8118324  52.8128510  43.6477966
  26.1940327  53.3647957  44.1272888  26.6151409  51.9229965  43.9405479
  23.1477413  19.9588852  13.9668016  23.3248844  19.3026333  14.6407347
  22.5106087  19.5411568  13.3873205  53.5843697  70.9452972  75.8650742
  53.1732178  71.3177109  75.0850143  54.3107719  70.4220352  75.5262909
  51.4982376  39.7736092  -0.1484633  50.9137650  39.1701736   0.3103279
  52.1045685  40.0792198   0.5262198  65.6094055   0.3258261  56.4820023
  65.3644638   0.0796710  55.5900154  65.5349503   1.2800211  56.4961472
  27.5099621  59.3086700  63.7331390  28.0139847  59.0617523  64.5085297
  27.1633110  58.4812508  63.3993111  57.1529999  44.0568466  16.8811531
  57.1191368  45.0095558  16.7949162  57.7450447  43.7741585  16.1841602
   7.2803335  56.1497307  60.3719025   6.8964272  55.6278191  61.0764999
   8.2138338  56.1842842  60.5807457  22.1734772  42.4533043  73.4384308
  22.5326881  42.7751122  74.2652588  22.8098679  42.7273407  72.7780228
  48.5371475  48.3352318  21.0132980  49.0511169  49.0405464  20.6201077
  48.4487610  48.5870438  21.9325428   1.1771427  47.8067284  58.9731522
   1.0916951  48.4768906  59.6512451   1.1061606  46.9773750  59.4457664
   4.8041067  52.8206291  55.2424736   5.3941889  52.2239532  54.7820244
   3.9268413  52.5266304  54.9971161   8.8590183  44.9839859  77.2580185
   9.5759296  45.4917908  77.6380234   8.1941004  45.6362724  77.0374756
  31.1906834  25.6537342  74.7107086  31.2529755  26.3286667  74.0348282
  30.9689312  26.1336231  75.5086823   1.5922464  55.0383110  16.0316734
   1.3169711  54.5319557  15.2674360   1.7395071  55.9215584  15.6934118
   8.8343105   6.4031200   6.9965091   7.8965573   6.5854163   7.0566664
   8.9250555   5.5061555   7.3181491  28.1589413  29.2089081  24.4108582
  28.3548355  28.6489429  23.6596603  27.4055462  28.7927990  24.8297634
  73.2850037  47.7994919  22.9908390  73.2279510  47.5671768  23.9176655
  73.9240112  47.1855507  22.6289291  62.0698700  46.7487907   4.2227712
  62.8841667  47.2448540   4.1386538  61.9786072  46.5959206   5.1632676
  84.3947372  62.4457016  72.5446701  85.0277176  61.9733315  73.0854416
  83.5463867  62.0783501  72.7928391  28.9758148  54.9138641  17.1520653
  29.5376034  55.6875954  17.1963348  28.6161709  54.8281708  18.0349846
  62.3730202  36.1270714  80.0286255  61.7840271  35.5165329  79.5852737
  63.2503738  35.8399734  79.7755280   0.4173862  14.7106571  82.1155930
  -0.1894760  15.3856277  81.8116760  -0.0657059  13.8906479  82.0134201
  23.7874775  63.0584335   5.7858329  23.7576561  63.8461380   6.3288517
  23.2091751  63.2537804   5.0485129   3.7854674  42.3550224  41.7893295
   4.6919775  42.5982666  41.6014404   3.5550239  42.8690758  42.5632019
   4.8828993  46.0739326  28.2321072   5.5503559  46.2450409  28.8965263
   4.2687950  45.4758301  28.6579952  69.4141922  70.6080551  28.0630264
  70.2462540  70.7620239  28.5104580  68.7643661  71.0553436  28.6051521
  37.5418549  67.5925064  46.3427124  36.7641182  67.8978577  45.8756790
  38.0846863  67.1886673  45.6656036  56.3733559   1.8310516  16.0527935
  55.8080711   2.1415067  16.7601147  57.1909943   1.5897064  16.4880486
  44.8177414  56.2709274  83.0957108  44.6549683  55.4935188  83.6299133
  45.6046028  56.0566864  82.5945282  10.2621107   6.6763439  43.2918396
   9.9306545   7.5128727  42.9653587  11.2001238   6.7001066  43.1026344
   6.9239254  49.5743408  14.3458614   7.4777913  49.1693382  15.0132742
   6.0346317  49.4916458  14.6901741  10.2258120  60.2851028  28.4123039
   9.8687010  59.5247955  27.9533482  10.0767307  61.0175781  27.8144073
  52.9357376  68.6034164  84.7421341  52.0758438  68.3699875  85.0918808
  52.7561455  68.9214401  83.8573456  66.9861908  48.8203735  36.4357262
  66.5849686  48.5626106  37.2656708  67.5510406  49.5592613  36.6620445
   2.1466262  35.4919891  78.7438812   1.5796559  35.7869873  78.0313110
   3.0169556  35.8110390  78.5052032   3.6490791  22.9407063  56.4797935
   3.5124540  23.8841114  56.5666962   4.5396247  22.7971630  56.8000374
  73.8231125  50.2849808  31.1267281  73.7110672  51.1600761  31.4980545
  74.1295319  49.7511711  31.8597984   0.6396465  58.4304886  10.3543224
   0.7221355  59.0129433   9.5992250   0.5163028  59.0194244  11.0987501
  40.4893379  15.1132965  86.4071732  39.5628853  15.3402119  86.3270035
  40.9012375  15.9060736  86.7507935  72.0685959  69.9726334  56.2773781
  71.6317673  69.1342545  56.4275208  72.7037811  70.0427551  56.9900169
  50.5985451  50.6678543  76.5647888  49.9268341  50.6621666  75.8828812
  51.2751465  50.0740433  76.2394638   1.2653986  66.4803772  17.5774021
   1.8420268  65.7263641  17.4541225   1.7430490  67.2132416  17.1888275
   2.3240428  20.4132347  32.5702591   2.3253822  21.3611717  32.7030983
   3.2412999  20.1928043  32.4081421  37.9365463   2.2328784   6.1241527
  38.4562912   2.0442135   6.9054976  38.4561577   2.8746619   5.6400571
  70.7180328  19.5145416  42.8386765  69.8152695  19.5489807  43.1549873
  70.6549530  19.0979366  41.9792023  69.7071152  20.0102272  11.8376255
  69.3508987  19.1361008  11.6787386  68.9708328  20.5079117  12.1932030
  11.9954128  54.9684601  48.2430611  11.5893764  54.8091774  47.3910065
  11.2578001  55.0730362  48.8440781  77.8524017  36.4811745  13.7595587
  78.0353622  36.5750504  14.6944094  76.9885559  36.8768501  13.6436481
  15.1577644   3.2397475  21.5864239  15.1885481   3.0745893  20.6440811
  15.6191444   4.0708060  21.6991291  23.6592789  53.0832901  24.8739891
  23.1067734  53.6146584  25.4472408  23.5095081  52.1834106  25.1638412
  18.4880180   7.7691140  59.6457481  18.2727642   8.6044378  60.0606384
  19.3201847   7.9300151  59.2009583  44.2873497  50.6947441   4.8053527
  45.1568604  51.0395317   5.0085859  44.1026993  51.0157433   3.9226894
  28.0065155  55.4081573  26.9468956  28.6175861  56.1437187  26.9047680
  27.1403160  55.8152428  26.9323521  48.8773727  57.9134254  26.2744751
  48.8340988  57.5778008  25.3790894  49.2241402  58.8007126  26.1811695
  45.9725304  22.0358295  84.4707947  46.1415634  22.2161579  83.5460510
  46.7348175  22.3916702  84.9274445  50.3704033   2.7434733  85.7738495
  51.2496071   2.8295400  86.1424026  49.8382416   2.4142704  86.4981842
  73.0891953  71.7881851  37.8070259  73.2283173  70.8510132  37.9433784
  72.9826584  71.8792343  36.8601418  45.8721466  39.3037567  17.8458939
  45.4416656  38.5149040  17.5163002  45.8483772  39.2094879  18.7981453
   7.4140429  67.1396103  45.3169670   6.5279059  67.1810150  45.6765213
   7.5586395  68.0057220  44.9359627  52.3220291  48.6801720  53.0776215
  52.9392548  48.4426613  53.7696152  51.4592781  48.5545349  53.4727287
  35.8227692   0.8113756  86.6913376  36.0486603   1.5182477  86.0867462
  35.8130188   0.0243049  86.1466751  67.5339127   7.2715273  18.2550526
  68.3646851   7.2263451  18.7283459  67.5765533   6.5504680  17.6269703
  19.7135220  20.0769081  77.1458664  19.8457909  20.1125202  76.1985168
  19.0739422  20.7663040  77.3244781  24.6968384  10.6369085  35.5445023
  24.3496819  10.8894520  36.4000359  24.3997421   9.7352486  35.4221306
  10.9179211  30.3353882   2.2109110  11.5136824  30.0498142   2.9035499
  10.2682676  30.8751755   2.6612568  55.9624329  17.8395252  76.4301910
  56.6790352  17.2558441  76.6792450  55.8406982  18.4074860  77.1910019
   2.0730991  17.5285168  20.7709885   2.0553455  16.7088814  20.2769089
   2.0752754  18.2120857  20.1009445  57.6291962  31.7597637  67.5340118
  57.3049736  30.8599129  67.4968948  57.9301643  31.9428101  66.6439819
  85.4917831   6.1415329  58.0052299  86.1348495   6.8505383  58.0070801
  85.1620560   6.1148973  58.9034500  51.7081490  17.0324421   6.3608484
  52.3438263  17.0661373   5.6459990  52.1503944  16.5389252   7.0515652
  31.3674335  43.8737297  69.7691956  32.1960106  43.4402199  69.5648270
  31.2609673  44.5256615  69.0764694  62.1780777  26.5857143  76.5379410
  61.3263206  26.1535645  76.4748154  62.5460434  26.5196934  75.6567612
   0.8729115  33.4527359   4.3565516  -0.0829860  33.4035797   4.3478432
   1.0836463  34.1321793   3.7161002  69.4167175  12.5796623  80.7798080
  68.5002594  12.8556004  80.7655563  69.6163254  12.3647318  79.8686600
  75.6539917  70.7876053  37.8333435  75.0480652  71.5259018  37.8966217
  75.6640091  70.5650864  36.9024200  47.7232246   0.3132561  65.3762817
  47.3225174   0.4456113  66.2354355  47.0187798  -0.0446634  64.8360214
  55.3734589  48.3491554  49.2577705  55.7825050  49.1140785  48.8530426
  56.0731850  47.6973381  49.2995110  10.8914576  52.7748833  65.9317932
   9.9514084  52.6643372  66.0743408  10.9520769  53.3429222  65.1637497
  81.4935760  20.2435646  63.4838982  80.7985382  20.4344673  64.1137466
  82.0743408  19.6378384  63.9443741  11.7487898   6.1736569  11.5251627
  11.3830347   6.9970860  11.2020216  11.3935356   6.0844841  12.4095116
  47.1872711  55.6823921   4.8529720  47.8311386  56.3686600   5.0281963
  46.4412994  55.9061127   5.4094887  35.4056244  40.8062057  74.0452499
  34.5508194  41.0669060  73.7023544  35.3450127  39.8558846  74.1424332
  24.3692169  12.6836309  65.5706787  24.4618568  13.3363600  66.2646484
  25.2200489  12.6778498  65.1321793  79.2233734  32.0004997   8.9182777
  79.0883331  32.5069580   8.1173439  78.5014191  31.3720913   8.9288797
   8.1983480  20.1616879  89.2825928   8.2651215  19.7150002  88.4386520
   7.3088999  20.5151157  89.2968140  65.5218735  65.7923584  10.0278463
  65.0134659  65.9650345   9.2354221  65.1449738  64.9876175  10.3836212
  21.7717705  69.3123779  72.5056305  20.8696251  69.6168823  72.4074478
  22.2751293  70.1073761  72.6812363  15.7145014  49.7844849  77.7647247
  16.5137863  49.5968323  78.2568207  15.7722960  49.2237206  76.9911346
  77.7080688  55.2775536  10.7679567  78.6066742  55.2229462  11.0931559
  77.2794952  55.9029922  11.3522406  69.8822327  22.5398483  62.1589165
  69.8193130  23.3546104  61.6604805  69.7326126  22.8025150  63.0671310
   5.2466364  35.3911171  58.9418182   5.3322291  36.2687759  59.3141365
   4.7364268  35.5189209  58.1420784  21.4692307   9.8027239  22.3015003
  21.5732975  10.4958658  22.9533882  20.5448189   9.5602226  22.3552322
  71.6559830  27.0912285   7.8179064  72.4154129  27.0263329   7.2388668
  71.1380692  26.3104248   7.6220870  46.6869011  54.5195808  19.4999237
  46.7373924  55.3361893  19.9967480  46.4736443  54.7945366  18.6082096
   6.7306967   8.0313568  46.5683632   7.3324008   8.4190712  47.2038612
   6.9795656   8.4247398  45.7319717  48.4552460  10.0204296  17.7393990
  47.9394951  10.7379475  17.3714256  48.5899849  10.2670259  18.6544228
  37.2513809  64.9395294  27.8289261  36.8036194  65.3502350  27.0892887
  38.0591812  65.4431000  27.9294853  68.5977325  69.2980881  65.1188354
  68.4492035  70.2425385  65.0721130  67.7207489  68.9158401  65.0869522
  80.4207153  41.6964760  82.8076096  80.9074936  42.1798668  83.4751511
  79.9115677  42.3659439  82.3506622  54.3250465  55.2284126  51.1783524
  53.4700241  55.6532249  51.1097755  54.1365204  54.3707962  51.5593834
  19.8995934  60.5511971  62.1588974  19.5396767  60.5599213  61.2719841
  20.8030720  60.8493423  62.0536842  61.2829361  70.4402695  65.6801529
  61.4720879  70.8575668  66.5205841  60.5821609  69.8177719  65.8741760
  58.0745201  59.7658234   4.7638330  57.9083748  60.4515190   5.4107084
  57.7044601  58.9738770   5.1538491  63.2816429   4.2801566  32.5172348
  63.7747536   3.6307225  32.0159264  63.5520897   4.1382656  33.4244041
  85.8695984  67.1491013  11.3921442  85.7305679  67.5975494  10.5580006
  86.3099213  67.7971725  11.9420099  30.3707809  12.8158588  22.4844131
  29.8665810  12.0789814  22.1394119  30.3488770  12.6973820  23.4340000
  17.5976944   7.1650400  41.6319199  18.2498703   6.7855887  42.2209129
  17.2914734   7.9494395  42.0870895  42.5726318  31.2508793  15.4345150
  43.4516754  31.5144119  15.1623640  42.6643524  30.3308678  15.6822987
  20.1081257  57.2567444  28.6880856  20.7710171  56.9749413  28.0576935
  20.5969944  57.4127045  29.4961185  55.6472473  14.3317184   8.9363337
  56.0871582  14.2230330   8.0931873  55.4548378  13.4389315   9.2229404
  23.5055332  58.9852867  56.0330086  23.4017315  59.8581619  56.4118843
  23.8414631  59.1453819  55.1511040  82.2382431  66.0341644  83.1952744
  82.0639725  65.4136353  83.9029465  82.8235474  65.5629807  82.6022797
  25.5518322  19.5317383  70.1483154  24.8402176  20.1288395  69.9174347
  25.9922447  19.3515110  69.3177795  36.1504059  25.3172054   6.5471983
  36.5070648  24.4293766   6.5191727  36.6668625  25.7616806   7.2194705
  80.2938766   3.6333773  12.7597227  80.2297745   3.4034715  11.8327570
  80.2831268   4.5904574  12.7704153   8.0988493  32.6673317  45.2546120
   8.9426003  32.2198524  45.1907501   7.5240817  32.1801643  44.6642380
  26.0038853  71.0919113  72.4494324  26.0481300  70.2041321  72.0942917
  26.1129608  71.6605148  71.6871796   6.1368332  33.0661469  60.5511665
   6.1075225  33.9301834  60.1403008   7.0395236  32.9767494  60.8567657
  51.6790352   5.2526097  76.8046722  51.9542198   5.0773845  75.9047852
  50.7258339   5.1675797  76.7845154  59.9199600   1.6644945  87.5935593
  60.8300018   1.8722267  87.3816605  59.9676208   1.2099210  88.4345779
  74.6687546  51.4307175  71.6054611  74.1118546  50.6832161  71.8230209
  74.6298447  51.9918327  72.3799667  55.2467804  49.2306404  88.7506485
  55.4645882  50.1403198  88.5474930  55.9379349  48.7191849  88.3299942
  55.2246971   0.1633266  65.6074524  55.8797760   0.8429689  65.7661667
  55.5835876  -0.6181056  66.0279236  57.6354141  18.6286869  69.1968994
  56.7675133  18.8808384  68.8816147  58.0977669  19.4584637  69.3149261
  44.9652252  64.4171295  82.6298676  45.8111572  64.5749512  82.2106781
  44.8028450  63.4831429  82.4974670   5.2867441  38.7300491  34.3283195
   5.9979372  39.2415810  34.7140312   5.1919613  37.9754143  34.9095001
  61.9677734   8.8558321  87.4104385  61.9151573   7.9009371  87.3699493
  61.5220222   9.0859118  88.2256699  72.8403854  55.3205299  35.2057571
  73.0100174  56.0115242  34.5654602  73.6654816  54.8386078  35.2623215
  16.3805828  57.7037964  27.6954250  16.2660007  57.5661354  26.7551308
  16.0616322  58.5933228  27.8478813  38.0298538  63.5108986   9.4351540
  38.5792656  63.4442902  10.2161427  38.0978432  62.6508942   9.0204258
   1.2645866  24.6141510  73.6092606   0.3379592  24.7526760  73.8052292
   1.3888202  23.6689243  73.6949692  15.2956371  21.1723251  11.5961514
  14.4634523  21.5190315  11.2744474  15.2891150  20.2518463  11.3336487
  47.0095673  46.3389816  23.4141350  46.8689766  46.3198738  22.4675083
  46.2641640  46.8319244  23.7570763  52.4506760  47.4190292  47.1893311
  51.5305290  47.4586143  46.9285736  52.5755768  48.1886215  47.7446327
  39.4699593  24.2353859  34.6079445  39.1449623  23.8008881  35.3964996
  39.8968086  25.0291119  34.9304810  53.2514610  58.0837135  35.8625603
  54.0205841  58.0661850  36.4320984  53.3648796  58.8717079  35.3311119
  46.6000786   7.1505089   5.6035261  46.6792717   7.4416046   4.6951084
  47.1429596   7.7632456   6.0995750  73.7079391  48.5000763  49.5731506
  74.2079010  48.9731560  50.2383347  74.2559814  47.7470627  49.3521233
  65.4839706  39.5279846  78.9580383  65.4140701  40.1227341  78.2113037
  65.2673111  38.6672134  78.5997620  71.4548721  19.5859375  73.8792267
  70.6239395  20.0399952  74.0192719  71.6425095  19.1655693  74.7184601
  11.5804653  44.0295410  28.5248928  11.3991337  43.8042145  27.6124363
  12.5038710  43.8090401  28.6470928   9.7964821  70.3919067  77.6908035
  10.0563316  71.2714157  77.9649963   8.8600512  70.3476410  77.8841171
  84.0642319  16.3077354  71.1098022  84.4462128  16.9346619  71.7240372
  83.1193085  16.4352131  71.1940613  86.6771240  52.1733589  25.7520390
  86.9779587  53.0591240  25.5491848  86.1354141  51.9268227  25.0023689
  43.0769653  66.8373413  29.6114178  43.6998596  66.7156143  28.8948860
  43.6231651  67.0304413  30.3733940  74.3356094  20.9306164  49.7307625
  73.6266022  20.3623486  49.4297600  74.3008652  21.6873474  49.1456299
  81.8794556  50.4441719  35.6637039  81.4268036  51.1594925  36.1105385
  82.1256638  49.8412628  36.3652153  40.0655594  34.4636421  88.0135651
  39.2232208  34.8685875  88.2202530  39.8836708  33.9047623  87.2580490
  11.5650091   2.7628193  20.0887051  11.3597584   3.3906353  19.3959198
  11.9284372   3.2963507  20.7954559  28.1101151  30.4205246  47.5971375
  28.6641407  31.1393375  47.2928467  28.7264652  29.7633553  47.9203606
  62.6227608  16.9459553  79.7206421  62.5163269  16.6322136  80.6186829
  63.2388954  16.3305092  79.3233566  38.6218948  67.1284256  83.8616180
  38.9592781  67.4423141  84.7005920  38.9904442  67.7303009  83.2149658
  31.2612858   9.1547194  29.6866379  31.8764553   9.1402845  28.9534321
  30.3989906   9.2097969  29.2747593  57.4442596  46.0750542  25.9923096
  56.7448959  45.5763168  26.4146633  57.4899940  45.7191277  25.1049232
   0.8022693  63.7956238  86.6454697   1.4127303  63.0802727  86.4670181
   1.3322635  64.5885849  86.5645370  43.6155281  48.9132118  76.3459396
  43.3966484  48.8453903  75.4165726  43.5062447  48.0241051  76.6832504
   8.7477026  54.0376968  18.4445801   7.9641533  54.4794769  18.7718620
   8.4526882  53.5777016  17.6587029  11.0217972   9.7207479  16.5828590
  10.7993908  10.6208706  16.3450623  11.1035366   9.2649336  15.7451334
  54.6702309  24.8118820  76.9542542  55.4381599  25.3813496  76.9071045
  55.0036583  23.9415913  76.7359619  67.8374176  68.2243576  81.3683243
  67.8433990  67.2757111  81.4958572  68.5388565  68.3856125  80.7372818
   6.5486279  24.6615067  85.2572708   7.2310266  24.3343410  85.8433838
   6.9037213  24.5284119  84.3783951  69.5075302   2.9272013   6.8464017
  69.4462662   3.8428037   6.5740962  68.8907623   2.8520894   7.5745406
   2.4617238  62.4071159  10.7454510   3.2413917  62.0374870  10.3310537
   2.0763612  62.9686165  10.0728111  54.2502937  63.7503090  68.2784119
  53.4076691  64.1481171  68.0593948  54.3492050  63.9010735  69.2184753
   9.3074121   4.7191586  49.8021584  10.0509338   4.7949047  50.4002113
   8.6768188   4.1733470  50.2719154  69.9207230   0.5329310   5.7268705
  69.5688553   0.7689778   4.8685541  69.8748856   1.3425648   6.2354217
  22.8290005  51.9291992  19.2787628  22.0293636  51.4055290  19.2279301
  23.4934559  51.3209572  19.6024532  73.7469940  64.2700500  53.4238739
  73.9292908  64.7395172  52.6098671  73.4982605  64.9548111  54.0447350
  24.2274437  35.2513161  23.6160049  24.2762489  35.5479927  24.5247593
  25.0848923  35.4648018  23.2479801  13.4302015  23.1022072  26.2073746
  13.4973984  24.0480213  26.0764008  13.9895535  22.9247913  26.9636021
  21.7750835  49.0126648  15.1106796  22.5013123  49.6166458  14.9556675
  20.9955921  49.5681381  15.1021004  12.2861004  65.2795410  76.1705322
  11.6469698  65.3700409  75.4637375  12.1578970  64.3888321  76.4967804
  26.2578773  55.3606148  83.6077423  25.4276104  55.0210304  83.2737274
  26.8397923  55.3605309  82.8477402  61.7920685  41.2293243  47.2513542
  61.7139130  40.5746117  47.9452400  62.2803879  40.7859879  46.5576477
  47.7501106  18.1565075  74.5813065  48.4966011  17.9696388  74.0120392
  47.4826660  17.2999535  74.9145050  28.9823933  45.8484573  72.2054062
  29.0255356  46.8035355  72.1585083  29.0551949  45.6509743  73.1391754
  68.7149506  42.4169388  45.8214951  67.8770676  41.9764137  45.9633636
  69.3392487  41.7049370  45.6817093  82.8407974  19.8613377  45.0879784
  83.6958618  19.8671570  45.5181694  83.0398941  19.7289257  44.1611214
   5.9169750  63.2604027  68.5206909   6.3005505  63.5426712  69.3510056
   6.2732229  62.3834801  68.3781204  48.9498291  42.1570969   1.9130780
  49.6430550  42.6892662   1.5226150  48.2446785  42.1700134   1.2659088
  73.4155045  25.9338818  44.9679527  73.1843643  26.0175514  45.8930511
  74.3671188  26.0352955  44.9487267  15.8776102  51.2315445   2.0254259
  15.6043663  50.6083755   1.3522041  15.0992012  51.7640457   2.1889911
  58.4866257  47.3472214  69.4213562  59.2766190  46.8278961  69.5711670
  57.9058342  46.7641716  68.9325180  21.3236351  10.8104944  74.0282745
  22.0071011  11.1737776  73.4651337  20.7027264  11.5294771  74.1456223
  61.3424606  54.7193985  65.5121613  61.1332855  55.3171158  64.7943726
  62.2981377  54.7329636  65.5643539  40.7031822  59.1481323  76.4949188
  41.1968956  58.7969666  77.2359772  41.1263733  59.9842377  76.2998123
  63.9030190  50.6476364  59.3676033  63.1688461  51.1324348  58.9905167
  63.5657043  50.3089714  60.1969147  27.7638969   6.8697267  59.8632774
  27.1701069   6.4376955  59.2492790  28.5712204   6.9983954  59.3653793
  13.0259495  56.6870346  69.3224640  12.1454296  56.6926155  69.6978073
  13.3911800  55.8408813  69.5810394  64.4509125  71.3704224  22.1081009
  64.5766754  72.0157700  21.4124432  64.9005508  70.5867615  21.7919693
  19.5839462  67.9953537  69.8357239  19.4625435  68.2020493  70.7624207
  19.8848362  67.0866928  69.8304138  28.5140419  13.4906416  72.9233704
  28.2287712  13.5548058  72.0119247  27.7680244  13.1031446  73.3811188
   4.1750751  65.3605347   4.7349944   4.6379452  64.6123428   5.1120763
   3.2983108  65.0278320   4.5430994  82.9173660  24.8688297  61.3998451
  83.2457047  24.0323639  61.7296143  83.6671371  25.4608459  61.4597588
  85.0969772  24.9991360  57.8265381  84.5582581  24.2859535  57.4839211
  85.4957047  25.3923435  57.0502434  69.5133514   9.0142269  34.7220383
  69.6795731   9.7031937  35.3654099  69.0075073   8.3570929  35.2000847
  34.4182968  19.1187553  22.1804123  34.4353981  18.4951782  21.4544010
  33.8939819  19.8506012  21.8552551  42.0402069  52.9851799  55.8644409
  42.7308998  53.6448212  55.8008308  42.2887001  52.3159447  55.2267838
  26.2792397   0.3572727  50.2852058  26.6655083   0.3192107  51.1601791
  25.9763680   1.2609204  50.1962013  46.0880852  25.4683533  73.3934250
  46.0082817  24.6491852  72.9047318  46.7715759  25.9559078  72.9336853
  20.8752308  52.6044846  72.7198181  21.1093597  51.6909943  72.5556412
  21.4481106  53.1064720  72.1401138  50.1589775  51.7324600  84.8785477
  49.9966316  50.8078613  85.0656204  50.6828537  52.0382500  85.6190033
  41.9111481  62.9585953   4.0140357  42.4050064  62.1611671   3.8231106
  41.7590790  63.3570862   3.1571167  60.7781105  59.9522095   5.0598850
  60.9348373  59.0081406   5.0799088  59.8413696  60.0357666   4.8816490
  68.4941254   3.3587952  24.7007847  69.2090607   2.7405877  24.8521748
  68.5879517   3.6133549  23.7828369  67.3048553  68.6200867  39.4267883
  68.1796265  68.5009995  39.0568962  66.9495239  67.7336578  39.4916382
  62.8732834   5.5496120  81.9848404  62.5888176   6.3071446  82.4961700
  62.1192055   4.9600616  81.9903870  34.7329636  40.8951836   6.0267677
  33.8855591  41.2791672   6.2519331  34.5541573  40.3547859   5.2572021
  24.7478065  49.3526840  60.4406929  24.9460621  48.4236298  60.5580864
  25.5574341  49.7285500  60.0950623  20.8178692   1.4408556  61.2251167
  20.3225727   0.6407289  61.4003601  20.2653732   2.1441181  61.5662956
  33.6555328  38.3510132  26.2388077  34.1609039  37.6796608  25.7804184
  34.3123055  38.9725838  26.5527000  39.2782211  35.7596436  24.9128723
  38.8145103  36.5919685  24.8210049  40.1533966  36.0049171  25.2130985
  76.6650467  15.1267796  32.2208061  75.9557419  15.1265764  32.8635483
  77.0597763  14.2583132  32.2994461  63.3040276  64.7464828  64.8953629
  63.9617996  64.0755310  64.7126236  63.3734436  65.3562927  64.1608276
  24.9183273  51.7791061  81.8393402  24.2216568  51.3636398  82.3475494
  25.4032021  51.0484467  81.4555893  33.0368233  45.1738014  42.6152153
  32.3795815  45.7294655  43.0341492  33.1213531  44.4205132  43.1997185
  18.7199535  59.7683220   6.3785825  19.5015869  59.9984589   5.8762703
  19.0567303  59.3142853   7.1510229  52.9674416   2.9714987  75.1741714
  52.8181305   3.4094939  74.3362579  52.3371353   2.2511809  75.1835709
  66.5683594   1.8801830  27.9588928  65.7264099   1.4329485  27.8732662
  67.1846008   1.3239051  27.4824142  25.1664352  67.3777847  74.8532333
  25.1891422  67.6312408  73.9304733  24.8817101  66.4639664  74.8436737
  25.1154099  39.2659454  18.8606243  24.5597553  39.2218132  19.6387844
  24.5304871  39.0451584  18.1358147  85.0109406  67.7410355  87.5340347
  84.6183624  68.5334473  87.1677017  85.7159729  68.0611649  88.0967712
  30.3049259  67.4444046  41.7772102  30.0197239  67.0830841  40.9379616
  30.1387501  68.3840866  41.7022934  28.7925148  21.2756386  80.4875259
  28.8192444  21.7569389  81.3144836  28.5291042  21.9284153  79.8388824
  47.5750084   1.1617366  22.5673790  47.5221405   0.4530367  21.9261456
  47.2350655   0.7788404  23.3761196  26.1804276  29.4858685   6.5681052
  26.1210480  28.9688663   5.7647281  27.0448933  29.2785511   6.9229980
  37.1949120   2.0193014  10.2451954  36.8516922   1.4493477  10.9333715
  37.4547920   1.4201260   9.5454226  34.9689560  58.6169205  36.1222343
  34.0989342  59.0160294  36.1198921  34.8048325  57.6839142  35.9851494
  15.5787115  56.3091049  66.8735352  15.1889553  56.0998306  66.0246964
  14.9617052  56.9201050  67.2762909  60.9857674  16.3193779  85.6654129
  60.4827995  15.9286804  86.3799820  60.4519081  17.0579586  85.3726273
   9.0809546   0.1293741  40.6052780   8.9815798   0.2096737  39.6566429
   9.8708038   0.6311750  40.8066864  35.6306915  10.0251045  49.8636436
  34.8682060   9.9405823  50.4360962  35.3324127  10.5876322  49.1489220
  70.8177719  10.7982674  17.5128193  70.0044174  10.5042143  17.1026821
  71.2098007  11.3896790  16.8703403   3.6428101  53.5701408  31.8937035
   2.8669035  53.3320198  31.3862591   4.1194601  54.1799469  31.3305225
  67.3812027  65.7350006  45.5128632  66.6980743  66.3046570  45.1592407
  67.3316193  64.9418640  44.9792786  12.2508774  39.0720406  59.1726112
  12.0031242  39.3641357  58.2953835  13.2065926  39.1245766  59.1815338
  16.7854404   9.7325621  51.1835213  17.0617599  10.3442307  51.8659744
  16.6735725  10.2774315  50.4045258  47.0874596  56.1156769  55.3824501
  46.1386452  56.2301102  55.4362373  47.4410744  56.7522087  56.0037537
  43.4681129  58.7474785  18.4608364  42.6154175  59.1823158  18.4686508
  43.4043770  58.0829353  19.1468029  49.5377350  28.6708984  11.4033213
  50.1194916  28.2427063  10.7752752  50.0371208  29.4249096  11.7168684
  23.0445766  64.4308548  24.0312481  23.2207737  64.1457367  24.9278507
  23.2498112  63.6668968  23.4922848  23.7070026  45.0403595  74.5373611
  24.5613098  44.6682472  74.3184433  23.7358074  45.9298859  74.1850204
  40.3386497  63.9348793  20.9625263  40.5977592  63.4631882  21.7541084
  40.1620064  63.2469673  20.3208065  31.4569988   0.8590902   4.8515387
  31.6003094   1.6370211   5.3905349  31.8031921   0.1371490   5.3761172
  39.4780159  16.0704861  21.6285744  39.6451454  16.9203587  22.0360260
  39.9953918  15.4518137  22.1441326   5.0453186  52.8707542  25.6467667
   5.4860797  52.3006516  25.0167294   4.1736536  52.4881630  25.7470455
  10.1774387  65.3621292  41.7952614   9.7442703  65.8130875  41.0705299
  11.0751963  65.2279434  41.4915199  32.9999161  34.2347832   6.5859823
  32.2747345  33.8890038   6.0656195  32.8249817  35.1739273   6.6462941
  49.4381523  24.6459961  55.1823463  49.0076942  25.1925850  54.5249481
  50.1665459  25.1805000  55.4985466  72.9674988   8.4946795  53.3558502
  72.4172974   7.7635837  53.0747643  73.2387848   8.2626343  54.2439880
  22.6995487  14.7958927  87.5389557  22.7467480  14.3592520  88.3894501
  23.5946827  14.7608099  87.2017059  35.6652985   2.7527800  31.6891842
  35.4759789   1.9625283  31.1833248  36.4681015   2.5446329  32.1671104
  26.2935467  23.8082790   2.8971224  25.7611027  23.0180759   2.9883289
  25.8983192  24.4346962   3.5034449  37.1456795  10.5926056  24.0418568
  36.2225227  10.4378881  24.2420464  37.2240257  11.5454082  23.9943047
  80.2543793  52.8701820  53.9619904  79.8747559  51.9991913  53.8458405
  79.5405197  53.4724731  53.7525177  17.8243542  64.6766663  68.9703369
  17.9457283  63.7882042  69.3051987  18.4216557  64.7352676  68.2246628
  47.1970367  20.3992405  23.0392361  46.8543701  21.0547142  23.6468239
  47.7430382  20.8981476  22.4316101  12.0472708  39.0646629  25.7998962
  11.1734037  38.9233131  25.4357433  12.6123400  38.4729004  25.3031616
  45.6440353  28.5773296  26.1895657  46.3819389  29.0116730  25.7616901
  45.3468285  29.2041435  26.8491154  83.0578766  26.0574818  74.5337067
  83.9372330  25.8720932  74.2041550  82.9757462  25.5128860  75.3165817
  68.4339218  61.5343323  45.9314308  67.5846329  61.9059258  45.6929817
  68.7676239  61.1575890  45.1172218  60.3227997  15.5827255  74.5247803
  61.1560326  15.5015783  74.9888687  59.7880478  16.1416225  75.0886078
  34.3680534   1.8212129  56.0818977  33.4796867   1.9798561  56.4010735
  34.2690620   1.7280085  55.1344032  77.1730347  64.8116760  54.5426254
  76.6796188  63.9914665  54.5379257  76.5068436  65.4913712  54.6447716
  44.4286346  32.3114433  85.8995285  43.9911537  32.7911453  85.1961670
  44.7698708  32.9932671  86.4782410  65.0741043  42.7348061   5.2052560
  64.5396271  43.3167152   5.7455831  64.4683685  42.0518799   4.9172688
  18.7641544  15.2762709  28.5146942  19.1644974  14.5594721  28.0226002
  19.4842129  15.6490269  29.0234184  66.5788879  14.0579939  24.0478668
  65.6709366  14.2544909  23.8171139  66.9852219  14.9156046  24.1728668
  12.0442533  34.5495300  38.9015427  11.2889433  34.8870888  39.3829918
  11.8072453  34.6542854  37.9800835  86.0862350  54.7394905  33.0422020
  86.6488495  55.4286194  33.3954773  85.6716843  54.3504715  33.8122902
   2.7993267  70.8961105   4.2018356   3.0684090  71.3915482   3.4282935
   3.5044692  70.2633362   4.3382225  52.3255882   4.0600834  53.4160881
  53.1755753   4.3462219  53.7505722  52.3183670   3.1135952  53.5587044
  44.2348671  44.2401123  24.6307068  44.2396240  45.1874390  24.4936733
  44.3808479  44.1333389  25.5706654  53.5514297  45.7991295  16.0227909
  54.3612747  46.2238312  16.3056622  53.7679787  45.4110451  15.1750116
  48.1384811  67.4635010  34.0580177  48.0679626  68.0672607  33.3186035
  47.5772362  66.7257919  33.8192368  63.7525787  32.9098778  22.5370617
  63.1766014  33.2580795  21.8564453  64.5014191  32.5544624  22.0583630
  38.1244926  41.0783577  15.2584286  38.6270409  40.6944695  14.5398817
  37.2896385  41.3262253  14.8611736  18.3549709  56.3863564  49.1000061
  19.3094444  56.3180046  49.1232414  18.0471115  55.5861702  49.5256348
  42.5249176  16.9996471  66.5280457  41.8636589  17.1044712  67.2121277
  42.6842880  16.0565166  66.4914780  84.7449875  41.8699150  39.3610916
  83.9387207  41.7169609  38.8683662  85.3569794  42.2230530  38.7153435
  50.3014183   6.1100154  41.4322777  49.9671745   6.8610888  41.9225807
  50.0213127   5.3485599  41.9401703  74.3469696  17.7674789  84.8167191
  73.5321579  17.3404694  85.0812454  75.0369949  17.1904602  85.1440506
  25.5286903  14.5624790  56.3837242  26.1458473  14.6287928  57.1123886
  24.8330116  15.1827011  56.6018677  10.9639559  21.5635777  73.3994064
  10.0179853  21.4240284  73.3558502  11.3394909  20.7946529  72.9705048
  40.3618889  70.0249329  68.1718826  40.2378883  69.6781235  69.0553894
  41.2489777  70.3844681  68.1780319  24.7890949  27.3409424  13.4857521
  25.1828842  26.8964291  12.7350388  25.0069599  26.7855473  14.2342854
  75.9419098  30.4886646  79.1129303  76.2584076  31.0091248  78.3745651
  76.7372055  30.1951485  79.5574341   5.8449531  40.1594315  22.8085232
   6.4638457  40.0150833  23.5243225   5.2405620  39.4190712  22.8615017
  78.4447327   6.8939266  19.6934147  77.7722092   7.3660526  20.1843700
  79.2643661   7.3260241  19.9336815  65.5835953  61.3358955  62.0438728
  65.3938675  60.4688492  62.4022942  66.0684204  61.1608086  61.2373238
  21.0272369  53.3751068  11.9136028  21.1652756  53.9372063  12.6759815
  21.0603161  53.9724998  11.1664381  67.7605286  60.1504021  77.1302338
  68.1917648  60.8277206  76.6091690  67.7598343  60.4983597  78.0219498
  34.1557274  49.6066284  13.1969461  34.7179451  49.1799126  12.5503721
  33.9279060  50.4468155  12.7989340  38.6897964  55.6792755  11.4446545
  39.5470390  56.0995903  11.3760862  38.8020325  54.8339729  11.0097990
  30.3327656  57.4535828  17.2759151  31.2761974  57.4382172  17.1148739
  30.1718025  58.3086128  17.6749687  55.4031677  49.5896263  18.1788025
  56.2555695  49.8559875  18.5233250  55.0713425  50.3684998  17.7321720
   6.2049193  45.1396751  24.0922737   5.5032630  45.7399139  24.3445129
   5.7536464  44.4046478  23.6771584  83.7670670  56.5438995  45.0370369
  84.5886383  57.0040321  45.2088776  83.9373779  56.0383873  44.2422523
  41.4724770  32.1971817   7.3668780  41.6810951  33.0797310   7.0605874
  41.1175690  32.3265381   8.2463884  62.4829483   7.1009512   4.9623976
  61.7999420   6.4973392   5.2546105  62.2489662   7.9388289   5.3617039
  73.9067688  56.9110527  67.7761917  73.3078079  57.4538574  68.2888641
  74.2801895  57.5107613  67.1303329  56.7332916  63.8948936  62.3317490
  57.1221199  63.5182266  61.5423393  56.5530090  64.8056412  62.0988045
  84.3707123  54.0774193  54.4176369  84.0169067  54.9567795  54.2842979
  84.3354950  53.9462090  55.3651466  14.8891420  48.7619209  32.5389214
  15.4103251  48.2347832  31.9333439  15.4978132  49.4253922  32.8638153
  82.8501129  62.9071999  41.1381378  82.8396835  63.7240868  41.6369629
  83.1676254  62.2514877  41.7589912  18.5869465  24.7429619  69.9151459
  18.2298393  25.6269245  69.8296051  19.2901287  24.8299599  70.5587234
  22.6966572  31.1420670  65.7210770  22.6590710  31.7692032  66.4432373
  23.5644836  30.7447968  65.7937698  77.7933502  14.5816507  63.5962410
  77.4016647  14.8386278  62.7615051  77.8215408  13.6254339  63.5632858
  36.1704903  13.1458549  38.9150200  35.5122719  12.7912636  38.3173218
  36.2426720  14.0687609  38.6715736  15.6333122   9.7150450  48.2317696
  14.7034941   9.9306364  48.1597252  15.6580420   8.7581644  48.2313652
  81.2738876  51.4819298   4.3188639  81.2860184  50.5248184   4.3139405
  82.1139221  51.7301254   4.7048254  62.0393715  52.5212898  58.5105858
  61.1167603  52.2826042  58.4208717  62.0446320  53.2126350  59.1725883
  65.3875275  34.2782669  75.6691437  65.6506653  33.4775848  75.2153854
  65.7629471  34.1914215  76.5453568  82.1024933  38.0834541  46.2972832
  81.9626007  37.2245789  46.6960182  81.6542587  38.6947479  46.8817787
  62.5832901   6.5655785  66.3572006  62.5241051   5.6324716  66.1521606
  63.2365417   6.6165123  67.0549774  42.8188820  28.0543766  22.9038334
  41.8746490  28.0942307  23.0557251  43.0598335  28.9475365  22.6579876
  55.8571243  14.2859955  49.6982460  56.8020821  14.2706060  49.8500557
  55.7390060  13.8117800  48.8752060  12.9258814  33.0889587  65.2986069
  12.5998564  33.9829941  65.1954575  12.1653738  32.5349121  65.1228333
   0.9689745  36.0358391  61.5464745   0.1892380  36.1808434  62.0824013
   0.6294360  35.7108116  60.7126274   5.8109221  49.7973328   1.5284641
   5.0953884  50.3024254   1.9146284   5.3777814  49.1826477   0.9361963
  84.9014587  55.8944626  30.8463974  85.4054413  55.5600166  31.5882759
  83.9976883  55.9159050  31.1609955  78.1611862  41.3309898   7.8829741
  77.2912140  41.7298012   7.8645749  78.7641754  42.0665245   7.7752099
   2.4598858  51.8879318  12.2508430   2.8546822  51.3586807  11.5578346
   2.4051194  51.2969322  13.0018101  47.8704605  21.8948936  70.8009186
  47.0432358  22.0134449  70.3341522  47.6216240  21.8615341  71.7246094
  48.0473137  61.4036789  36.8520126  47.8382721  61.2436829  35.9317207
  47.5929718  60.7068100  37.3254852  84.3423538  64.4552765  82.0899200
  84.4104080  64.2566681  81.1560287  83.8938217  63.6969147  82.4640045
  60.5710487  42.6957970  83.4195099  59.8324127  42.4540062  83.9782486
  60.1886215  43.2608261  82.7481461  51.9763298  12.8247528   3.2190645
  52.2741165  12.2667656   2.5005903  51.2499008  13.3256435   2.8480675
  12.5302801  53.4100990  55.7208252  11.7810583  53.7859268  56.1830521
  12.9141455  54.1479721  55.2470932  83.6636353  32.2218819  44.0684738
  84.1555939  32.2383003  44.8894081  83.6138916  33.1395073  43.8006630
  60.9505959  43.3151703  42.8296547  60.9057541  43.8952179  43.5897598
  60.0713158  42.9433746  42.7598877   1.1425651  54.3329887  84.5837860
   1.8777988  54.2778320  85.1942139   1.0690671  55.2655716  84.3809967
   2.7358637  44.1071472  29.3477459   2.0057073  44.4162598  28.8115063
   2.3980966  43.3252029  29.7844448  10.8931618  32.5829735   4.1806550
  11.3756323  31.9491940   4.7114825  10.0150270  32.2102661   4.1019096
  12.1044598   4.1916418  39.4483490  12.5565138   4.8842244  38.9664688
  12.3765173   3.3821793  39.0159264  26.4947872  36.7107964  83.6053772
  25.9762268  36.7371216  82.8012390  26.3164845  35.8469696  83.9771805
   9.9009666  69.0835114  56.1320992   9.8483276  68.3897095  56.7894440
  10.5598764  69.6878433  56.4739380  21.5315037  10.5675030  10.2686958
  22.1025467  11.2368469   9.8917065  21.1396294  10.9898357  11.0330925
  73.3483124  31.1983624  11.6534805  72.8154068  31.9886475  11.7411804
  73.4282303  31.0669937  10.7087126  65.9390411  32.8273544  54.2815323
  66.3630905  32.6977730  55.1298370  65.0226135  32.5969353  54.4341850
  10.0059652  41.6626549  73.8701096  10.3250580  41.2388268  73.0733795
  10.0160561  42.5974808  73.6646194   0.5610611  21.8224888  88.9049149
   0.8842017  22.7096024  88.7473068  -0.2601765  21.7762203  88.4153671
  58.5126839  48.7465248  80.6762161  58.1829567  47.9924889  81.1650391
  58.3913803  48.5078545  79.7572250  85.1671677  18.4545536  36.7295761
  85.3983765  17.7209072  36.1598930  85.8126602  18.4222164  37.4356346
  52.7698441  58.9689980  72.6523895  53.4650650  59.2214088  73.2600021
  53.1368103  58.2345581  72.1602936  24.7091522  28.2197590  24.0813160
  25.4787579  28.2473888  23.5128326  24.8617764  27.4686584  24.6547146
  37.4102211   1.6032883  63.8942146  37.7741318   0.7179739  63.8898010
  36.5157280   1.4961762  63.5707359  32.5754013  23.2853184  74.4119339
  31.7270355  22.8541241  74.5148010  32.3604126  24.2089367  74.2817841
  37.3899841  40.0006332   5.8118153  37.9068375  40.1836319   6.5964222
  36.5098839  40.3091240   6.0274248  54.2014542  50.4427528  34.3069839
  54.3949623  51.2477798  33.8266487  53.3270950  50.1908607  34.0098648
   7.0381451  46.6042976  70.9360733   6.4081926  47.3193665  71.0259094
   7.8767357  47.0411568  70.7872314  60.2016411  64.4858322  55.4922218
  60.3076286  63.6555634  55.9566078  60.6333084  65.1305771  56.0527534
  71.0149155  54.1951447  14.5488195  70.7963257  54.1869507  15.4806890
  70.2543335  54.5958633  14.1279078  39.0331497   3.0651171  53.1776352
  38.1438980   3.3618064  53.3711243  38.9243774   2.1633723  52.8755493
  15.7050562  15.8614120  22.2437248  15.8402042  15.1166239  22.8296070
  14.7541714  15.9618502  22.1994400  29.8699932   5.9355597  40.1676216
  30.5047302   5.6260333  39.5214539  29.0695572   5.4497309  39.9688683
  35.7362366  68.5455093  38.7283859  35.3625870  68.5729752  37.8475533
  35.4663200  69.3719177  39.1289215  38.0842590  58.3073006  76.1843338
  38.9825783  58.6177902  76.2976990  37.6008492  59.0770721  75.8843307
  36.0739670  60.2547417  46.4016342  35.8238297  60.0943375  45.4917259
  36.7555008  60.9247246  46.3481255  63.1596222  49.8535004  82.2453384
  62.5476227  49.2568855  81.8143692  62.7039909  50.1310654  83.0400696
  86.1343918  25.2308674   3.8320980  86.1112976  24.8595181   2.9501698
  85.5644150  24.6600075   4.3473463  40.7984772   4.4057422  66.1326981
  39.9985085   4.3014584  65.6175232  40.5490150   4.9930515  66.8461914
  84.9630127  35.9903679  14.8444643  85.8830948  36.2405663  14.7603188
  84.4793701  36.8032379  14.6976318   4.9944263   5.7462678   9.5677223
   5.4276142   4.8927150   9.5624828   4.8827229   5.9524760  10.4957485
  33.8887596   9.3560772   3.9343865  34.7521019   9.7032213   3.7099690
  33.2738991   9.9269505   3.4736445  74.9461060  57.9061928  36.2744713
  73.9895706  57.9088898  36.2389030  75.2172394  58.3309593  35.4606590
  80.1124115  12.1743402  18.1808796  80.5019226  12.5502119  18.9703293
  80.6517105  12.5097227  17.4647045   2.9550028  45.3460770  39.8687935
   2.1953838  45.0799294  40.3868446   3.6382408  45.5184517  40.5166397
  17.6189137   6.4544482  57.1789513  17.0954494   6.8711009  56.4943962
  17.6394157   7.0962520  57.8888092   1.1352443  28.3456535  17.5525208
   0.3290738  28.3056068  17.0380135   1.0202531  29.1086884  18.1189003
  22.3319035  13.4934082  78.7829666  21.8416843  14.2201815  79.1673050
  23.1625080  13.4866514  79.2586594  73.5278473  62.6410561  51.1302490
  73.3264313  63.2470665  51.8432808  72.7470779  62.6545830  50.5766678
  27.7912960  50.4462624  88.0335159  27.6200619  51.2540131  88.5177155
  26.9500275  49.9897423  88.0240936  74.1730423  24.5683002  88.3431473
  74.6595612  23.7618332  88.5138550  73.5355301  24.6187401  89.0553818
  16.0038128  46.5566177   2.0580201  15.6262865  46.0595551   2.7837157
  15.2468948  46.9056664   1.5874112  12.9033709   3.5610249  63.0316772
  13.5914669   3.3156574  62.4131699  12.7939234   2.7889948  63.5868530
  66.1305389  30.1883545  17.1714592  66.6705856  29.5589657  17.6494217
  66.7597809  30.7363911  16.7024803  48.4202919  60.1888351  71.6066360
  49.1951637  59.7009697  71.3277206  48.4371872  60.9872704  71.0789566
  63.8248863  64.3516235   0.1462792  64.4128647  63.9612427   0.7928957
  62.9544830  64.2754517   0.5372103   7.6447515  33.1970215  54.3858452
   8.1122818  34.0277557  54.4725914   7.1262789  33.1291199  55.1875954
  16.4274254  51.7058983  30.3203773  16.5359421  51.3937073  29.4220505
  15.4963284  51.5835342  30.5056343  59.5615158  56.6709747  29.7287464
  59.2732162  55.9187469  30.2457237  58.9918404  57.3870964  30.0095844
  81.9508514  19.5422649  16.4433346  82.8328781  19.6815853  16.0985928
  81.6872635  20.3986378  16.7800617  32.9802933  56.7774773  13.2208261
  33.4375992  57.5338402  12.8533726  33.3167114  56.0304756  12.7258043
  76.4888458  11.2795725   7.8675137  77.3563309  11.4407463   8.2386379
  76.0708618  10.6811113   8.4866791  79.1332932  28.7440720  77.1310196
  78.6559906  28.6696377  76.3046570  79.6735306  27.9547386  77.1675110
  49.3098679  60.7262878  29.5378780  48.9590073  59.8527107  29.3647022
  50.2434921  60.5830116  29.6929417  70.2973785  69.1352539  79.9756088
  70.8309555  68.3447495  79.8941269  70.8719101  69.7687683  80.4054947
  78.6504135   9.4618483  30.3293724  77.7025757   9.3321524  30.3612022
  78.9101639   9.1211615  29.4733963  27.4383774  55.0008011  19.4664478
  27.5376816  55.8486328  19.8995171  26.5398636  54.7354317  19.6626167
   2.2661500  53.0534439  36.0742493   2.0539625  52.3881531  35.4195786
   1.4931391  53.6172829  36.1020012  58.7894592  24.9066296  18.4538479
  59.2698708  25.7119045  18.2615776  57.9136772  25.2034473  18.7011127
  21.9639187  27.1936321   5.6938190  21.3853302  27.7530499   5.1756296
  22.6669273  26.9522476   5.0907068  72.1171951  49.5160789  36.7930183
  72.9492416  49.1597328  37.1043777  72.1257095  49.3549461  35.8495178
  49.3580780  56.5330086  33.4917603  50.2037773  56.7754707  33.1146202
  49.5374489  56.4122086  34.4242134  59.9542084  28.9739017   9.3632793
  60.3661957  28.3510761   8.7644587  60.6799622  29.3278522   9.8773117
  20.9785633  50.9979973  45.3065033  21.8193626  50.5419731  45.2700386
  20.3285065  50.2976685  45.3630371  74.9728851  16.1605186  27.1513920
  75.3734665  16.4545422  26.3332710  74.0624161  15.9770212  26.9198780
  11.2591810  48.5922432  22.4340210  11.3368063  47.6816368  22.1494179
  11.5221968  49.1052513  21.6699028  29.8209705  57.5312424  26.6633434
  29.4197521  58.1059189  26.0114193  30.2700748  58.1265945  27.2634220
  37.8177071  10.6248903  78.7784882  37.8611832   9.7755661  78.3391800
  37.4062347  10.4373808  79.6221466   9.9169197  54.5300751  56.2651482
   9.8594608  55.4159203  56.6232109   9.1835451  54.0622520  56.6645660
  26.3175011   5.6946521  31.6690655  25.7496147   5.1135631  32.1751022
  26.6714745   6.3058548  32.3151054   2.9485080  64.2885666  88.7342148
   2.9977274  63.4044952  88.3705978   3.0291364  64.1634674  89.6797791
  45.7090263  52.9086189  40.7842140  44.8696251  53.3543777  40.6704788
  46.1456108  53.3948860  41.4836235  17.2742119  65.9461670  10.6515398
  16.4652367  66.1441727  11.1233263  17.2128811  65.0118866  10.4525547
   4.9457288  33.3637886  37.2558784   4.7954540  32.4211998  37.3278313
   5.8969278  33.4590836  37.3045731  20.7046642   8.1061344   1.9953949
  21.5977993   8.4431992   1.9251866  20.8083019   7.2274098   2.3605437
  75.3695602  44.7006683  57.8426208  75.9387207  45.0908813  58.5059586
  75.6057968  43.7730827  57.8399658  41.7577553  64.9012680  51.3598633
  41.4093437  64.2709198  50.7293892  42.1428604  65.5917740  50.8203087
  64.7974777  50.6714821   6.3045235  65.1923981  51.5323524   6.4430032
  63.9896584  50.6932297   6.8175445  40.5706024  23.7195263  84.0410919
  40.0266953  23.2796879  83.3876877  41.4642639  23.4492931  83.8299713
  61.2995758  31.7899513  79.2725601  61.3519745  31.7293320  80.2264023
  60.8097267  32.5961571  79.1103516  21.1137924   6.2038946  78.7784882
  20.4866219   5.5150065  78.5586700  21.7405338   6.1969466  78.0550385
  39.8936768  54.4303284  28.8356228  39.8145905  54.6680336  29.7594585
  40.3706856  55.1601181  28.4405231  53.8299370  16.9420166  74.8124619
  54.4109383  17.1640396  75.5400391  53.7479782  17.7554302  74.3145905
  75.6658401  22.6746273  10.4580908  75.9436340  23.0253468   9.6118889
  75.7012253  23.4248104  11.0515594  72.6875992  17.7155533  43.8653755
  72.5070724  18.5526505  43.4376907  73.6130066  17.5494747  43.6857491
  49.5113297  49.2019272  85.6885910  49.7397537  49.4406662  86.5869598
  49.4869652  48.2450523  85.6938782  41.2097702  60.6181183  25.3216534
  40.8803711  60.7918510  26.2034397  42.0800552  60.2444992  25.4603729
  65.2525406   0.2944528  69.0390472  65.9092560  -0.3971671  69.1204453
  65.7120895   1.0107166  68.6008530  72.0398483   4.3587303  40.0575104
  72.4421616   3.5204332  39.8302765  71.3303070   4.1290483  40.6575317
  54.4156418   1.2466477  32.0205574  54.3340034   0.3776374  31.6276340
  53.7374420   1.2689261  32.6956711  77.7204056  40.3317757  28.0940285
  77.9471436  39.4555779  27.7824249  76.7735214  40.2998734  28.2304783
  83.5638123   0.7756856  70.9875412  84.1492767   1.1100374  70.3080750
  82.8115845   0.4302866  70.5068283  17.9028759  46.4821854  70.6594925
  17.3636894  45.9002419  71.1950760  17.5082397  47.3467560  70.7735596
  14.2053432  66.2307663  74.0377884  14.3883610  65.6371307  73.3095474
  13.8541975  65.6650772  74.7254791  23.2461033  20.9836006   9.1508932
  22.7076359  21.5398693   8.5880003  23.9241047  21.5690727   9.4881849
  52.3285294  63.5176430  51.7862854  51.9949341  63.0279922  52.5380745
  53.1207542  63.9453163  52.1114197  85.8884277  59.3035583  33.6565437
  86.6503067  59.1242142  33.1055336  85.1685791  59.4256096  33.0375557
  21.4758472  51.1350555  25.8019505  21.1703205  50.2878647  26.1262283
  20.8927727  51.7732697  26.2129726  39.3093987  59.8693085  12.3430853
  39.0654564  59.5981026  11.4581165  38.5289650  59.6973877  12.8699608
  25.5288124  58.6665001  29.5546150  26.2200623  58.3666992  28.9642544
  25.4365387  57.9599228  30.1937294  39.1566620  53.0930481  67.5268478
  39.1676788  53.2720566  66.5866013  39.4994125  53.8922653  67.9268570
  31.2115211  62.4777260  61.3931999  31.5845203  61.7374992  61.8719177
  31.9529228  62.8545914  60.9193535  21.5430775  48.2908058  34.6013222
  21.6787548  48.7867813  35.4086838  22.4236126  48.1609879  34.2491302
  26.6248035  34.3600159  78.7546005  26.0085812  33.8217773  79.2513962
  27.3728447  34.4711380  79.3413849  57.3364944  56.8391266  40.0493164
  56.6742668  56.3634186  39.5479355  58.1089363  56.2744827  40.0220642
  53.5619316  30.7334557  60.8757744  54.1944618  30.0330658  61.0357552
  53.3505478  31.0688896  61.7469978  63.7688446  31.9608326  41.9247437
  64.2297440  32.7232704  42.2747269  62.8503952  32.1132774  42.1471024
  79.8462143  29.6623211   2.7862027  80.3135223  29.7978306   1.9618917
  78.9372940  29.5147724   2.5247955  72.2745132  15.5685234  32.6216469
  71.6522141  15.4487276  33.3390198  73.0871506  15.8350983  33.0515175
  58.1688080  29.8919945   7.0642262  58.3497124  29.2545986   6.3734064
  58.6957016  29.5964947   7.8067183  75.4443588  68.2249832   2.6275451
  74.7265549  68.6199493   3.1225092  75.9777679  67.7847061   3.2892535
  58.2721367  43.4946136  70.3071365  57.3231239  43.4465790  70.1917953
  58.3919296  43.6519165  71.2436905  33.2993507   2.9880178  34.2416573
  32.5043564   3.4001887  33.9035301  33.8034172   2.7626123  33.4597740
  41.7607765  11.2564583  18.8230190  41.4742088  11.0876465  17.9254608
  41.7043533  10.4049606  19.2566109  23.2736759  47.8110046   3.2682209
  22.7073479  47.0394554   3.2535529  23.0019817  48.2927246   4.0494771
  47.9962311   3.4918244  88.2533951  47.2868233   3.6885498  88.8651733
  48.7908440   3.7636600  88.7126617  85.1574097  16.1770744  64.9307175
  86.0447922  15.8909750  64.7140884  84.8940048  16.7225857  64.1895905
  19.2285194  13.5059662  72.5460892  19.6754856  14.2836647  72.8802109
  18.9565239  13.0303011  73.3309402  16.2092876  41.3491859  18.1741867
  16.3026581  42.2649231  18.4367523  16.6443291  41.2985115  17.3230667
   5.3967810  32.5414848  34.2835464   4.4460092  32.4578514  34.3561440
   5.5766034  33.4496269  34.5268135  68.1949387  64.0104828  68.2520447
  69.0494080  64.2734070  67.9100266  68.3790741  63.6874809  69.1340866
  71.0586319  27.1461601  79.5065536  71.5867386  27.7092056  80.0725098
  70.1886368  27.5452099  79.5162888  30.7521706  10.3744974  85.4418869
  29.8359604  10.6027212  85.2847214  31.0812244  11.0770636  86.0025635
  44.9758873  50.1139984  83.5257721  45.5502625  49.8450890  84.2427139
  44.3528900  49.3930206  83.4346848  16.6775761   6.6328049  11.5949974
  17.2863331   6.0882630  11.0958757  15.8155756   6.4154549  11.2401114
  46.0720940  47.2524567  15.4470081  45.8290138  46.3614845  15.1953869
  45.3373070  47.5604057  15.9775600  44.0024872  25.6011848  14.7481833
  43.1926956  26.1099682  14.7882242  43.7673683  24.7477074  15.1122255
  75.8903503   8.5163155  32.7834511  76.5155487   7.8688645  32.4576225
  75.8332367   9.1672602  32.0839920  44.9174538  11.6694660  -0.0296104
  44.9960060  10.8450546  -0.5096180  45.3968811  11.5188951   0.7850733
   9.9028339   4.0695915  62.6730690  10.8073807   3.8251255  62.8686790
   9.4980030   3.2601283  62.3614388  15.5401878   4.7698526   4.1885729
  15.9150610   4.1000972   4.7605247  15.2589922   5.4639049   4.7847719
  37.3787727  68.6786957  87.9533615  36.7607040  68.2056580  88.5105438
  37.9221153  69.1747055  88.5657196  57.9015923   3.4568861  88.0781784
  58.5768204   2.7836156  87.9944839  57.5988083   3.3812504  88.9830780
  60.0141602   4.7478504  29.6579285  59.4921074   5.4105272  29.2056522
  60.8326263   4.7089672  29.1631279  80.6346588   4.9216361  46.8496666
  80.8752670   4.0328665  46.5880814  80.9618835   5.0045571  47.7453651
  62.5175362  44.0922318   2.9132607  62.2805367  43.9126587   3.8231051
  62.5551224  45.0471840   2.8595479  21.4716835  21.2119179  87.0023804
  20.9991150  21.5477810  87.7640228  20.8357410  20.6561794  86.5518570
  84.5847244  58.5366821  37.9545059  85.1622314  57.7933426  38.1281891
  83.9218292  58.4910774  38.6435089  85.4988861  33.2151604  66.1741257
  85.6038971  33.3107071  65.2275162  85.5458298  32.2712936  66.3262482
  50.5048828  54.2621918  71.3438721  50.1386604  55.0832520  71.0152740
  51.3719559  54.2088432  70.9419098  65.2573471  45.2185364  45.6976891
  65.9772110  45.7346764  46.0605011  65.6543121  44.7253799  44.9797401
  32.6196976  22.3096809  80.0248795  32.2585258  23.1877117  79.9030228
  33.5679436  22.4324341  79.9802399  86.7063980  43.4276390  32.0691223
  85.7630234  43.3813438  32.2244720  86.9448853  44.3232079  32.3085251
  20.4806004  24.4487286   6.3987350  21.0649624  25.0655098   5.9579029
  19.8547421  25.0030937   6.8647957  62.5727654  70.7141571  47.8166695
  62.1648560  69.9720459  48.2628937  63.2152290  70.3165665  47.2289658
  22.4107876  11.4703064  24.4707336  22.8184395  12.3303909  24.3692150
  23.1371231  10.8510189  24.3989697  81.0331039  58.0576324  15.1271496
  80.1872330  58.4370842  14.8889332  81.2821884  58.5134392  15.9311600
  26.3284569  64.5904388  61.4602089  26.2699471  65.3159637  60.8385735
  27.2214718  64.2606888  61.3601036  52.1745148  59.0751381  16.9845524
  52.1713715  58.1183395  16.9570160  53.0387115  59.3020287  17.3279381
  63.4852791  13.0770321  19.3212566  63.1237488  13.3155727  20.1748524
  64.3990326  13.3593969  19.3607731  16.7741280  19.0245094  87.5356750
  16.0405521  19.0720215  88.1487350  17.3425827  18.3432007  87.8947144
  44.5778084  69.3621521  44.9043655  44.3389587  69.7680206  44.0710258
  43.8736954  69.6117249  45.5028381  80.7273788  12.3780785  66.0332108
  80.8914185  12.2630224  66.9692078  79.9894867  12.9864216  65.9923782
  18.2004776  58.8470078  69.7413177  18.0186291  58.5340195  68.8552017
  18.5073090  58.0714607  70.2110138  16.3476868  14.0313892  43.9542618
  15.8314142  13.8564463  44.7410851  17.2058487  13.6508875  44.1413651
  33.2735405  13.8920975  46.1876640  33.9660759  14.5242243  46.3801270
  33.0305519  13.5354843  47.0420761  61.9394264  37.8054543  53.4623337
  61.5119972  37.1638069  52.8950424  61.2301140  38.1631279  53.9963493
  58.9843254  69.2779770   9.7478256  58.2832375  69.7690811   9.3194227
  58.9922562  68.4319534   9.3001566  83.8791962  29.5483685  67.6921692
  84.5211716  30.2189770  67.9253616  84.4005814  28.8361397  67.3218689
  83.7478256  60.0063362  46.2157936  83.2225723  59.3629150  45.7400322
  83.9328995  59.5893517  47.0572815  77.6063690   9.3431273  84.1396179
  76.8830948   8.9493999  83.6516800  78.3002548   8.6843224  84.1125259
   9.3368359   3.8646553   7.7321796   9.3783255   3.6744771   6.7949805
   8.9477386   3.0801883   8.1187630  52.9770355  22.1657867  79.4564133
  53.8686333  22.0472698  79.7838898  52.5412865  21.3338966  79.6416473
  64.1361313  15.2853699  55.5683212  63.5918198  16.0720329  55.5349197
  64.1882782  14.9914045  54.6588707  26.4442768  69.7837830  63.9030914
  27.3023071  69.5079956  63.5806694  26.5639038  70.7014847  64.1475296
  15.9823284  28.6457653   4.4796104  15.7344494  28.7045383   5.4022875
  15.1759815  28.3917866   4.0306883  54.6944427  12.4621058  12.3259830
  54.8360329  12.1017752  11.4505711  54.2410316  11.7657833  12.8011522
  84.2201462  43.3972015  32.9717369  83.6618805  42.8482704  32.4210625
  83.6154327  43.8141441  33.5854988  45.6282005  63.1231728  67.8763199
  45.1876945  63.9424286  67.6504745  45.1158981  62.4460487  67.4344177
  84.8986816  53.6074448  72.3146744  85.2844467  52.9087830  71.7862015
  85.6479797  54.1207352  72.6168594  16.2654610  66.3115768  39.7418671
  15.5997467  66.0201874  39.1188507  16.0104866  65.9074936  40.5712891
  53.0917931   7.0944180  35.9010391  52.5040359   6.3524075  35.7589302
  53.6651230   7.0960493  35.1345406  82.3097076   5.7517462  19.2925243
  82.5006256   6.5781870  18.8489265  81.7574615   5.2709846  18.6759872
  62.1196785  17.2578011  27.7246284  61.4647064  17.8273201  28.1282272
  62.3078537  17.6693897  26.8811741  42.9065208  70.7608032  47.2559242
  43.4070740  71.3106613  46.6531601  43.3730011  70.8321228  48.0887146
   9.3212929  53.9266052  30.4256649   9.3511782  53.2894173  31.1393394
   8.5658131  54.4782448  30.6285801  28.0683460  42.5548325   4.8610797
  28.3045979  43.3447342   5.3473635  27.4943256  42.8669243   4.1615567
  58.4085770  12.4860754  67.2641373  58.9731712  12.4649105  68.0368042
  57.5279312  12.6198092  67.6145782  28.0887356  60.0634041  10.5853691
  27.5712299  59.3279839  10.2573824  27.9701023  60.0352097  11.5347710
  25.7094135  32.9094238  13.2393417  25.3914433  33.0340157  12.3451366
  25.1829109  32.1873550  13.5823383  85.3631439  52.6451035  48.7414742
  86.1186218  52.2658615  49.1905441  85.3603210  53.5634880  49.0112762
  42.0578232  26.7813663  40.3381157  41.4484444  26.4586239  39.6742439
  41.6340027  26.5772076  41.1717377   7.9429302  20.3616886  14.5505219
   7.5411983  19.5243111  14.3189116   7.2749262  21.0141544  14.3400736
  43.9257202  51.2465591  32.9174118  43.6047859  51.7957993  32.2021675
  43.1491737  51.0645905  33.4466515  12.3697233  31.6653709  72.8917389
  12.3332968  31.5490875  73.8411560  12.9169569  30.9433327  72.5828247
  52.2155266  65.4068375  70.1849060  52.8087082  66.1552658  70.1199036
  51.8991661  65.2736511  69.2913666  63.0699730  47.7377510  87.2192001
  62.3024063  47.4977684  86.7000809  62.9812508  48.6809654  87.3559799
  74.6470413  41.8527641  49.0278511  73.9065399  42.3374023  48.6631432
  74.3839340  41.6539116  49.9264412  71.1347656  21.8323517  34.7303276
  71.1069260  20.9696617  34.3165359  70.8132782  21.6820717  35.6193123
  38.6746445  44.4128113  87.2184525  38.7652817  43.5364265  87.5925827
  38.6667557  44.2695808  86.2720642  75.9111557  65.1724319  37.9048500
  76.6801376  64.6362076  38.0981216  75.2565460  64.5483017  37.5915222
  51.4267883  12.7007999   7.6650591  51.4918289  11.7474518   7.6091304
  51.1671791  12.9751654   6.7855372  76.3222809  47.9141617  38.3958435
  76.9464111  47.8803902  37.6708946  76.5757065  47.1868248  38.9641609
  70.3957138  36.4634819   2.7729337  70.3659058  35.6281776   2.3064446
  71.2702408  36.8078957   2.5917909  56.9023666  51.1662788  41.1688004
  57.4549713  50.4617386  41.5071564  56.3067474  51.3707123  41.8896866
  18.5647755  33.9002380  84.1210938  19.0480328  34.0087662  83.3020020
  18.8998127  33.0831718  84.4903946  50.3466263  42.7964172  66.6145935
  50.0337105  42.7413330  67.5175247  49.9352722  42.0535545  66.1728058
  24.7417850  37.4877357  72.5569992  24.0355320  37.4244537  73.1999893
  24.2944241  37.6334343  71.7234116  59.9182014   0.6761286   9.7477798
  59.6932793   0.5705190   8.8233938  59.2295341   0.2053170  10.2171478
  59.9321404  68.0910416   5.8859410  59.2109070  67.8332214   5.3118482
  60.6967621  67.6408844   5.5268526  38.5800095  28.1083260  84.0924301
  39.4071236  27.7261276  84.3857498  37.9333878  27.4166889  84.2329712
  14.9809799  56.1053963  10.5097418  14.9791136  55.1909218  10.7925224
  14.3779392  56.5431175  11.1105528  40.8638611  61.6130562  33.1146736
  40.5412941  60.7231255  33.2568092  40.3596535  61.9340134  32.3670120
   6.2012544  18.7399883  79.7476196   7.1038051  18.4269314  79.6873779
   6.2204170  19.3929081  80.4473114  84.0084457  34.6099854  26.0168247
  83.1636658  34.1755981  26.1346512  83.8347626  35.5298004  26.2168369
  85.7889938  37.8640709   5.8972497  85.8193054  38.6167107   6.4878821
  84.9941711  37.3938713   6.1490474  82.4922333  37.7887306  11.2072773
  81.7197037  37.2930641  11.4788332  82.5897369  38.4660034  11.8766241
  68.1449966  63.1364136  79.8845825  67.8454437  63.3690948  79.0057449
  67.6059113  62.3845329  80.1301346  19.3597202  54.8321762  24.7582035
  18.6845608  54.5500946  25.3753109  19.3533459  54.1629753  24.0738316
  61.6797371  20.1348438   2.9112597  60.7620316  20.3648872   3.0566194
  62.1724205  20.8548508   3.3050652  71.6907272  61.3901825  76.1595001
  71.6102829  60.6129990  75.6065521  70.8352356  61.8155174  76.1007538
  49.3150978  66.1453323  83.5988312  49.6806641  66.8171692  84.1743546
  50.0791321  65.7378540  83.1908569  85.2790756  60.1756477  18.7012196
  85.8769608  60.9170876  18.6062012  85.4568558  59.8354492  19.5780830
  10.5041018  51.7006607  44.5110588  11.3692560  52.1039124  44.5826874
  10.4317799  51.4509277  43.5898476  69.9214401  41.5363922  16.1941566
  70.2818527  41.2900658  15.3423023  69.3752594  42.3008690  16.0111408
  51.0640297   8.8383646  28.6729660  51.1784134   7.9433484  28.3534431
  51.3720398   9.3904638  27.9542542  77.3371277  55.6408882  19.5204678
  76.5767365  56.2222977  19.5195332  77.4944153  55.4507942  18.5956135
  12.2778301  34.7132263  75.1881638  11.8121796  35.2947350  74.5871201
  13.1918039  34.9918365  75.1310654  15.2421799  61.7897110  30.5636883
  15.0242987  62.6104355  31.0054722  14.9078503  61.1079216  31.1464558
  39.4579659  12.8436594  75.3358231  38.7237206  13.3860741  75.0478973
  39.6370583  13.1375475  76.2290115  54.3410034  12.9047432  60.0641937
  54.5954628  13.1772041  59.1825790  53.3842430  12.8857727  60.0422287
  33.7654724  15.0695438   0.8391603  33.5344124  15.0283890  -0.0888210
  34.1187553  15.9510336   0.9591566   8.1254091  14.2048187  15.8212595
   7.8416648  13.3757133  16.2063637   8.9277906  14.4262629  16.2938881
  73.9473343  14.4538202  60.3694458  73.9201965  13.9539013  59.5536156
  73.3691635  13.9748487  60.9631958  80.0531311  56.3662949  71.7577209
  79.4176483  56.2456131  71.0521469  80.6343536  55.6088943  71.6887131
  59.3074112  43.7313347  37.2474022  58.6099701  43.7901459  36.5944481
  58.9178581  44.0860481  38.0465584  37.6109962  12.6832905   6.2739234
  38.1785622  12.8386402   5.5189619  37.3125114  13.5551949   6.5326123
  61.1815453   2.0966837  21.4404984  60.7646561   2.8778081  21.8042011
  61.7652130   1.7913258  22.1349888  45.2238045  56.3829231  23.5973988
  44.3152962  56.6795654  23.6507759  45.1622353  55.4284897  23.5586891
  43.4240913  26.6084919  25.9324284  43.0454597  26.8510704  25.0874290
  43.9632301  27.3603306  26.1779957  73.0536041  46.6427803  10.4494810
  72.3808365  46.1492615   9.9803772  73.8807755  46.3168144  10.0948439
  66.8463745  29.3922844  62.8200569  67.1198425  29.5334969  61.9136887
  66.2033691  28.6850700  62.7688065  65.3317871   4.0042844  20.0256786
  64.7874832   4.7436914  20.2963066  66.1640320   4.1412086  20.4782925
  21.7044945  28.3738346  86.9774246  22.5349388  28.8038864  87.1815109
  21.3100662  28.9236717  86.3004150  74.3529129  46.3535767  31.5873451
  73.4406204  46.6267128  31.4906425  74.8034286  47.1335983  31.9111290
  51.2508736  23.5533218  31.6210251  51.2116814  23.7515011  32.5566635
  51.8735085  24.1886024  31.2675133  18.7170906  23.1217556  16.6771717
  19.3904953  23.0475826  17.3533783  17.9727135  23.5251999  17.1236782
  72.7481155  29.0979099  60.7479553  73.3968506  28.4269810  60.5352821
  73.2560730  29.8042622  61.1470566  48.4484825   0.7911510  16.4825439
  48.9457932   1.4293597  15.9710722  48.6888237  -0.0560275  16.1073704
  78.0404205  18.1280231   6.8099346  77.1505737  18.2242146   7.1492610
  78.1098862  17.2016869   6.5790510  63.5173912  52.4463539  32.8297386
  63.7467804  51.8785591  33.5654182  62.5602570  52.4558830  32.8239059
  69.9595261  25.8622417  66.4966354  70.6931381  26.1838989  67.0206375
  69.6216736  26.6408882  66.0541458   8.4742098   9.0899906   2.8701193
   8.7662878   8.6691418   3.6787038   9.2820177   9.2752180   2.3911948
  86.6041870  49.8585358  54.4161377  87.2826843  49.6608543  55.0617371
  85.8494186  50.1313591  54.9377937  56.3847809  15.7162638  57.6659470
  55.6735649  15.4241371  57.0958023  56.3668747  15.1059332  58.4031105
  49.1436653   5.4299850  75.4189911  48.3536682   5.9704790  75.4191818
  48.9137039   4.6695094  75.9528656  43.6088295  32.7113686  80.2496338
  43.4010925  33.2170982  79.4639435  44.5423546  32.5158539  80.1687546
   9.8432732  58.9398880  30.9260273   8.9408960  58.6303139  30.8478584
  10.1598463  58.9854851  30.0238438  73.1666183   4.8055892  58.3370934
  72.8902283   3.9905698  57.9180679  72.3968735   5.3725405  58.2892113
   2.7609572  52.2802010  51.2393951   2.2014015  52.8448067  50.7061462
   3.1657207  51.6820221  50.6112404  73.0743561  69.7473679   3.8836806
  72.2430801  69.3377991   3.6439872  72.8515701  70.3384018   4.6028981
  40.0943832  41.3386803  29.7066822  40.3414459  40.9344406  30.5384178
  39.5346603  42.0744362  29.9548931  77.8639755  64.7486954  51.6086197
  77.7555847  64.6694565  52.5563545  78.6581421  65.2721634  51.5013084
  50.7051086  15.7011585  86.4850922  50.8466568  16.4750214  85.9398041
  50.3684235  15.0401993  85.8801041  66.7056046  61.3923225  40.1966133
  66.2647324  60.7992477  39.5882339  67.3247604  61.8778267  39.6514854
  55.5814018  41.4674911  13.7497654  54.6364746  41.5366402  13.8860016
  55.6709023  41.1338272  12.8570795  67.1279373   9.2206669  36.8801804
  67.0306244   8.3871508  37.3406296  67.7459106   9.7189999  37.4149780
  69.5116119   5.7187796  70.7594528  70.0236053   6.2261310  71.3892822
  68.7790756   6.2906942  70.5302429  56.4506836  20.0178680  11.4833584
  56.2595367  19.0802402  11.5067406  55.5924149  20.4386158  11.5341167
  28.7843380  26.6914062  19.1183109  28.2748718  26.7173634  19.9282494
  29.1065884  27.5861130  19.0092812  60.8640785  35.5778656  74.4150467
  60.7828445  34.7982559  73.8656464  60.6772461  36.3076057  73.8244553
  33.6033173  46.1798973   2.7162964  33.6104736  46.4959984   3.6197672
  33.8998375  45.2718658   2.7778916  18.5290699  11.9466057   7.6192060
  18.1003647  12.5808058   8.1938648  19.3849239  11.7989931   8.0216455
  65.5117340  70.4072800  73.8661194  66.4402618  70.2441864  74.0318527
  65.4485092  71.3577728  73.7723846  44.9075203  68.9228592  71.3431168
  45.7334137  69.1084900  71.7899628  44.2558556  69.4353027  71.8216171
  59.3276367  13.0198679  58.7379990  59.8731689  13.7125788  59.1105309
  59.6434326  12.9233780  57.8395576  65.0231934  10.4114628  18.9239731
  65.0751038  11.1447773  19.5369873  64.6974335   9.6815958  19.4506664
  74.1334763   3.7691085  77.2843475  74.8507080   4.1448970  76.7738647
  74.2031860   2.8258827  77.1370468  28.1612606  66.6023865  61.1223640
  28.7399178  66.2204361  61.7822876  28.6934452  66.6354141  60.3274307
  24.5522995  70.9246292  33.3300438  24.3104916  71.8001633  33.6320305
  23.7271919  70.5343246  33.0417862  15.0150080  31.2643204  24.6768341
  15.9200783  31.5137939  24.4901752  14.5027962  31.6885223  23.9884129
   3.3364625   8.7438631  73.9863281   2.9959495   8.6763172  73.0942993
   2.7528479   9.3671503  74.4189224  67.0608139  45.1724777   6.7681756
  67.1459961  44.2495689   6.5289741  66.5482559  45.1640701   7.5765333
  28.4643002  64.1012268  38.5924149  28.1005268  64.5941772  37.8569603
  27.7249680  63.5967255  38.9316826  50.1666527  18.2817669  61.4424782
  50.5352135  18.6746120  60.6512299  50.1757927  17.3404408  61.2691231
  34.0703201  20.8028564   2.6697793  33.7810402  20.3592167   3.4671068
  33.2641716  21.1343002   2.2741771  64.8836899   8.1077805  71.3004532
  65.0788956   8.7577343  71.9755020  64.3135300   8.5668564  70.6836929
  25.5710125  21.0224819  67.0467224  24.7153187  20.8496571  67.4393387
  25.3888779  21.6383076  66.3369217  87.0809708  21.2437191  35.9089966
  86.6398315  21.3498325  36.7518311  86.3774643  21.2968063  35.2620888
  39.5560646  68.0039291  86.2079010  40.2966995  68.0253143  86.8139038
  38.7855072  67.9502716  86.7732315  86.8944702  19.1023197  82.0886307
  85.9438782  19.2048035  82.0427780  87.1652374  18.9702930  81.1800690
  24.6089706  13.3206120  43.0601158  25.4235058  12.9074545  43.3465881
  24.8186340  14.2531462  43.0086098   6.0815535  57.7790146  63.9425430
   6.4960237  58.1181908  64.7358932   5.2164059  58.1884155  63.9305191
  79.2327423  58.4219093  60.9438477  79.9992523  58.7491570  60.4731026
  79.3083572  58.8027763  61.8187485   5.7592406  38.5858879   6.9517183
   6.4131699  38.5448799   7.6495199   4.9192977  38.5251846   7.4067378
  13.5518360  34.4843292  50.6325912  14.4979019  34.3394966  50.6179390
  13.3229294  34.6642609  49.7207489  65.6183014  69.0072632  85.0016022
  65.6603317  68.0510483  85.0125351  64.7820206  69.2150269  85.4183731
  42.5968552   4.5778918  49.6333542  42.3864899   5.3211513  49.0680733
  43.4845505   4.7566643  49.9436340   9.0049944  59.6843338  15.1500921
   9.8815947  59.2998848  15.1492691   8.9750767  60.2141571  14.3534594
   0.2534992  36.8785362  41.7788773   0.5634122  37.2168999  42.6189346
  -0.6602104  36.6420097  41.9383202  10.1379499   3.6021800  15.7963562
  10.1756868   3.0681949  15.0028400  11.0545034   3.7496560  16.0296211
   3.4519649  61.7119713   1.4118987   3.8848026  61.7256203   0.5582612
   2.9045317  60.9270592   1.3903408  42.5770149  14.4991579  32.0244217
  42.0167999  14.0189419  32.6341629  43.2818489  14.8475351  32.5703850
  22.3016777  51.7130394  87.7148590  22.6770878  51.1311951  87.0539780
  23.0599880  52.1157799  88.1379395  62.8029137  62.0780907  63.8097229
  62.1434174  62.6011543  64.2654572  63.2881737  62.7118835  63.2814636
  39.4132576  11.5849504  82.6650391  39.7109604  10.6766787  82.6135864
  38.7513466  11.5812407  83.3564758  11.0623512  46.3522301  20.7118626
  11.1190739  45.5198479  20.2426567  10.1486673  46.4076157  20.9917679
  57.8788528  68.0504990  29.3042107  58.1474037  67.6579285  30.1348743
  57.4304276  68.8581543  29.5548840   7.2576308  25.8982887  26.4237461
   7.5807629  25.3800888  27.1608257   6.9410853  25.2493973  25.7952785
  64.2649994  24.8882256  16.6100025  63.9118729  25.7348042  16.8835621
  63.5944099  24.5245171  16.0318546  81.9712143  47.5208130  67.0115738
  81.2537079  47.4769020  66.3795242  82.2885437  48.4218788  66.9514618
  65.5783844  70.8317566   8.1227360  66.4001389  70.5170517   8.4994402
  65.0558167  71.1002808   8.8784170  83.7121353  48.8802986  29.3821869
  83.2758331  49.5494537  29.9095459  83.6644440  49.2129440  28.4859142
  45.5246468  47.4232941   2.7104974  46.3345566  47.7081985   3.1337128
  45.5282173  46.4706078   2.8033016  85.0708466  66.5927429  74.7741776
  84.4460068  66.7358627  75.4850311  85.2468872  67.4684448  74.4300919
  78.3454361  27.0733414  38.1083527  77.6166763  27.6922741  38.0630226
  79.1286392  27.6224117  38.0715408  65.4603882  32.0727081  39.8761749
  64.7479019  31.9133205  40.4952011  65.7923737  31.2005138  39.6633453
   3.7097707   7.4762998  63.3456459   4.6075344   7.5347323  63.6725082
   3.1636517   7.6146760  64.1194916  56.9693794   5.8160806  31.0621262
  57.7299232   6.3497114  31.2924366  56.9208870   5.1567969  31.7543869
  13.1329851  57.5692024  37.7594490  13.9113455  57.0128784  37.7296181
  12.3992777  56.9585648  37.6885529  81.2223816  22.6767864  30.9627857
  82.0718002  22.4812813  30.5671997  80.8518372  23.3628693  30.4076099
  56.5108147  56.6368179  47.9369431  56.5638542  55.7292442  48.2364960
  55.5967979  56.8829460  48.0791512  44.1601906  54.8167191  44.5247116
  43.9617729  54.7414131  43.5913353  44.5598564  53.9774666  44.7530861
  59.1332436  61.4372749  81.0663147  58.9111557  60.5849571  81.4411011
  60.0847778  61.4960442  81.1521072  80.9957657  36.8579521  32.4647598
  81.1920929  36.2003899  31.7974510  80.2360840  37.3282661  32.1213684
  10.0413237  22.7032013   2.0641174  10.9733620  22.5071678   2.1595457
   9.5980873  21.9858017   2.5170085  21.0456181  38.4376984  56.9063644
  21.4713936  37.9313049  57.5981102  20.5210457  39.0877953  57.3737297
  81.0626678  19.8442612  21.2197037  80.8178101  20.7591152  21.0807171
  81.1922913  19.4944382  20.3381996   6.1864042  45.3735733   2.7685783
   6.4702311  44.8029480   2.0543926   5.8699412  44.7731590   3.4435468
  77.8870392  56.4564209   1.4627876  78.4865952  57.1979103   1.5462114
  78.3246155  55.7414246   1.9248886  84.9827194  26.6152382  85.8561325
  85.3401031  26.0381393  86.5310135  84.7288055  27.4079533  86.3287506
  23.4781094  19.5271416  25.1341572  23.6053658  18.7384281  25.6613865
  23.3548470  20.2267704  25.7756844  37.2119827  42.7439270  75.5684280
  37.7513199  41.9624367  75.6893387  36.3996391  42.4168587  75.1819534
  60.6674957   0.5663724  38.2440338  60.8608017   1.2093842  37.5618324
  61.4386978  -0.0002474  38.2645531  41.2100029   8.9264603  45.9855118
  40.2800598   8.9059048  45.7596397  41.6401901   8.4547796  45.2722893
  23.5269051   7.5891099  71.9189224  23.8285389   6.9931703  71.2332764
  24.1900806   8.2788353  71.9455566  14.4216671   2.1215694  15.9190054
  13.5215569   1.8258809  16.0553970  14.9276304   1.3142512  15.8269749
   0.7711561  36.0782433  49.8300056  -0.0261652  36.0637703  50.3594398
   0.7190571  36.8994370  49.3409653  64.5420303  71.3985367  10.4792528
  64.9936981  71.0113754  11.2291422  63.6701202  71.0038757  10.4949360
  72.4827042  25.5001888  77.5417786  71.7423401  25.6312675  78.1341553
  73.0680466  24.9103508  78.0168457  63.8822937  58.8144379  14.7019033
  64.7071609  59.2290382  14.4490433  63.7082367  59.1452065  15.5831118
  58.5895081  28.8588886  51.8050079  58.8777351  29.4862862  51.1420403
  59.0841751  28.0624332  51.6121521  85.2615585   7.2890415  16.3162575
  84.9335403   7.2516708  15.4177904  86.2142563   7.2797117  16.2240009
  79.1273575  42.9250755  37.7984161  78.9513550  42.6467972  36.8996277
  79.4352646  43.8274422  37.7138100  86.9411469  56.8104515  23.0363235
  87.1645813  56.8358040  22.1059113  86.0616684  57.1855164  23.0817509
  27.2058220  32.2024765  76.6445160  27.5826454  32.8670616  76.0678329
  26.4735756  32.6450729  77.0736465  62.0542068  68.4238129  50.1020584
  61.5009766  68.1277847  49.3791924  62.8078842  67.8340073  50.0839386
   3.8714588   8.3209515  16.9015694   4.0983777   8.0554533  17.7927780
   4.5276351   8.9794426  16.6734180  78.4364395   7.4124451  53.9644966
  78.6434479   8.2274914  53.5072441  77.6221848   7.1116452  53.5610771
  54.7717476  57.9342155   2.9942946  53.8508644  58.1907387   3.0432856
  55.2399292  58.7526741   2.8294790  52.8595428   1.0364655  81.9255753
  53.2810478   0.3483179  81.4107742  53.2785187   1.8456089  81.6323547
  25.0260715  27.4121742  76.2534332  25.5123920  28.2173595  76.0762329
  25.2534275  26.8304844  75.5280533  48.6932373  68.0573654  18.7526073
  47.9475670  68.2515335  18.1847153  49.4604568  68.2764435  18.2238235
  85.2356796  65.3313141  86.1963272  86.0084763  64.8660355  86.5165329
  85.0939102  66.0289459  86.8362045  31.2152634  21.4037266   1.8703824
  30.5080166  21.3233910   2.5103674  31.0180893  22.2111588   1.3956114
  13.7931252  29.1185951  25.8905125  13.8249273  28.6941471  25.0331516
  14.1859159  29.9794922  25.7462864  21.0436821  40.2532654  72.1666870
  20.1294689  40.5207062  72.0722427  21.4505863  40.9626465  72.6641159
  21.5478325  67.2644730  46.9265213  21.9402161  67.8545074  46.2829933
  20.7186565  67.6818848  47.1599083  52.0550728  49.9133720  72.0984116
  52.8605080  49.9542961  72.6139984  52.0156288  50.7572670  71.6483917
   5.4279575   5.9809847  16.0184612   5.0887895   5.5588241  15.2291718
   4.8197980   6.7011318  16.1850796   1.8066180  21.9202499  69.9512634
   1.5908775  22.6279469  70.5585938   2.6356452  22.1888466  69.5552826
  50.4720345  60.2451744  25.6851101  51.2717361  60.0405922  25.2004948
  49.9177437  60.7004662  25.0513058  47.5513916  43.6147461  69.4355087
  47.0983887  42.7899704  69.6109085  48.4413567  43.3535881  69.1988907
  40.3853416  29.7884674  75.5872726  40.4634399  28.9747562  75.0892715
  39.5265961  29.7313824  76.0062408  58.0469818  66.9779205  60.9645424
  58.9583054  67.0010834  60.6726761  58.0365486  67.5106354  61.7597389
  34.4840508  58.0679512  85.9847717  34.5662537  58.9327278  86.3868103
  35.2264290  57.5718803  86.3297653  31.8854370   8.3669338  60.7554359
  32.1284523   9.1950169  61.1695061  31.4526272   8.6241646  59.9413490
   6.2894711  30.4852734  16.5998497   6.1338124  30.1706200  17.4903526
   6.7905917  29.7846489  16.1824341   5.7701020  29.8001308  72.0842209
   6.0660467  29.9274025  72.9855804   5.0443983  30.4157429  71.9812164
  61.2051010  44.9114075  45.1415939  61.8219147  45.1489563  45.8339424
  60.9454422  45.7476234  44.7548752  78.4357071  44.9356575   1.8496302
  77.7965012  44.4773827   2.3951871  78.7045670  44.2867661   1.1993308
   1.6903893  63.9858551  36.3834915   1.7142929  63.0291176  36.3658600
   0.7729979  64.1994247  36.5538254  50.8270035  54.3469620  29.6358356
  51.2066078  54.3294601  28.7572994  50.2225494  55.0890160  29.6208324
  67.3786774  26.8678169   5.5576530  67.7038879  27.7659492   5.6195378
  68.1672058  26.3335896   5.4624953  42.1807556  61.4589310  76.3208389
  42.6091652  61.8163986  75.5430756  41.5447426  62.1283722  76.5729599
   6.2891955  49.8409653  84.6554184   5.6192055  49.6306648  84.0049438
   6.4527359  50.7766190  84.5369263  42.8336716  64.3962936   6.0241251
  42.4297638  63.8600311   5.3418417  42.1159782  64.6024170   6.6230083
  69.1116943  59.0779610  88.1913528  68.2698441  59.3857117  87.8554840
  69.3845825  59.7551117  88.8104095  16.9277458  67.5349579  58.0527611
  16.6867752  68.4587860  58.1213646  16.1408386  67.1065521  57.7158928
  40.0309639  21.7681103  86.0537186  40.0730896  22.6364632  85.6531906
  40.8772011  21.6636715  86.4886932  85.6464844   1.5683980  52.1813469
  86.4452515   1.6807960  52.6966896  84.9494324   1.9074525  52.7429390
  60.3762054   9.8263092  68.9061737  60.3515778   9.6630020  67.9633255
  59.6841354   9.2700663  69.2637482  18.1118641  66.9949646  63.7958107
  18.5660114  67.8357849  63.7409554  18.7948380  66.3431168  63.6380997
  54.8758240   6.2241449  84.7332306  55.5143814   5.7295098  84.2196045
  54.6567345   6.9761419  84.1830215  29.6602173  59.5571060  34.9900703
  29.5271893  59.0783081  34.1719704  30.0404625  60.3927956  34.7193832
  23.8446083   4.7640872  61.7917595  23.7483997   5.4684091  62.4327812
  23.5456161   3.9794691  62.2513351  61.6952362  18.8751678  69.4287262
  60.8024712  18.5508690  69.3102646  61.7866936  18.9845905  70.3752365
  72.0607986  65.6500626  26.3472023  71.8644638  65.3364563  25.4644032
  71.2493896  65.5128403  26.8361034  15.3354158  44.6435165  19.5086021
  14.7677727  44.1084976  20.0633717  16.1856785  44.2051926  19.5426235
  17.9296894  61.5214996  69.5370178  18.7567463  61.6927910  69.0866089
  17.8736076  60.5669136  69.5800171  76.2665329  51.4147644  30.0880051
  76.6559296  52.2499466  29.8290291  75.3439331  51.6181374  30.2419052
  11.6903934  25.7343082  84.3744202  11.8597269  26.6724033  84.4612198
  11.4818029  25.4453678  85.2628098  14.1589241  22.3605328  72.9409409
  13.3972406  21.7980938  73.0814133  14.3628998  22.7087040  73.8089294
  26.8557949  55.8016281  11.6251373  27.4760399  55.2714157  12.1255388
  26.0589027  55.8022766  12.1554146  35.5051003  62.8842964   0.8464169
  36.0314255  63.0602684   1.6263186  35.9088974  63.4154739   0.1600985
  29.0146923  10.9343338  28.0416031  28.3906612  11.4948826  28.5026894
  29.7576351  11.5076275  27.8529148  45.5314522   7.4133234  19.1557198
  46.0023193   6.5903840  19.2871933  46.1269684   8.0855637  19.4869041
  47.4931107  71.0052643  24.8410702  46.6090393  71.0945587  25.1969910
  47.7033234  70.0780106  24.9517117  35.7447319  14.3989735  33.4481125
  35.1570854  13.6794014  33.2176361  35.4339447  14.6976433  34.3027725
  57.4092178  49.3184662  60.2340508  56.5513344  48.8942223  60.2509956
  57.4788628  49.7519989  61.0845985   5.4239302  37.9356499  40.2020493
   6.0941944  37.2602081  40.3057671   4.5951457  37.4694977  40.3118210
   3.4960706  69.1894913  19.9146328   3.2293534  68.2759018  20.0168571
   3.3504322  69.5793991  20.7766018  62.6852379  34.3179016  61.2802887
  63.5358887  34.6184845  61.6000938  62.6897697  33.3738976  61.4386292
  24.7459526   7.9688077  83.4314041  24.3381443   8.3513355  82.6544876
  24.8068542   7.0341010  83.2343063  61.9409065  24.3355446   1.8443664
  62.3335686  23.6469898   1.3077666  62.6850128  24.7601719   2.2712486
  26.3745861  26.9182434  26.0904541  27.1765842  26.5349560  26.4455910
  25.8266678  26.1651344  25.8694477  27.6580334  50.5631027  74.6200867
  27.4942169  51.4198494  74.2259064  27.5368423  50.7043381  75.5590210
  35.3060493  55.2024307   0.6467456  35.8350716  55.3435287  -0.1384034
  34.5371399  54.7251892   0.3348964  33.9594803  65.3676910  15.9924145
  33.8954582  66.2204056  15.5622911  34.3856354  65.5529404  16.8292580
  31.3736477  60.6431618  77.7281952  32.2380943  60.2775383  77.5403671
  31.5130024  61.5899773  77.7470627  64.2497330  22.0381336  53.7729073
  63.4072800  22.3460999  54.1070671  64.3936768  21.2035217  54.2189255
  21.0126724   0.0815143   9.0555639  21.1452026   1.0269960   9.1243534
  20.9921207  -0.0895808   8.1140032  66.8915863  34.3527222  26.4184475
  67.3468323  33.7483521  25.8321724  66.4064255  33.7853928  27.0176067
  44.1263962  63.4841347  85.7704391  44.5600624  62.7868576  86.2623444
  43.9646072  63.1033554  84.9072647  29.6214981  40.9988937  72.2539139
  29.8240452  41.9316139  72.3262939  30.4323616  40.6016655  71.9362030
  50.5383682  22.6723366   0.3212026  50.2807426  23.1017647   1.1369549
  51.0895691  23.3156395  -0.1244091  70.4743423  61.6836433  52.2932129
  70.3366852  60.9721985  51.6678085  70.7253952  62.4325790  51.7525673
  69.4392395  56.2698059  37.8042221  69.1667557  55.5475540  38.3702049
  68.6651001  56.8291206  37.7401886  46.7620087  66.8198395  20.8003082
  47.4501076  67.3316116  20.3750496  46.3828011  66.2955780  20.0949154
  67.5594711   0.6465467  76.5561447  67.8905334   1.5402465  76.6452103
  67.2998886   0.3977698  77.4432526  31.6304646  51.4820137  22.5563908
  30.7161694  51.3156624  22.7857819  31.7098885  52.4358711  22.5652504
  66.9437943  57.5049553  37.8374062  66.3798370  57.8392105  37.1399422
  66.5046692  57.7667503  38.6466446  40.6306992  15.6374397  83.5417252
  41.3203354  15.0322676  83.2689590  40.9215546  15.9639406  84.3932114
  80.9570923  31.2293224   4.7256460  80.5584106  30.7392178   4.0065632
  81.8183365  31.4831963   4.3939328  13.2796001  70.8666000  43.0909195
  12.4346180  71.0022278  43.5196877  13.3550425  69.9162064  43.0055313
  84.3593216  61.5247078  43.3238564  84.3563232  60.5872345  43.5171700
  84.7733841  61.9255333  44.0881310  26.1668625  55.5832710  37.6450958
  25.4674911  56.2308006  37.5567055  26.2038422  55.1525764  36.7910652
  15.9284010   1.4661719  85.8669662  15.7020206   0.6119279  85.4991989
  16.3259411   1.2645222  86.7140350   2.9403236  13.5663033   2.8840885
   2.8829350  13.8101339   3.8079309   2.8732936  14.3966351   2.4126143
  69.6755142   6.4502859  75.2763062  70.6273880   6.4286551  75.1778030
  69.3847885   5.5864139  74.9840164  33.4965897  11.4256468  43.0744209
  33.1690216  11.3798866  43.9726601  34.4425240  11.5367403  43.1698074
  30.2490788  32.9956741  17.7142754  29.8309631  33.8137589  17.9828758
  30.5367756  33.1574707  16.8157864  51.4076195  63.7961388  23.4232788
  51.7187843  64.3780746  24.1166420  51.6630745  64.2333908  22.6110039
  62.0305252   1.3336743  64.8189697  62.6839752   1.0916528  65.4752121
  61.1943855   1.0759591  65.2071457  67.2597809  51.3372841  22.9056797
  67.6947250  51.7148552  22.1411572  66.8579712  50.5321312  22.5793228
  16.8032398  16.8075027  75.7617493  16.8670673  17.6774712  76.1558456
  16.6454811  16.9763393  74.8328552  10.4351892   8.8770905  74.3511505
  11.0960112   9.3072214  73.8084412  10.4317923   9.3782578  75.1666565
  23.7003384  39.8554535  80.0187149  23.5082798  38.9414101  80.2281723
  22.9970436  40.3503685  80.4390335  54.7949600  10.2448292  59.4617157
  53.9012070  10.0170259  59.2056961  54.6949615  11.0154963  60.0205574
  34.1832390  48.0193062  29.0820808  34.6933060  48.5231819  29.7162514
  34.8190651  47.7599831  28.4152145  84.2432098  18.9313126  83.0192947
  83.6235123  19.6582966  83.0800934  84.4974518  18.7568913  83.9254761
  13.8019381  18.0075855  65.6187057  13.3977842  17.9675217  66.4854736
  13.0974922  18.2975731  65.0391464  60.4266434  31.8880348  30.1678944
  60.8602295  31.5781307  30.9630013  60.6911812  31.2639446  29.4920521
  10.4973764  32.9302216  42.2318802  11.1002941  32.5445213  41.5963020
   9.7253332  33.1656647  41.7173424  38.9487495  36.1579285  22.0516758
  38.6829567  35.6332817  21.2964725  39.0769882  35.5197487  22.7534676
  47.1138802  17.1168518   8.5230427  47.5835457  16.3403606   8.8275175
  46.9742622  16.9613743   7.5889301  70.1073303  70.6509628  17.8545704
  69.2386246  70.2573853  17.7728539  70.7099991  69.9076080  17.8336334
  22.8484974  21.4556637  73.4734039  22.4608517  21.8185387  72.6769791
  23.7007236  21.1211491  73.1940384  80.9135895  18.8916168  11.3257933
  80.1601791  18.4200020  10.9705677  80.5446777  19.4542255  12.0066805
  71.8540878  55.8548164  29.2945518  71.5729294  55.6887360  28.3947754
  72.3362961  56.6802711  29.2463055  49.7005768   1.9483328  19.2019215
  49.0951805   1.9427650  18.4605064  49.3264427   2.5841196  19.8118629
  38.0301819   6.7848907  65.7536774  38.0457840   5.9330487  65.3173752
  37.3338852   7.2687588  65.3095169   8.0217457  38.1994362   8.5518160
   8.8980618  38.5458527   8.3836002   8.0544233  37.8954201   9.4588661
  70.6618729  24.5009155   7.3397603  71.4464111  24.0795918   7.6907964
  69.9502411  24.1828003   7.8952870  67.5563736  56.6536903  51.3754616
  67.3920898  55.8698883  51.8997612  66.7247543  57.1275330  51.3859749
  35.8545799  67.5731430  42.9841118  35.7091827  66.6465225  42.7931709
  35.4055748  67.7194443  43.8167152  59.9236526  32.8716698  27.3694401
  59.1839600  32.7493629  26.7743530  59.5314407  33.2177391  28.1710873
   8.6673260  51.4062920  76.5921478   9.2599916  52.1299629  76.7953262
   9.2352829  50.7258110  76.2307587  31.4827576  59.0239563   0.7823692
  31.2504711  59.1192665  -0.1413142  31.3228455  58.1001740   0.9754658
   4.6077776   4.3179641  22.3733406   4.1164699   4.0008855  21.6155090
   5.4763093   3.9275312  22.2761440  44.3520088  65.2890625  13.1882658
  43.9736862  64.7284012  13.8655882  45.0941315  64.7882004  12.8497076
   8.5655031  17.3367481  25.5045261   8.5185642  17.7993011  26.3412304
   7.6767979  17.0117111  25.3603554   3.9985819  35.2804222  23.5956573
   4.6429768  34.7626877  24.0782948   4.2490611  35.1789780  22.6773968
  29.5494595  11.4336119  78.0327225  29.8148556  11.0543270  77.1949005
  29.2551422  10.6852512  78.5519180  46.5572128  44.3105545   1.8041774
  46.5569038  43.3981705   2.0936346  47.3324203  44.3850021   1.2476344
  55.4879112  60.0779686  16.1327381  56.2026291  59.8172874  16.7136478
  54.9771690  60.7031746  16.6470261  15.6991978  18.2465248  15.1095762
  16.0797482  19.0886173  14.8599901  15.9253893  18.1461124  16.0342312
  47.0729866  44.9174919   8.8496284  47.5527077  44.1398201   9.1348057
  47.7545242  45.5379829   8.5912971   3.4566844   2.3879681  51.2025642
   4.2955637   1.9504132  51.3476830   3.6909802   3.2362444  50.8260498
  53.5378265  14.0024614  67.0186768  53.0476952  14.6098680  66.4645462
  54.4537926  14.1483288  66.7821198  42.5664215  54.3484917  37.7812042
  43.1376266  55.0204659  38.1532288  43.1549759  53.6235619  37.5706940
   8.8538818  59.5685539  36.8850746   8.6359825  58.6861763  36.5848122
   8.1270695  60.1116486  36.5800743  80.5475311  51.7472992  62.3804321
  80.1269836  51.4577827  61.5707703  81.4759216  51.8146362  62.1572914
  61.6320381  36.8116112  20.8057938  61.5728722  36.9755630  21.7469902
  62.1835938  37.5198517  20.4735107  31.0333233  40.9660797  27.1606216
  30.6254044  41.4685173  27.8658810  30.6559658  40.0901146  27.2413406
  49.3302383  59.8444328  67.9056854  49.2862701  58.8899040  67.9619904
  50.2609253  60.0473099  67.9999924  75.2042007  35.4391289  64.8519135
  75.5162048  34.6381264  65.2729568  75.3062897  36.1165237  65.5204544
  61.6709175  19.3572674  31.0795631  61.8015327  19.8050327  30.2436943
  61.0088882  19.8809376  31.5309162  58.8978157  49.8640823  51.7923737
  58.2913055  50.5202675  51.4491577  58.3938255  49.3976479  52.4592094
  69.8805237  17.7042847  85.1171722  69.7530060  18.6503563  85.0470505
  69.5729752  17.3584003  84.2793121  14.1206951  62.9906006  26.9296055
  14.4149122  63.5920486  26.2455521  13.7077093  63.5548782  27.5832615
  71.8448029  29.2514324  12.9095087  71.8619766  28.6393547  12.1737785
  72.3681259  29.9963036  12.6136532  44.8410606  29.0900440  12.2835407
  45.2667694  28.4955330  11.6658344  45.1495628  29.9599819  12.0300283
   3.3874111  45.5416985  22.7441845   2.9458797  45.2575989  23.5445385
   3.8118858  44.7510071  22.4112339  57.6622734  69.3069229  36.8819122
  58.4855080  69.2979889  36.3936195  57.7318497  70.0706329  37.4547501
   3.7531815  57.6469994   1.5219957   3.1602864  58.3762131   1.3404548
   3.1740398  56.9106255   1.7184124  59.3617172  54.0770874  47.5839615
  58.5503693  54.5001602  47.8649521  59.7582207  53.7573357  48.3943748
  54.6565819  47.8134346  67.8512344  54.6225014  47.1224976  67.1896591
  55.5130653  47.7067261  68.2650909  38.1024666  27.6933155  28.5514736
  37.4147873  28.3438282  28.4094620  37.9601288  27.3858528  29.4467049
  77.0872726  54.0118713   3.2502601  76.1333389  53.9662170   3.1857574
  77.3393326  53.1852493   3.6618378  67.4716492  30.0065041  38.8791962
  66.9237442  29.2777615  38.5877113  68.0573883  29.6202698  39.5303230
  31.9678230  48.1632843  17.4729710  31.8666477  47.7593994  16.6110687
  31.2026329  48.7313347  17.5626011  69.2794266  17.0474663  77.9342499
  69.7529831  17.2549095  78.7398224  68.5010223  17.6037350  77.9639969
  67.9620361  44.8088455  24.4618568  67.6686325  44.2337875  25.1685791
  68.6072845  45.3838654  24.8732319  35.9527664  17.3849392  75.1311874
  36.8798523  17.3904877  75.3693314  35.5332184  17.9396191  75.7888641
  39.9988518  55.2425423  31.4326649  39.8356895  54.6429672  32.1607552
  40.2077408  56.0772705  31.8519859  19.7383881  44.7631912  32.3149567
  19.3975887  45.5297241  32.7759552  20.1338272  45.1186066  31.5190048
  58.7464905  22.0354481  72.8794937  59.5780411  21.8632908  73.3212128
  58.3599396  21.1693096  72.7505951  48.1746101  28.1298046  84.5830002
  48.9325714  28.7141304  84.5661011  48.3488503  27.4914246  83.8913803
  81.9036942  67.8638992  27.2127190  82.3100967  67.0685959  27.5570583
  82.5296249  68.5593948  27.4145355  54.9053497  23.3042088  27.5814285
  55.7009315  22.8798828  27.9027195  55.1381454  23.6198330  26.7082615
  73.0197754  51.6410103   3.8191953  73.6134567  51.8967209   4.5251555
  72.4713898  50.9569740   4.2033863  85.9897461   6.9511099  49.9108124
  86.3901520   7.0240674  49.0444527  85.2667770   6.3356256  49.7894745
  52.1860504  27.4173546  88.9894943  52.4879494  27.7379265  88.1396027
  52.3954468  28.1240616  89.6001968  64.1808395  42.2783852  70.9312515
  65.1235733  42.1287766  71.0026855  63.9060822  41.7289658  70.1971741
  71.9417648  68.6379013  84.0687943  71.9318314  68.6603165  85.0256805
  71.9729309  67.7062454  83.8513565  44.5025749  13.4075747  75.3598633
  44.9657440  14.0070333  75.9449692  44.0593796  12.7948122  75.9466629
   5.6004114  66.5515137  49.2758331   6.2529883  66.2273407  48.6551170
   6.1092095  67.0307465  49.9298172  19.0210571  29.1753769  62.8995781
  19.4145813  29.2070827  63.7715683  19.6591396  29.6089630  62.3329353
  -0.0453755  54.2092972  21.0853119   0.5665601  53.6721344  21.5885220
   0.3774308  55.0662994  21.0303841  62.6029358  22.4640789   4.1236839
  61.9460373  22.8205051   4.7217417  62.7917023  23.1822491   3.5196719
  46.0684662  57.3669930  26.0676155  46.3227348  57.0049934  25.2187710
  46.8981895  57.5674248  26.5007648   0.4842566   6.5709915  88.8016357
  -0.3995416   6.2531605  88.6169357   0.5943469   7.3237705  88.2207489
   5.9455037  36.4959564  47.7367058   5.9474540  36.3559265  46.7898064
   5.2143822  37.0947647  47.8887634  42.9298172   8.7681723  59.6012192
  41.9732056   8.7956781  59.6204872  43.1369972   8.0861816  58.9623146
  26.8985195  13.0295935  19.6256580  26.7356167  12.6004238  18.7857132
  27.8522606  13.0459242  19.7052898  67.8103256  22.5944672  16.9602947
  67.4909363  22.2367535  17.7887058  67.4276886  23.4706593  16.9143696
  84.0015488   3.7367735  39.8075409  83.9418411   4.5885301  40.2401810
  84.8523788   3.3905444  40.0766907  13.8249063   8.6321316   1.7038445
  13.7139254   7.7496877   2.0576899  13.1771631   8.6918240   1.0016357
  63.3296280  64.9004517  53.7365303  63.5666580  64.3111954  54.4526443
  64.0889969  65.4747314  53.6375809  69.7632751  14.1387405   7.9618793
  70.4315796  14.3277931   7.3031950  69.2240829  13.4538860   7.5663085
  55.9422264  56.6929245  19.0746994  55.5346870  57.4001808  19.5746326
  56.0417252  55.9800682  19.7057056  32.5932922  69.9776459  58.0956268
  31.6602688  69.9540405  57.8831673  32.8634949  69.0593872  58.0901299
  67.9647141  66.6856461  27.3411465  67.6208572  65.8546448  27.6689167
  68.8373871  66.4705658  27.0118961  28.5581207  67.1511307  30.2453480
  28.0471191  67.6935654  29.6446190  27.9873714  66.4082031  30.4416504
  77.7439499  60.6236076  26.5909672  78.3369751  61.2469559  26.1714516
  77.7873459  60.8411903  27.5220985  59.1788063  58.5544930   0.5894585
  58.8119469  57.7590637   0.9753864  58.7048340  59.2683220   1.0161065
  15.0853472  49.9409142  21.4571781  14.6765089  49.1542435  21.0963020
  14.3624992  50.5593567  21.5632401  46.6015854  49.6018562  74.1133499
  46.5272827  48.6665268  74.3027420  45.7160378  49.8670082  73.8648834
  64.5843658  35.0403061  79.0038376  64.0130692  34.3067436  78.7763824
  65.4598236  34.7506218  78.7471466  52.3800812  43.7395630  25.2811737
  52.4179535  44.0627594  24.3809834  51.6284637  43.1469460  25.2914639
  80.6164169  34.1599693  64.9154358  80.8249664  34.7526093  64.1932755
  81.3513260  34.2531815  65.5216217  53.4396858  54.8811874  11.5801201
  54.0993423  54.6183777  10.9382362  52.9340439  55.5633774  11.1383314
  48.9484940  40.3813591   3.7313499  48.6634293  40.7563515   4.5646276
  49.0412712  41.1351433   3.1487403  86.7182617  40.5078239  24.8022137
  86.5001450  40.6086655  25.7287598  86.3922043  39.6376228  24.5727291
  10.4392757   5.1845765  83.6183701  10.7822275   4.4122157  83.1688461
   9.8331232   4.8328004  84.2703400  55.7490273  41.6503067   4.1418715
  54.8003387  41.5537033   4.0588622  55.9725418  41.1526680   4.9284034
  11.7621536  16.7151356  50.5248833  11.5920916  15.7924490  50.7145119
  11.8025055  17.1329651  51.3851280  52.2209702  42.2780457  30.7413540
  52.4641647  42.7971687  29.9748020  52.8677902  41.5729675  30.7681541
   6.1108890  52.8734627  72.9155579   6.3416257  53.5389175  73.5637665
   5.2173252  52.6168327  73.1434097  75.8761139  51.9153481  62.8921280
  75.6783218  52.8057632  62.6018410  75.6633224  51.9148560  63.8253784
  64.9145889   1.9310883  25.5311127  64.4957275   1.1616701  25.9168358
  65.8419647   1.6992747  25.4813862  77.0285416  22.9961948  74.2906723
  76.2617645  22.7582073  73.7694778  76.7652359  22.8268604  75.1952362
  12.1638975  32.9029617  18.8557987  11.6584644  32.9374390  19.6679440
  12.5114336  33.7888031  18.7521877  79.0306549  26.1099854  43.4319572
  79.4101105  26.2468014  42.5638924  79.1580963  25.1771774  43.6047478
  20.0310574  61.3200150  29.0840931  19.9330654  60.7632294  28.3116817
  20.2569046  62.1808624  28.7317200  34.6657104  49.9405327  69.1711960
  35.3744049  49.6420097  69.7411728  33.8765793  49.8572083  69.7065125
  52.6993027  20.8605366  50.8531303  51.8595505  20.4091320  50.7677956
  53.2288475  20.5195751  50.1323242  79.0482635  44.5135536  60.6862526
  78.3471756  44.1278992  61.2115898  78.6824417  44.5706711  59.8035622
  57.1591225  51.1675148   8.7060194  57.9653854  51.1953964   9.2211857
  57.0630264  50.2471581   8.4611998  86.1170578  67.6706543  52.9144440
  85.8631973  68.5821381  52.7695999  86.5211411  67.6695633  53.7821693
  63.6858177  48.8678055  61.4947128  62.9251556  48.3532486  61.2247887
  64.3391418  48.2152710  61.7469025  80.0596313   7.6845441   3.6245358
  80.8540039   7.2197781   3.8875830  79.6631241   7.1230822   2.9583721
  22.4571304  21.0076427   5.7325854  22.0726852  21.4382420   4.9690289
  21.9366074  21.3216171   6.4719815  21.4693966  63.5434151   0.8833783
  21.2565384  63.7342606  -0.0301322  21.9626427  62.7238426   0.8481922
   5.6596518  59.5114784  10.5268145   4.9400039  58.8921852  10.4050922
   6.1336946  59.1808434  11.2898321  65.4452057  48.3170280  15.4288387
  65.1922607  49.2401886  15.4340000  65.7694778  48.1525841  16.3142986
  15.5770845  66.8176193  64.8258286  16.4869041  66.8565979  64.5309677
  15.4796610  67.5750885  65.4028778  82.1604385   4.3975120  78.4555817
  81.9529495   3.4817085  78.6412811  83.0422592   4.3727312  78.0840912
  80.1835556  28.2215614  55.7031555  80.0149765  29.0025311  55.1759949
  79.3378220  28.0134773  56.1002350  38.1144409   5.4243693  26.2656231
  38.7524567   5.9226489  25.7548580  38.3879280   4.5124454  26.1664753
  44.7754593   1.7791457  63.0039825  45.5240097   1.7411751  62.4086151
  45.0975685   1.3933985  63.8186455  84.7431107  31.1681004  53.4441833
  84.5787811  30.8186092  54.3200188  85.4974899  30.6721745  53.1260681
  57.5196571  64.9182663  58.0145988  57.0274620  64.4711380  57.3260841
  57.6768494  64.2425079  58.6740494  64.0665283  31.6846333  86.4975662
  63.9513359  32.6298981  86.5946960  63.6138382  31.3093281  87.2528534
  10.3464737  41.8436356  29.9316616  11.2518997  41.5395317  29.9945660
  10.3890562  42.6045036  29.3524380  85.0838242  29.8646469  33.9518852
  85.3895340  29.9835415  34.8511314  85.0863571  28.9163799  33.8214531
  61.6204338  54.2545967  60.6432648  61.4969902  53.8403664  61.4973183
  62.5407257  54.5177231  60.6354637  57.4876175   2.8431695  42.8949966
  58.0257301   3.1947176  43.6042786  56.6381264   2.6714883  43.3013458
  23.6597576  11.6542940  37.9912186  24.5614567  11.7077427  38.3079376
  23.2163868  11.0902052  38.6248245  23.1388321  25.9366436   0.2782413
  23.9214497  26.2102680   0.7566468  23.4692802  25.3643436  -0.4142244
  35.7062950  50.0232010   8.7788382  34.9218674  49.7782249   9.2696438
  35.5906372  49.6126213   7.9219384  32.4126244  50.5088081  50.1214867
  31.7594204  49.8285255  49.9578705  32.0232201  51.3060875  49.7623978
  36.3271484  15.0762920  28.8430977  37.0438042  15.7059994  28.9212322
  35.8770103  15.3246927  28.0356922  30.4582176   7.4501758  51.4498940
  30.8934231   6.7755976  50.9285736  31.0874805   7.6635294  52.1389046
  69.0656509   0.4822771  20.0279427  69.3677063   0.1576386  19.1796494
  68.8526001   1.4020627  19.8703442   2.9400873  71.1916962  86.1979904
   3.7878373  71.0947418  85.7642288   2.6742635  70.2962570  86.4071579
   1.8774234  48.3266106  69.8816071   1.7470582  48.1887741  68.9433975
   2.0595782  47.4534492  70.2289352  25.1242580   2.5125389  20.6916008
  24.7420902   2.2179589  21.5182819  24.6578407   2.0136995  20.0208969
  21.7199287  47.6032486  47.4988632  21.0509281  48.0740891  47.9958305
  22.5496292  47.9570961  47.8192062   8.8676281  34.5814857  41.0036087
   8.5523014  34.8077164  41.8786087   9.2702265  35.3867455  40.6784859
  85.9429321  65.5203400  23.4083195  86.2759476  66.3385696  23.7768841
  85.2676544  65.7945023  22.7877846  51.5612946  53.1821556  58.3484001
  50.9469681  53.7674217  58.7914543  51.0334778  52.7395401  57.6837692
  38.3723145  41.2375870   8.0296097  39.2983322  41.4798508   8.0239286
  37.9884567  41.7747574   8.7226696  20.7569923  36.9029732   5.1925812
  21.0601578  37.6874809   5.6496062  21.5355129  36.3504448   5.1229610
  69.3019943  37.9070511  19.5693264  69.1103287  38.0339928  20.4985104
  70.2495499  37.7756958  19.5359917  79.1791000  16.6213760  32.8051414
  78.3586349  16.4117222  32.3589325  79.0095062  17.4583359  33.2375374
  49.0841866   0.6504703  10.5287495  49.5394058   1.0669781  11.2605476
  49.4171371  -0.2469059  10.5191002  60.2453499  41.2213974  36.6530533
  60.0452499  42.1170197  36.9251747  59.7526207  41.1020203  35.8411446
  47.6124306  58.9304352  32.7741203  48.0698204  58.1089745  32.9536476
  47.5927353  58.9898148  31.8189659   0.2967330  71.1296234  71.3002625
   0.6136871  70.5669556  70.5937424  -0.3479341  71.6998825  70.8814011
  48.3648605  25.2772217  21.4824123  49.2782707  25.0202637  21.3563595
  48.4006500  26.2213573  21.6359043  22.8939838  55.2242393  33.8685951
  23.4794044  54.9459305  34.5729065  22.9698620  54.5357399  33.2079544
  12.1175880   6.4466677   4.3362980  12.3360853   6.0302863   5.1700349
  12.8265066   6.1891603   3.7469287  69.8333130  61.0891876  66.1069946
  70.4153671  60.5421448  65.5795593  69.7732162  60.6343498  66.9470825
  68.8001785  39.0488243  73.2877502  69.5827789  38.4979858  73.2691193
  68.1148758  38.5044975  72.9000549  65.5779724  48.3554230  12.0735712
  65.6233292  47.7368279  12.8026190  66.1998367  48.0141754  11.4308662
  67.4350510  13.1318474  41.7274284  67.1140518  12.2397518  41.5956955
  68.3699493  13.0263996  41.9037399  58.5818100  69.5441589  81.9146881
  58.3384094  69.5182724  80.9893112  59.2597237  68.8741684  82.0028687
  29.8713207   9.8757734  12.3287582  30.4310589   9.8747425  13.1052399
  30.3749924   9.3979568  11.6697903  21.1854610  63.5598259  48.9238777
  21.5208244  62.9053383  49.5365829  20.7982655  64.2342148  49.4820099
  14.9924860  14.8356848  58.0975304  15.4932375  15.6209679  58.3184586
  15.5975618  14.3031378  57.5812836   3.9976277  10.1055145  21.8747330
   4.7346539  10.3885317  21.3335075   3.8949037  10.8023844  22.5228481
  45.1539993  69.0739670  27.5232449  45.1034698  68.1249313  27.6373386
  45.9756737  69.3226776  27.9465904  22.6009674  65.3696747  31.2573967
  22.7446823  64.5369263  30.8078289  21.8084373  65.7252808  30.8553085
  62.4535904  24.4870262   9.1757174  62.4825287  23.7808838   8.5301504
  61.8844299  24.1540489   9.8695583  41.8740845  49.8109665  81.5649948
  42.6035385  49.7066269  80.9540634  42.0836678  49.2232513  82.2908783
  81.6388855  49.8921623  39.6295280  80.8546295  49.9949760  39.0904579
  81.3336487  49.4313202  40.4109955  67.2277756  54.7612419  86.6462173
  66.5689087  54.0942154  86.4533615  67.9078369  54.6238670  85.9867630
  11.7641058  58.7085190  60.1699257  12.1611834  59.4308128  60.6566048
  10.8583736  58.9841309  60.0287895  77.9863510  45.4496078  28.4312763
  78.4745636  44.8185883  27.9024105  78.6143417  46.1497841  28.6090698
  72.4314270  43.3260231  40.0473289  71.6626053  43.3304977  39.4771309
  73.1655807  43.5088043  39.4609451  78.8731689   4.0588651  20.1512375
  78.5358734   4.9537230  20.1923943  79.5900345   4.0437069  20.7853527
  80.2287979  13.0417700  32.9749756  80.7673874  13.7055063  32.5441551
  79.8279800  13.5007486  33.7131615  51.2267570  28.0092335  22.5305080
  50.8994102  28.8817348  22.7491817  51.1149063  27.5028629  23.3350639
  53.9759140  62.2279701  22.8601723  54.2546730  62.5369263  23.7221889
  53.1473656  62.6798019  22.7002087   5.0583925  10.9374647  41.7984238
   5.5197673  10.4002523  41.1543999   5.5136828  10.7667980  42.6229362
  81.2845764  28.3192482  32.2554436  81.3075104  28.2834339  33.2117004
  81.9460907  27.6863136  31.9761238  30.5313206   4.3606319  71.7109451
  30.4647713   3.6336281  71.0918579  30.9075718   5.0769949  71.1995850
  25.2206917  68.3944168  72.3207626  24.4368095  68.2822342  71.7830048
  25.8957653  67.8883972  71.8685989  80.3208923   1.3724809  18.3104763
  79.9238281   2.1770375  18.6440411  80.2003555   0.7359139  19.0150948
   8.0059757  22.4604530  62.0627785   7.3934846  22.0570869  62.6779060
   8.3900175  21.7228413  61.5887833  49.9363747   2.1078424  37.3803520
  50.5183754   2.8602190  37.2733994  49.1031990   2.3944561  37.0063133
  61.7333336  64.5020523  61.0731277  61.3301048  63.6390533  60.9789391
  61.0109558  65.0778732  61.3238029  63.0639076  54.1580734  10.1316261
  63.8280602  53.7044373   9.7759361  62.7924347  53.6219635  10.8766909
  34.6138611  15.1974487  35.7797928  34.5609016  16.0827065  36.1399994
  33.7068481  14.8922062  35.7601433  50.8733139  59.2325745  50.1616554
  51.3623199  60.0439148  50.2988663  50.1772346  59.4729538  49.5501595
  32.0866089  67.9903107  80.0306778  32.6765442  67.3565674  79.6225357
  32.3061371  67.9567947  80.9617538  50.5239563  61.8531151  38.2135887
  49.6252747  61.7631989  37.8965416  50.8006630  62.7167854  37.9074211
  61.9616432  47.0008583   7.0140543  61.1068993  46.5701790   7.0266752
  62.4794044  46.5246315   7.6631818  17.7062912   8.7470131  82.3780899
  18.0270901   8.5861483  83.2654724  18.4645424   8.5862036  81.8164673
  25.6215477  44.9571953  79.3269348  25.5303040  44.0604477  79.6490326
  25.7668476  44.8600349  78.3858261   9.9440269  35.0405731  31.9026566
  10.4061604  34.2564011  32.1988602   9.0191107  34.8440704  32.0514832
   0.2777854  30.2586269  79.6674652   0.9004710  30.9837112  79.6150589
   0.6501617  29.6701164  80.3241348  74.9860153  35.8411751  57.0834007
  74.1003036  35.5623283  57.3157578  74.8589859  36.4902840  56.3914833
  84.8641739  19.6504936  63.9447250  84.6368790  18.8243103  63.5181236
  84.2064209  19.7538567  64.6324081  69.2451782  58.3516197  13.3956928
  68.9814377  58.9187279  12.6710796  70.1455002  58.1012306  13.1884241
  52.3345070  62.4380035   9.2983217  51.3864479  62.3940887   9.1738825
  52.5964012  61.5325279   9.4649286  80.9648819  53.7862129  49.8230133
  81.1566772  53.4815483  48.9360962  81.6419449  53.3830528  50.3664093
  68.4698029  18.1202755  15.8660173  68.1086884  18.7215405  15.2146282
  69.4184036  18.2125549  15.7772703  56.3756981  32.6162033  29.5858517
  57.0791512  31.9701214  29.5229034  55.6322899  32.1272507  29.9387016
  37.4915504  26.1318073  12.4257784  38.0894852  26.8240204  12.7078238
  38.0079117  25.3283939  12.4900284  27.6703739   1.0232776  43.9884491
  27.8835964   0.1136649  43.7801895  27.6986046   1.4750414  43.1450386
  42.1373711  24.1884823  22.5765972  41.2533875  24.1489735  22.9416237
  42.6788635  23.7157631  23.2086983  67.9190903  53.1101952   8.6606903
  68.0900574  53.6681786   9.4194098  68.0667572  53.6802139   7.9060369
  35.0865898  58.3729401  17.9284286  34.4212952  58.0227470  18.5208645
  35.7100296  58.8163834  18.5036831  62.3386078  63.8447075  30.7660904
  62.9806633  63.1556816  30.5950813  62.7709694  64.6505127  30.4832916
  65.0358200  53.0174904  73.9251556  65.3351364  53.1654778  74.8222351
  65.0995865  53.8760071  73.5066910  37.9467087  61.5030518  42.2117767
  37.3565750  62.1898155  41.9014091  38.2474289  61.0672569  41.4143524
  33.5928078  63.5043678  76.0757751  33.3785477  62.6804161  76.5132980
  32.8401299  64.0699844  76.2483597  38.5157890  60.6891975  36.6124496
  38.6095963  59.9236984  36.0454865  37.9304657  61.2736931  36.1307945
   2.7778273  66.1040268  86.7352295   3.1640406  65.6088715  87.4576569
   3.4980969  66.2265930  86.1168289  53.1451988  27.4721260  79.0853729
  53.4286537  26.5808697  78.8815384  52.4113007  27.3578587  79.6891708
   6.8207908  29.2635250   1.8807483   5.8867698  29.4722996   1.8965337
   6.9495745  28.6847420   2.6321840  82.3144073  71.1175156  82.2789307
  83.2236481  71.0037231  82.5556412  81.8614502  70.3472214  82.6220016
  63.2924385  38.5729790  61.7411842  62.3661537  38.3328667  61.7172928
  63.5610733  38.5828743  60.8225060  55.2710190  56.3006248  14.1280327
  54.8022346  57.0674095  14.4574490  54.7235146  55.9735603  13.4142408
  74.7262650  48.8412056  74.8379288  73.9574203  49.2591057  75.2258301
  75.3911057  49.5296783  74.8229446   0.0696776   6.5871930   3.7430127
   0.9646628   6.3306866   3.9653585  -0.1838042   5.9879675   3.0409389
  11.1702700  67.1831512  16.9099178  10.3760290  66.9309082  16.4389744
  10.9045753  67.2126312  17.8290310  81.4678116  45.3475494  53.7562408
  81.7128601  46.1147919  54.2734642  82.2437973  44.7874756  53.7761421
  13.7764721  29.1341839  68.6947174  14.3484297  29.8271713  69.0246658
  12.9926949  29.5936966  68.3934326  84.2991791   8.6447430  36.5682220
  83.4895248   9.0079098  36.2093277  84.9442062   8.7623138  35.8708344
  38.1114006  42.8872223  30.3860836  38.0182686  43.2019501  31.2852535
  38.0628052  43.6782036  29.8492222  36.9985008   4.3859243   8.9233112
  36.9349365   3.4776704   9.2187204  36.9802895   4.9017968   9.7293978
  32.7330742  61.0670471  48.9977417  33.1687584  60.2187920  48.9148293
  31.8628521  60.9268341  48.6245270  49.4035988   0.9453399  70.7229309
  49.0515022   0.0658588  70.5859146  49.2780113   1.3871307  69.8831253
   3.7083986  65.8434601   2.2556789   3.9333441  65.7325745   3.1794405
   4.4204178  65.4129944   1.7824402  75.1035843  29.7015247  68.0196762
  74.2607422  30.1368618  68.1474838  74.9997940  28.8495464  68.4434662
  43.4543991  40.1625938  19.5898876  42.8692589  40.9189568  19.5479279
  42.8725357  39.4055786  19.5220680  29.1359558  28.2644482  48.7814026
  29.9191055  27.7176609  48.8441277  28.4476814  27.7457066  49.1978340
  13.8994665  18.7016945  10.4373913  13.7653685  17.8809452   9.9634485
  13.7189312  19.3839397   9.7907248  50.9041405  13.2907658  51.1901436
  50.5541344  12.6817160  51.8403664  50.3771057  13.1336603  50.4067001
  46.5573959   1.6773633  18.3619728  46.9266586   1.0850885  19.0170212
  47.0797768   1.5202194  17.5754242  73.7059479  24.5432968  71.8393784
  73.6360931  25.3664494  72.3228836  73.1375885  24.6634140  71.0786057
  83.6675034  71.4842377  77.4167328  83.4697723  72.1532288  78.0721664
  84.0863724  70.7802353  77.9118652  73.4159546  65.9783173  16.6885395
  73.7807617  65.1014862  16.8081646  73.7388000  66.2572021  15.8316689
  27.5249805  41.9617462  78.0765991  26.5689583  41.9416161  78.0336075
  27.8028946  41.1835518  77.5934753  20.5786285  69.6589890  66.5830002
  19.7612896  69.4914474  67.0521622  20.8973312  68.7899551  66.3392105
  59.4904366  60.8668785  73.0572205  59.5194969  60.5587196  72.1514511
  60.3744659  60.7137413  73.3907928  86.5854645  38.1406708  69.9278259
  87.3431931  37.5839729  70.1071701  85.9892426  37.9763222  70.6583939
  47.5693321  50.5604134  36.5395508  47.1144333  49.7320137  36.6913834
  46.8723068  51.1808472  36.3263626  62.5128250  29.4859772  53.4108162
  62.3305435  28.5680389  53.2098389  61.7181358  29.9508743  53.1489525
  75.2293472  42.1117401  35.8681793  75.0666809  41.5750389  35.0924721
  74.9758835  42.9963951  35.6048012   3.7431593  25.2787952  13.2778521
   4.6544032  25.4564457  13.5108910   3.2652116  25.3567867  14.1035118
  85.7364044  12.2954302  12.7393999  85.0980530  11.8066769  12.2199173
  86.5309677  12.2940636  12.2056398  79.9035263  43.5854378  52.3323898
  80.3532257  44.3338661  52.7246437  80.2919846  42.8219032  52.7594070
  12.8487549  17.9661160  68.1315613  13.2054768  17.7081985  68.9815369
  11.8999853  17.9008255  68.2402115  77.5281601   5.4621892  11.8563490
  78.2283630   5.9987564  12.2278900  77.8617630   5.1919770  11.0008221
  23.5939903   3.6890485  39.3200417  23.7552128   2.8842928  39.8125954
  23.4877834   3.3982801  38.4142799  13.8292627   8.4522877   8.5852137
  13.2945442   8.5053167   7.7930675  13.7648506   9.3235111   8.9764328
  47.6029625  12.2714071  70.8946075  46.7266769  12.1441860  71.2581635
  48.0308380  11.4214125  70.9978638  78.9145050  51.0658569  66.5433044
  79.5532913  50.8209915  65.8738022  79.4235840  51.5474815  67.1953125
  59.1683617  51.5626755  58.9459343  59.0384750  50.6245041  59.0844765
  58.3009033  51.8925323  58.7115479  76.8482513  25.5738964  29.2105808
  76.0145111  25.8042545  28.8006496  76.8288956  26.0175571  30.0585327
  38.9679413  40.9576874  83.4590378  39.3402405  40.1613312  83.0803070
  38.0935135  40.6985588  83.7496643  30.7625084  63.5707779  18.9314308
  30.8920422  64.4438553  18.5610371  29.8223381  63.5209503  19.1041431
  15.6813927   4.9773154  25.4075794  14.7738676   5.0657463  25.1163578
  15.7550745   4.0651517  25.6882210  13.3165331  34.3936386  79.8557281
  13.2835913  34.4961739  80.8068542  13.2866602  35.2884750  79.5171890
  62.2937622  38.3150024  81.9918671  61.5001335  38.7720795  81.7135315
  62.3584137  37.5653687  81.4001770  62.0061378  41.7085609  73.5936050
  62.0146904  42.4728012  73.0173264  61.1592026  41.7527237  74.0374374
  41.0700569   4.8290563   9.1428957  42.0242157   4.9035048   9.1592274
  40.8976974   3.9118938   9.3558235  49.2127495  41.7365189  78.1448975
  49.9455338  41.1306190  78.2550812  48.8261833  41.8061180  79.0177994
  55.9276810  37.5190506   4.8359089  56.7222862  38.0102005   5.0447097
  56.0862961  36.6445503   5.1913333  14.8986788  24.3581676  31.4703674
  15.2803707  24.1204014  30.6253757  14.4115343  23.5797939  31.7406578
  10.2623110  28.4851856  44.3045044  10.2805376  27.5694103  44.0265503
  10.0883245  28.9758644  43.5012665  82.7803192  39.0332603  86.1933975
  82.4924240  39.8042755  85.7046280  83.2242279  38.4892540  85.5428314
   6.5665717  54.0880814  70.5127258   6.6030173  53.5975761  71.3338928
   6.7168717  54.9976692  70.7701874   4.2566957  10.6397114  59.3354149
   4.6780348  11.1218882  60.0469017   4.9668303  10.1424007  58.9296761
  12.2280664  45.8300819   2.3020391  12.1071701  45.2900696   3.0830662
  11.5721235  46.5221863   2.3854964  46.6803627  71.6937790  67.9280548
  46.4512558  72.1000900  68.7639084  46.5733528  70.7549286  68.0808182
  60.1839790  44.9820900  69.1993332  59.6121864  44.3012581  69.5539474
  60.0210800  44.9644318  68.2562637  82.4411163   7.3828454  87.5423050
  82.6330261   7.2951226  88.4759521  83.2497253   7.7269459  87.1628647
  32.5140343  28.8430996  26.0054550  31.6332893  28.5603561  25.7593327
  33.0103836  28.0295925  26.0953102  12.1395264   0.4490709  50.2819252
  12.7206993  -0.0747823  49.7305222  11.3042765  -0.0180002  50.2610931
  37.0940094  46.6690521  72.0668488  36.1760559  46.6202316  71.8000031
  37.1651154  47.5045128  72.5285568  50.1745682  66.2467880  46.2010994
  50.2174835  67.1312485  45.8376160  49.6396484  66.3376007  46.9896698
  39.2969284   2.1047285  16.8365250  39.2021103   2.5782473  17.6629753
  39.3855667   2.7915773  16.1757565  10.0011778  14.4598122   1.5866114
   9.9320812  13.7083130   0.9977941  10.8396225  14.8634920   1.3623675
  69.0666885  46.7043877  18.4036179  69.0323563  47.1449432  19.2527142
  69.8981323  46.2302170  18.4132557  40.3427124  63.9506760  25.2523804
  39.5292816  64.4390259  25.1255989  40.6075211  63.6930618  24.3693485
  18.6178837  31.1398830  78.1379318  18.1131821  30.4999676  77.6359177
  19.0655060  31.6653442  77.4747849  71.0010147  13.7622461  58.1497650
  70.9935608  13.4502211  57.2448807  70.3235626  13.2461109  58.5866814
  16.4547081  32.2536163  28.0274448  16.9973145  32.3764000  27.2485142
  16.2890549  31.3113499  28.0578461  83.4595642  25.8943863   1.1909566
  84.4141693  25.8973064   1.1205165  83.2613297  25.1267395   1.7272877
  62.2877922  50.6856804  72.0778656  61.6717186  50.0456963  72.4343872
  62.3090286  51.3864899  72.7295151  83.8126755  45.9167633  45.5948715
  84.3148270  45.1460762  45.3300667  83.0149231  45.5601959  45.9856071
  84.4882736  48.0024033  69.6063766  85.2766342  47.4605522  69.5729141
  83.7730026  47.3968544  69.4116516  71.6853256  57.3526230  77.2962799
  71.7205048  56.4218369  77.5168076  70.7995148  57.6227989  77.5382996
  49.0022736  60.6775513  86.0690765  49.2747116  60.6144485  86.9845200
  49.1710854  61.5892372  85.8312454  64.7738495   7.4414659  23.8432140
  63.8199272   7.3741798  23.8014622  65.0189514   6.9057484  24.5976429
  17.1695309  54.0450020  26.9135475  16.3520126  54.2149963  27.3815212
  17.4190750  53.1604233  27.1809120  70.8105011   2.9987428  52.6327400
  70.7016907   3.1325920  53.5742683  71.4888000   2.3269579  52.5631371
  63.3138390  57.3522224  46.3015862  62.7465172  58.1231117  46.2914543
  64.1404724  57.6679649  46.6665726  46.7921715  60.9577217  51.7319565
  46.7281570  60.1627274  51.2026939  46.5210037  61.6608467  51.1417732
  79.0073547   7.7059636   6.2434554  79.2506027   7.8528595   5.3294072
  79.7511673   8.0387230   6.7456961  78.1798859  58.9468117  55.7088394
  78.5741348  58.5763817  54.9191666  78.8066254  58.7491226  56.4047928
  30.9061260  59.9476242  81.5167389  30.3531990  60.5503922  82.0139008
  30.8468952  60.2581444  80.6132507  45.6438980  30.1227760  23.0690250
  45.9352036  30.7443199  22.4019012  44.6923599  30.0929966  22.9694386
  25.6815968  47.0055923  61.6951370  25.9748840  46.1239967  61.4649200
  25.7919598  47.0543938  62.6446991  35.5735397  68.3877182  50.7453880
  35.1282082  69.1244888  50.3269539  35.6270638  67.7203674  50.0612679
  34.7753296  55.5563278  46.1322060  34.3763161  56.4006920  45.9222832
  34.1208038  55.1088295  46.6684647  24.1398888  64.6426926  13.6188488
  24.0457840  64.9534912  12.7184153  23.6244831  63.8366661  13.6491137
  79.0647507  39.2664185  81.8512497  79.1580658  40.2188797  81.8697815
  78.1332245  39.1138878  82.0100784  55.5904999  66.6161270  24.4543667
  54.7262077  66.2076645  24.4054470  55.4156380  67.5550537  24.3905544
  73.3079681  31.3182220  79.8700256  74.0326462  30.7289505  79.6606674
  73.7297897  32.0972176  80.2326050  37.3630524  56.8328247  58.5017128
  36.7681351  56.7929764  59.2505226  37.7123947  57.7238007  58.5205078
  60.0825005  30.9848595  71.9590149  60.4636459  31.8451843  72.1345139
  60.1553383  30.8796158  71.0104065  56.8014870  68.3961029  52.6332970
  57.4720192  67.8352356  53.0232162  56.4919014  67.9054489  51.8719482
  62.1187363  19.4283581  88.7416916  61.8821907  18.8015099  89.4253159
  62.4150772  18.8855209  88.0111160  65.3299637  25.7335892  22.8581867
  64.9391327  25.5256233  23.7068520  64.6913528  26.3070736  22.4344788
  72.2706223  33.3341255   1.2372960  71.8863754  33.9936943   0.6597495
  72.6229935  32.6715355   0.6431268  30.5634460  52.5358925  10.0973072
  30.9328918  51.7384949  10.4766464  31.1213093  53.2395592  10.4287786
  73.1675262  13.1195297  21.8348198  73.1543961  13.7804289  21.1425247
  73.8429565  13.4219837  22.4419060   2.3419497  55.1996613  74.6798630
   1.8931071  54.3562279  74.6216202   2.0516677  55.5683441  75.5141525
  80.6664963  56.3758926  55.4825821  79.8401718  56.7372246  55.1618576
  81.1346054  56.1095314  54.6912804  11.7574806   1.9851140  70.1160812
  12.3357821   2.4048605  70.7529602  11.0067377   1.6907550  70.6318054
  54.0516052  70.2011261  31.0611496  53.5480423  69.5435104  31.5409412
  53.8251839  70.0532150  30.1429501  13.8093271   9.5358801  12.2048769
  14.7098246   9.7572441  11.9675283  13.2863522   9.8265238  11.4577122
  74.7134857  59.2718086  79.6608963  74.5366135  59.0549812  78.7455063
  74.7821960  60.2264748  79.6719360  57.1415138  68.6409988  15.7966795
  56.8198624  68.2642670  14.9776306  56.5927315  68.2455978  16.4739761
  63.3934631  60.0069885  49.7320595  63.1257019  59.0880280  49.7386513
  63.8658638  60.1247330  50.5562019  53.6870041  19.3497791   1.7033975
  54.5405502  18.9505043   1.8715239  53.1084442  18.6097240   1.5195044
  17.7677670  30.3719559  18.2440777  17.5814190  31.2464771  18.5857162
  18.7119083  30.2655735  18.3603172  83.3844528  50.5347939   5.7966895
  83.0895004  50.5118828   6.7070255  83.3090897  49.6286392   5.4976254
  59.9681435  37.2673416  27.6858330  59.9901733  38.2231941  27.6401272
  59.3746567  37.0758934  28.4120235  56.1580429  60.7729759  84.8516769
  55.2966766  61.0516205  85.1625366  56.0222740  60.5606766  83.9282455
  86.1529617  69.4535065  77.3591537  86.9556656  69.9654617  77.4580917
  85.5987549  69.7338791  78.0874939  20.9620705  42.2089539  34.9190292
  21.1324520  41.4398689  35.4628220  21.4518890  42.0456619  34.1130219
  11.5984135  24.7472401   9.4841471  11.5216570  24.9526405  10.4158926
  11.9584074  25.5429325   9.0923414  74.8414764  16.1381588  81.7807312
  75.7023163  15.9569283  82.1580200  74.2268906  15.9719687  82.4954987
  83.4837646  28.2047920   2.7708724  83.1265717  28.9267635   2.2537582
  83.1543732  27.4158955   2.3403201  51.8751564  35.9122849   9.4178534
  51.1595268  35.8495102   8.7852697  52.6442909  36.1245956   8.8890934
  16.9250088  50.5253601  16.7262039  16.4403954  50.3255997  15.9252815
  16.3157635  50.3144035  17.4337006  67.3366547  60.7045555  27.1159248
  67.8249969  59.9092751  26.9031162  66.4980392  60.5980301  26.6669121
  82.8241653  43.9933128  81.7265320  82.3367767  44.0253906  80.9033356
  82.9278717  44.9106712  81.9793777  86.0209122  48.2682419  65.9868240
  85.9556732  47.4308929  65.5276718  86.8765411  48.2405624  66.4150314
  63.0602913   0.9402316  60.1330299  62.2221832   1.3870133  60.0138855
  63.3217201   0.6818196  59.2492294  60.2606773  59.3840981  28.4120007
  60.4672127  60.3158493  28.4855766  59.7532120  59.1883354  29.1996479
  61.3382530  15.1474524   9.2752485  60.7691460  14.5004549   9.6920748
  60.8102226  15.5070171   8.5624151   5.2304382  19.9442749  31.2059135
   5.7854552  20.5825176  31.6540585   5.6277499  19.0973186  31.4084969
  63.9075737  10.5397568  86.5558624  64.5759201   9.8735476  86.3955231
  63.1052856  10.0415001  86.7117615  77.6557465   1.5827357  41.6288338
  76.7038116   1.5864402  41.7290306  77.8050308   1.1789571  40.7739029
  39.1318932  60.6932793  44.5663528  39.8893547  61.2665977  44.6837997
  38.7617607  60.9551086  43.7233353  11.0039587  31.1560707  65.0558701
  11.4877625  30.7147293  64.3577423  10.4548464  30.4708576  65.4369049
  16.8012981  36.4948273  84.3809662  16.1136665  36.0755463  84.8982697
  17.5037956  35.8456268  84.3453979  84.5737762  70.4116211   9.9024973
  83.8356857  70.6003113  10.4820223  85.3060150  70.8981857  10.2810688
  63.7119827  62.4234123  21.5772343  63.0089264  62.8540001  22.0635891
  64.3326874  62.1442261  22.2502937  24.6994820   1.0664651  43.9623947
  24.9281082   0.1423072  43.8629227  25.4997692   1.4773164  44.2894630
  35.0152283  21.3087711  18.6005611  35.8100929  21.0908756  18.1137924
  34.7367439  20.4790649  18.9882030  33.3748970  49.3812408   6.2242293
  33.1602249  48.6820602   6.8417177  34.0406342  48.9994926   5.6521382
  51.5406532  61.8421669  70.7756042  51.5265541  60.8932037  70.9001083
  51.4430122  62.2009315  71.6576385  20.9515362  24.2404671   2.6853998
  21.0793648  25.1720772   2.8642659  20.6312485  24.2114182   1.7838432
  43.5842476   3.1529257  69.9797745  43.7235870   4.0955081  70.0711823
  42.8414726   2.9638948  70.5531693  78.4350967  63.1938515  18.8611012
  78.3716431  62.2980385  18.5298519  79.0338516  63.1321564  19.6053543
  39.2257385  71.1558914  78.1201324  39.4473724  72.0821609  78.0245514
  39.1249580  71.0298538  79.0636292   3.2531705  28.6285515  80.4360428
   2.4187534  28.3288784  80.7968445   3.7886488  27.8370171  80.3815765
  19.6796532  43.6573486  61.7128448  19.8488522  42.9551659  62.3409691
  18.7264786  43.7443581  61.7018738  57.8213577  67.2077637   4.6270375
  57.8504257  66.4902496   5.2599378  57.2634888  66.8817520   3.9208288
  55.6768341  17.4624310   2.2856390  55.8031006  17.1085453   3.1660106
  55.8370132  16.7195625   1.7036399  30.8489666   8.6745033  37.1495247
  30.9863911   7.8703094  36.6489067  31.5026188   8.6366253  37.8477631
  14.9173193  55.2690849  47.0516586  14.2558842  55.2975235  47.7429810
  15.0218630  54.3374481  46.8583794  70.9961853  44.6686974  45.2425308
  70.8769150  45.0700111  46.1033173  70.5196152  43.8403168  45.2963676
  16.5629082  20.7720509  14.0514011  15.9614172  20.8038864  13.3074751
  17.1346684  21.5300217  13.9297256  44.3393974  37.6780663  22.7352524
  43.5272217  38.0185814  22.3602123  44.8823204  38.4538765  22.8752003
  12.3394232  18.0646629  19.7637596  11.9694662  18.9441395  19.6870346
  12.1765757  17.6611061  18.9112015   7.0627890  58.0738716  46.7201614
   6.9779663  57.2649994  47.2248993   7.9716463  58.0745811  46.4198112
  47.7654991  52.8705826  61.7821770  47.4146385  52.4417877  62.5627289
  48.6774368  53.0603447  62.0026245  60.0986443  44.1927223  11.5557327
  60.7311211  44.4114647  12.2400999  59.8497276  45.0375137  11.1807632
  83.1382904  12.4203491  58.9086304  82.7341537  12.0734167  58.1133080
  83.6607208  11.6937904  59.2483597  75.7987213  11.5866508   5.1404700
  76.0956879  11.3801155   6.0266900  75.3124008  10.8100252   4.8637433
  67.9082031  70.9618683  88.3220673  68.0257645  71.0612030  87.3773193
  68.5323181  71.5770721  88.7070847  44.0679741  17.5115871  18.9987068
  43.8202553  17.1490612  19.8492603  45.0208168  17.4250755  18.9697990
  75.9436874  12.9533329  41.1535034  75.4514236  13.3345222  40.4264488
  76.0671463  13.6788139  41.7656021  86.2382660  27.1151085  22.2500591
  85.8736877  27.2318726  21.3727455  86.6411972  26.2471180  22.2284126
   7.3932528  65.0558853  47.6682205   8.1951094  64.6615067  48.0113258
   7.4108286  64.8582687  46.7318077  63.9572868  55.8815994  68.9330826
  64.7364044  56.2663116  69.3345871  63.6933441  55.1885719  69.5382996
  58.6953239  60.7308006  63.7767220  59.1032867  60.1108246  64.3812256
  59.2663765  61.4986610  63.7995987   7.0916600  68.4115295   2.8050454
   6.3254843  68.5551453   2.2495439   7.5962543  69.2215729   2.7312112
  17.5872345  49.0231094  79.9370956  18.1622620  48.5410957  79.3427582
  17.7221851  48.6088295  80.7893829  69.3216400  62.1016121  54.6422844
  69.4966278  61.5628700  53.8706818  70.0868225  62.6721382  54.7145882
  69.3693695  17.8107986  56.1048775  68.7982788  17.1106014  55.7889557
  69.5015106  17.6121960  57.0318794  78.1328659   0.8999950  16.6293602
  77.8125381   1.7931598  16.5033474  78.9489517   1.0049975  17.1184597
  10.0938454  46.7693481  40.9754219  10.5711899  46.1944313  40.3772163
   9.3993473  46.2173996  41.3349457  48.2223358  45.5270386  74.2080612
  47.9436493  45.1496658  73.3736954  48.4472885  44.7706413  74.7498093
  78.7017746  42.3514099   0.5527790  78.6279373  41.7803268  -0.2118407
  78.3433380  41.8338356   1.2737983  80.6481781  21.3815479  58.3704033
  81.1999130  22.1628799  58.4070053  80.8265762  20.9236717  59.1918411
  83.2019501  17.1607857  27.0411873  83.3851700  16.2353916  27.2033901
  82.9223938  17.5020752  27.8906574  18.4195709  62.3029366   0.9642857
  18.6189537  63.2380524   1.0093628  17.6509933  62.2490196   0.3962937
   4.3370824  58.8572006  23.5852184   4.0063548  59.6747093  23.2130203
   5.2672920  59.0228729  23.7385006  67.8817291   6.2870398  23.2884731
  67.6196899   7.2047625  23.3616238  67.4198227   5.8483839  24.0029316
   2.0453420   8.7296419  52.8630676   1.3725470   8.1390715  52.5242386
   1.5544952   9.4395590  53.2769775  54.0024910  21.9966316   9.2365465
  53.6732864  22.5394173   9.9529543  53.2170143  21.7232895   8.7626867
   0.5694550  55.2396011  64.6990280   1.3924088  55.6331596  64.4090424
   0.4106176  55.6243286  65.5609970   1.9236513   6.6205072   9.9031706
   2.6761746   7.0269914  10.3329506   2.1021452   6.7152953   8.9675493
  53.3650017  39.3431168  81.6145554  52.9897385  40.0735893  82.1063004
  53.9812965  39.7540131  81.0082703  73.9315567  35.6088753  19.8013058
  74.6269684  34.9534187  19.8561382  74.3943176  36.4447479  19.7429905
  24.6259136  58.5163574  50.9211693  24.8609314  57.8944054  50.2325630
  24.7659874  59.3764305  50.5250854  65.7060013  62.1650429  42.4406776
  64.8233109  62.4468613  42.2005348  66.0814285  61.8326569  41.6253204
  80.1663742  29.2774048  17.0240059  79.4307480  29.8033047  17.3378830
  80.9433517  29.7636604  17.2998524  34.4177017  18.7269154  41.0104370
  33.5349388  18.8544807  41.3578415  34.8306389  18.1184597  41.6232147
  18.9688606  36.7921333   8.7129459  18.2156944  36.2592850   8.4579020
  18.6900806  37.2320251   9.5160694  30.2768593  33.3597755  12.0890493
  30.2298660  33.8519516  11.2694235  29.5371227  32.7537422  12.0472603
  27.9081841   4.4135695  38.7659111  27.0517960   4.8186150  38.6288986
  28.0584335   3.8973498  37.9739647  50.4742889  31.2147274   6.0665259
  49.5604324  31.3956661   6.2864375  50.8926964  31.0370770   6.9089065
   6.4932485  51.2194633  70.0891953   7.1744757  51.0206947  70.7315750
   6.3745332  52.1672287  70.1514587  11.1470547  67.0436401  84.2812119
  10.6908035  67.3581390  85.0616989  12.0748262  67.0853424  84.5130234
   4.1181731  64.2131958  21.3543987   4.0761342  63.4903755  20.7283058
   4.8718481  64.0074844  21.9074688   4.9444962  69.8353348  15.5172195
   5.8993187  69.7939529  15.4639893   4.7413020  70.7685699  15.4539042
  24.1663723  50.2179298  25.7926311  23.2758369  50.4815636  26.0243149
  24.1547184  49.2622757  25.8457375  28.4899731  43.3106003  75.5999832
  27.8907948  43.0913925  76.3135376  29.2957325  42.8386383  75.8103027
  26.4629669  67.5348892  51.4547081  26.9649048  68.1969147  51.9301186
  26.1484356  67.9886017  50.6727524  13.9884729   6.0077581   2.2154663
  13.7773771   5.3481388   1.5547295  14.9132576   5.8606367   2.4138606
  74.6441345  19.5731373  71.2001648  75.4057541  20.1452923  71.1063309
  73.8922043  20.1574936  71.1034088  83.4021301  52.0040054  23.4014893
  83.2369385  52.0986328  24.3395672  84.2129135  51.4977341  23.3509445
  22.6198254  23.5900135  14.2599344  22.7491779  23.4868946  13.3171377
  23.4099998  23.2185020  14.6521530  36.9541550  -0.0432636  25.1244812
  36.6259727   0.6784512  24.5881462  37.7318993  -0.3524447  24.6599941
  56.1215744  49.9462700  78.3230972  56.5873070  50.7665138  78.4859619
  56.8053741  49.2765312  78.3330383  22.9286537  -0.1801234  85.2292175
  22.1356335  -0.1135914  85.7611237  23.5009785   0.5096509  85.5652084
  82.6266098  66.1197205  54.8987083  82.4846268  66.4239731  54.0023270
  82.2544937  66.8099213  55.4476891  34.7069893  15.4975748  85.7959366
  34.3564911  16.1219234  85.1606674  34.8962364  14.7129869  85.2813110
  13.1974020  29.6262207   7.0699992  14.1259289  29.4017735   7.1307654
  12.8409805  29.4061909   7.9306870  10.7752266  56.5289993  36.5750008
   9.9476414  56.9029884  36.2725639  11.0784092  55.9938011  35.8415985
  85.5056076  27.8558292  28.7399216  85.7851334  27.4712086  27.9091587
  86.0814819  28.6109238  28.8600597  72.9385300  51.9064674  10.8093338
  72.5211945  52.0040588   9.9534502  72.2094803  51.8029861  11.4208937
  15.5524788  70.1906204  51.3746719  15.7347260  69.6404572  52.1364708
  14.7955513  69.7790985  50.9576111  34.9106178  33.8361702  83.0573120
  35.4927788  33.0774574  83.0983124  34.7516022  34.0657997  83.9728546
  20.6949291   1.0296508  39.9571266  20.0101051   0.9011813  40.6134377
  20.8254910   0.1621389  39.5742302  35.3872299   4.1375542  48.6955643
  35.1648407   4.9388733  49.1695518  35.4758224   4.4153237  47.7838478
  42.7633438  19.0541000  44.4332428  43.5672569  19.5689716  44.3635101
  42.1703682  19.6040325  44.9452820  40.8472519  55.9321060  17.9749050
  41.0081329  56.4572487  17.1909599  40.2717209  55.2275429  17.6772728
  47.4173126  43.1286736  14.1557064  48.2651100  43.3594093  13.7759266
  47.6023407  42.9820366  15.0833340  71.3654861  34.7007904  18.6421852
  71.7518616  35.5594330  18.8144608  71.9626923  34.0810089  19.0610428
   3.0122199  29.8756580  74.1565247   3.1165059  30.8214436  74.0523911
   3.8767896  29.5678806  74.4285965  19.3560085   6.5891852  27.2864609
  18.6536465   6.7696180  27.9112492  19.3625069   5.6357255  27.2021732
  82.2119904  25.3245506  34.5467529  82.9208908  24.6959972  34.4103317
  81.4168625  24.8412781  34.3221321  83.3329697  56.9128380   5.2806048
  83.8731766  56.4094353   5.8896995  83.4229813  57.8195801   5.5737810
   2.8198264  36.0104485   0.0511597   1.8685507  36.0856323   0.1263499
   3.0087633  35.1050644   0.2977670  11.9359398  22.8487473  75.6543808
  11.4660196  22.3764610  74.9671021  11.7622280  23.7722397  75.4721222
  47.1092796  63.6689606  16.5750866  46.9781227  63.7104683  15.6278229
  46.9672203  62.7486076  16.7964516   3.9242315  33.0501099  86.5225983
   3.7562737  32.8208809  87.4366379   3.8593390  32.2193871  86.0515137
   5.4620647  61.7277260  88.3708954   5.7437196  60.9238396  88.8075485
   6.1822429  61.9434052  87.7783966  28.5668755  40.2793503  11.5341320
  29.0450058  41.0492516  11.2261143  27.8843842  40.1425476  10.8770761
  13.6933765  39.0548668  28.0950603  12.9729261  39.3069954  27.5174656
  13.5204744  38.1376419  28.3072701   8.4979916  31.2541275  39.4075584
   9.3477163  31.5551872  39.0857468   8.6269531  31.1343651  40.3484421
   3.5672460  23.4090157  49.8165627   4.0677419  23.6543579  50.5947266
   4.1903477  22.9264450  49.2733307  49.0625076  48.7292900  89.1431046
  49.9484825  48.8490562  88.8011475  48.7057877  48.0011978  88.6343231
  31.9527302  43.7734451   1.9392203  31.5792885  44.4116859   1.3314192
  31.6590786  42.9253998   1.6063247  10.1480713  25.6530590  70.9646530
   9.6985464  26.1089325  71.6762238  10.9041815  25.2418880  71.3835373
  55.8099976  63.8590088  41.4764366  56.7533188  63.7060127  41.4219246
  55.5216026  63.3175392  42.2111969   6.2822671  69.1096191  23.5545063
   6.9455233  69.2104034  22.8717422   6.7807159  68.8935547  24.3426037
  30.0355301  37.0391235  72.6670609  29.6351051  37.8324127  73.0228424
  30.9772606  37.1854553  72.7562943  47.3250160  68.2102356  56.5602036
  48.0288353  67.5812912  56.4011612  46.5213432  67.6980972  56.4704895
  55.4650955  63.6539268  12.8417377  54.6802063  63.1195259  12.7209158
  55.2431793  64.2464752  13.5599794  28.6768780  35.4472809  70.9022522
  29.4433002  35.7834816  71.3667908  28.3978901  36.1729431  70.3438416
  61.5995674  15.5802488  22.4337234  60.7305183  15.7561569  22.7943363
  61.5115433  15.7606945  21.4978161  78.3073196   1.7670380  82.3659592
  77.8511429   0.9340755  82.2463226  79.0016708   1.7566296  81.7071762
  20.0472698  38.8610306  82.1022644  19.4506721  39.2093468  82.7648163
  20.6414833  38.2913818  82.5907822  78.6781616  39.9694519  84.8457565
  77.9345398  40.3522606  84.3802338  79.4440308  40.2471542  84.3432007
  55.0012856   3.4292006  14.3294849  55.4870415   2.8829250  14.9474297
  55.6782722   3.8817680  13.8263903  47.3779411  54.9265442  47.8744659
  47.0238037  55.1516609  47.0141525  48.3176613  55.0914726  47.7972870
  32.0492706  57.8432732  68.2428741  32.9652748  57.8363457  68.5205765
  31.8216743  58.7715836  68.1912003  27.0259228  33.6138344  20.4611740
  27.7034225  33.8934860  21.0768204  26.6444378  34.4300194  20.1378498
   6.0326166  12.8560486  59.1297646   5.1034312  12.6482983  59.0313416
   6.4828620  12.0304680  58.9510841  16.8505745  69.4687805  55.1173859
  16.1889591  70.1579132  55.1773834  17.1575394  69.3525314  56.0165482
  80.3416901  70.7784653  20.0209255  81.1692810  70.4514771  19.6682072
  80.1641312  70.2165527  20.7752132  27.2343197  13.8838396  24.2676449
  26.5548096  13.5435953  24.8496532  28.0106182  13.9569798  24.8228397
   8.3256493  15.4228802  53.8812103   8.3032389  14.7045135  53.2490082
   7.4063711  15.6549702  54.0127144  65.7028275  22.9125786   7.9231386
  65.6355972  23.6085892   7.2694716  64.8025360  22.6115341   8.0459204
  10.8349171  70.0458298  75.1923676  11.1420403  70.8515396  74.7767487
  10.7581348  70.2690659  76.1200027  59.9907112  44.5333290  62.0966911
  60.8010292  44.0440254  61.9545746  59.8804665  44.5431442  63.0474701
  53.1670609  65.4272614  29.5425262  53.6476173  65.5920563  28.7312679
  53.6626854  65.8960648  30.2139473  66.5469742   5.9830451  70.8780136
  66.7853012   6.0347381  69.9524002  66.0710144   6.7958269  71.0485382
  11.7451372  53.6072693  11.2500048  10.9036989  53.1886368  11.4315491
  11.9172659  53.4096985  10.3293705  42.5173264  15.7341356  53.3633347
  42.1397133  15.3239460  54.1413994  43.4322243  15.8923054  53.5960846
  25.4183884   3.3854589  32.8060875  26.3699360   3.2861211  32.8364372
  25.1264057   2.7095790  32.1944008  47.0621948  15.1007681  60.9545593
  47.1499405  14.4886990  61.6852455  46.1626396  15.4217730  61.0177193
  56.1763229  46.2787285  39.1413460  55.8109398  46.0555725  38.2852325
  55.8344612  47.1532936  39.3270798  51.3603249  41.3364754  82.1685104
  50.4137344  41.2055817  82.2238770  51.4672890  42.2851562  82.0992966
  15.1269178  53.2657700  43.2078209  15.0163250  52.5046616  42.6379852
  16.0743656  53.3478966  43.3165779  81.5336761  59.5549622  59.8875847
  82.4494476  59.6533546  59.6269913  81.0727463  60.2427559  59.4072571
  42.6902428  13.0667887  89.2158356  42.3975754  12.9664831  88.3100128
  43.5467567  12.6401052  89.2394409  83.1813736  16.4994297  12.5161562
  82.3230057  16.6574154  12.9091902  83.4470062  17.3515739  12.1704369
  80.7832184  45.0893669  37.3374443  81.1354752  45.0375633  36.4489250
  81.5482254  45.2520943  37.8892746  24.7685032  54.8649673   3.4421706
  24.9836407  55.7970657   3.4759240  24.5345650  54.7061157   2.5276923
  78.3215714  51.9760437   4.3686662  78.3207397  51.1399727   4.8347301
  79.1188049  52.4148903   4.6654224  53.5380211  12.8318329  51.3025932
  52.6306114  13.1213627  51.2076492  54.0015755  13.2560072  50.5804939
  82.7211838  24.6824532  21.9133625  82.5270844  25.5228500  22.3284435
  83.5690994  24.4262791  22.2761955  60.6442184  34.4137688  83.7566376
  61.1168518  35.1433296  84.1573715  60.0639343  34.8267250  83.1171265
  14.2483759  17.0154457   6.6298470  14.4069767  17.9584808   6.5878844
  15.0706692  16.6211033   6.3390546   3.3380990   2.0912323  73.1751785
   2.7324564   2.2941117  72.4622498   3.9314420   1.4368345  72.8064804
  52.2831345  51.3886566  44.3230476  52.4743347  51.4549332  45.2586136
  51.8020668  52.1907578  44.1194916  26.7972679   1.9042648  56.1613235
  26.0744915   1.9415708  56.7877731  26.8904362   2.8043535  55.8492470
  45.9181824  35.6286469  67.6056061  46.4314613  35.8296242  66.8230591
  45.3781166  34.8801193  67.3520966  84.4408340  31.4706135  62.1105652
  83.6670990  30.9162331  62.0093842  84.9994812  30.9926052  62.7234650
  67.4060745  34.8403358  52.9195290  67.1478882  34.2342987  53.6139946
  68.2755890  34.5422173  52.6525116   1.3885208  54.5359802  49.9676094
   1.2340115  55.3221817  49.4439240   0.7077838  54.5585709  50.6401558
  70.4410934   6.0716658  21.9836388  71.1468124   5.5226312  22.3253269
  69.8833008   6.2442961  22.7421246  58.9176216  59.4626122  30.7193203
  57.9804306  59.3222008  30.5844345  58.9810791  59.8216133  31.6043758
  11.8649683  69.4695969   8.8501329  11.0926428  69.4383392   8.2855377
  12.1345263  70.3879623   8.8366079   3.7883625  54.2616844   2.8516786
   3.1508482  54.4419289   3.5425618   3.3534708  54.5404282   2.0458231
  21.8322067   9.1808681   4.8035526  21.0539551   9.2795324   4.2550826
  21.8648262   8.2461338   5.0071206  77.2795258  59.6078606   7.1533751
  76.9089355  59.0021553   7.7952580  78.1154327  59.2126160   6.9058537
  79.8223267  65.8988419  30.5389690  80.5938721  65.7292404  31.0795116
  79.0851669  65.8312454  31.1458149   9.5126476  49.1836395  44.9481087
   9.6696014  50.1258163  44.8856621  10.0927210  48.8000832  44.2903633
   8.4330950  34.7392616  28.9644604   9.0898819  34.6061516  29.6479397
   7.6012573  34.5245323  29.3865604  20.0541878  56.0368042  11.0054226
  19.3032150  55.9189415  11.5871267  20.7349453  56.4095230  11.5656738
   0.3784465  34.9194260  16.3144188   0.5995263  34.3710632  15.5616531
   1.0798739  35.5697136  16.3512707  37.7388229  25.4481945  85.4330292
  38.6763611  25.2620182  85.4839401  37.4060516  25.2428055  86.3067017
  55.3995323  66.9054794  54.8093910  55.5919113  67.1539078  53.9052277
  56.2515793  66.9102097  55.2455406   6.7955804   1.1741836  22.6258392
   5.8513660   1.1172786  22.7723083   6.9135089   0.9030058  21.7154617
  13.7580080  20.6873684  80.3306427  14.0649424  20.7375011  81.2359085
  13.1740103  21.4395580  80.2337341  28.8797894  64.3272629  16.2682266
  29.1744576  63.4254608  16.1411495  29.3812103  64.8352051  15.6304140
  30.4907303  51.6252518  60.7010002  30.2271252  50.7051811  60.6862488
  30.8083191  51.7691460  61.5924377  64.1970367  12.1578617   1.8274119
  63.6967812  12.0264788   2.6328387  64.5189667  13.0571690   1.8894136
  15.1639967  20.1471672  61.4676933  15.9215813  19.9894180  60.9043007
  15.5050316  20.6843395  62.1827965  47.8187065  18.1474571  12.3211412
  47.2936440  17.9256172  11.5521650  48.6930084  17.8147812  12.1182690
  74.2762604   0.6466701  71.6887970  73.6407013   0.0221523  72.0384750
  74.1657257   1.4288939  72.2292938  53.9313278  66.0042267  41.3916054
  54.1049538  66.7421036  40.8071136  54.6084023  65.3630447  41.1755333
  36.8862801   7.4207339  78.7290726  37.7999649   7.1542091  78.8309326
  36.3814621   6.6679358  79.0367889  76.6649170  32.1687012  65.2917480
  77.3332977  31.6861401  64.8053055  76.8102951  31.9239311  66.2056274
  14.1959219   6.3991323  68.8136368  13.2787619   6.2160306  69.0174179
  14.4508753   5.7018132  68.2095108  24.3128567  62.9839172  74.2920303
  24.3625259  62.0937195  73.9437256  25.2218304  63.2829895  74.3155060
  21.6952858  27.2054996  20.7012482  21.0833759  26.7713089  21.2956200
  22.1906185  26.4899101  20.3027382  52.0377617  46.7527847   5.8166966
  52.7301292  46.9363327   6.4516530  51.4131584  47.4692726   5.9295883
  19.2946320  60.7513199  34.4595604  19.3992157  61.6737442  34.6928482
  19.1620693  60.7575493  33.5116043  26.1387119  19.8609447   4.1654572
  25.7775574  18.9846420   4.2992234  25.4705296  20.3203011   3.6567788
  86.9450760  56.1469002   1.6977721  86.2296371  56.7802238   1.7550471
  86.9072113  55.6672897   2.5252824   8.7617798   7.5954795  35.0979195
   8.3735123   7.2192874  34.3080063   8.0596313   7.5650840  35.7477608
  70.5886154  21.5660038  38.2360992  70.8685226  21.4885883  39.1481781
  71.2928162  22.0547371  37.8101082  16.0993538  69.7060013  21.3959522
  16.0217628  70.6599960  21.4059811  15.7006454  69.4419708  20.5667648
  26.6895237  27.4903927  78.5132751  26.4961853  26.7413330  79.0769730
  26.1614170  27.3423996  77.7287827  38.5474892  29.1170387  35.7519188
  38.1347923  28.6913815  36.5034027  37.9867134  29.8700104  35.5653763
  22.0286713  43.9484253  11.4278641  22.6107903  43.5930252  10.7562551
  21.7563648  43.1850739  11.9371519  38.6931572  39.4679375  10.1077290
  38.2526817  38.6182213  10.1215611  38.5189896  39.8137817   9.2323494
  82.8875122  35.1767197  73.4441452  82.6747055  34.2654724  73.2427216
  83.8314590  35.2400398  73.2985764  67.7756119  37.6788445  87.5591583
  67.4345932  36.8112259  87.7763519  67.7816849  37.7011528  86.6022415
  27.0204620  64.1161270   5.2624583  26.2004299  63.7187157   4.9694657
  27.1892147  63.7159271   6.1154504  34.0168228  22.2682247   9.0366745
  34.6160431  22.3015690   8.2909822  33.5296097  21.4531593   8.9161606
  74.8290482   1.5967005  40.6452560  75.2121582   2.0566688  39.8983383
  73.8932190   1.5573946  40.4479942  81.3442307  11.4692707  37.5555954
  80.6152191  11.3739700  36.9426537  81.8028183  10.6300716  37.5146790
  66.2194901  30.4382877   4.6527433  66.9618301  30.0270576   4.2099552
  66.0792847  31.2562580   4.1757755  26.4664345  63.5857468  64.0008316
  27.4233246  63.5615349  64.0035553  26.2346153  63.7908897  63.0950699
  75.7422943  67.8895874  63.7397461  76.3508301  67.3207932  64.2113342
  74.9183655  67.8096237  64.2203445  17.6241550  59.2569084  11.0893049
  17.4455662  58.3472633  10.8507977  18.3194942  59.2005768  11.7447157
  15.2193012  34.9188461  71.3604965  14.3254004  34.8743401  71.6998901
  15.7345476  35.2678070  72.0878067  16.5829163  21.5518551  63.6167183
  16.2877655  22.4115734  63.9167213  16.7704277  21.0687313  64.4214935
  53.2132683  17.8031845  19.6005154  53.6106606  17.9503174  18.7422237
  52.8473625  16.9203110  19.5468636  45.8622665  21.5043621  78.0214767
  46.0479698  20.8252659  78.6699905  45.3347206  22.1485748  78.4936218
  18.1832466  70.3415222  30.1016693  18.7298355  71.0729141  29.8143711
  17.2871342  70.6710587  30.0337029  61.9406929  26.1316605  86.9206848
  61.9970245  25.7397423  86.0492172  62.0197182  25.3910599  87.5219345
  37.7495995  61.3730202  85.4224472  38.6203766  61.1910858  85.7758255
  37.8201485  61.1623688  84.4913788  57.8279495   8.4338150  35.1456642
  57.6457977   9.3411694  34.9012070  58.7800484   8.3969479  35.2372131
  43.2879181  43.5679741  68.6506500  43.8089409  43.3579750  67.8756256
  43.8143845  44.2104912  69.1262894   4.4270573  56.0758781  88.1592026
   3.8853168  56.1579742  88.9440689   4.3372192  56.9199448  87.7168045
   1.7727087  42.5656700  78.4557800   2.3374312  43.3312416  78.3498306
   1.5835680  42.5355186  79.3936234  80.7992020  21.8915291  45.6555595
  81.4265900  21.3082581  45.2284698  81.2310181  22.7457790  45.6600609
  15.2791643  48.7318916  17.8569679  14.4330034  48.2985649  17.9686394
  15.8965130  48.0163193  17.7050858  43.2963028  14.1385717  83.3634186
  43.9385071  13.5957661  82.9060669  43.7728767  14.4918251  84.1146317
   5.9861736  37.3211441  24.2043915   5.7169323  37.6852989  25.0476799
   5.2491517  36.7736816  23.9336205  79.8959351  27.7756710  19.2949791
  78.9806213  28.0036240  19.4576874  80.1358871  28.2856560  18.5213051
  75.7939835  11.8701468  82.3307953  76.7492752  11.8610191  82.3904800
  75.5192719  12.5128765  82.9847565  23.9326077  69.9434128   6.7767978
  23.3291454  70.4355240   6.2201195  24.1389217  70.5423126   7.4944201
  22.9053345  56.3548813  56.7595444  23.0819492  57.2903214  56.6595879
  22.5464916  56.0871468  55.9135056  66.9430313  22.3962059  22.8732471
  67.7393951  21.9879436  23.2128944  67.2576981  23.1093292  22.3176594
  26.0851269  59.0010376  75.4200439  26.5805054  58.2059021  75.2236023
  25.3725014  59.0032768  74.7809906   2.8365526  15.0096540  38.4584007
   3.6543620  15.0274000  37.9613037   3.1024046  14.7798786  39.3487701
  53.6404228  70.9525299  35.5196152  53.6947441  70.9689331  36.4751320
  54.1940956  71.6799088  35.2357216   4.9500394  56.2190247  73.4908600
   5.2422247  56.5319824  74.3469620   4.1117239  55.7913017  73.6655350
   7.9210124  32.0814362   6.5958242   8.1239204  33.0167465   6.5798841
   6.9682040  32.0416183   6.5133462  14.2351103  67.5680466  43.2821465
  14.4749203  67.0142670  44.0251541  15.0523052  67.9982681  43.0304832
  61.8708076  66.6309662  76.3800430  62.1770210  66.1402817  77.1427307
  61.2332344  66.0516739  75.9627304  19.0626335  27.9705334  56.5024033
  19.3807526  28.4106941  55.7141838  18.1787090  27.6818485  56.2753105
  11.9887629  47.8530121  38.6331329  12.6633778  47.8423271  39.3121109
  12.2133179  48.6043243  38.0841904  32.2046852  35.2528038  75.3331833
  31.4577618  35.4477654  75.8991623  32.8796463  34.9298210  75.9301224
  70.7266006  63.6546211  59.0200157  70.8928680  62.7920723  59.4002724
  71.4407501  63.7828522  58.3956947  12.3122721  19.4231930  55.9083900
  13.0613546  19.7971668  56.3723412  12.4898872  18.4828968  55.8854103
  18.7885475  33.6459084  29.4608421  18.8322887  34.1370125  28.6403923
  18.1697941  32.9375038  29.2832546  39.0166702  67.8671646  30.5778179
  39.7827950  68.3832703  30.8286667  39.3486404  66.9738922  30.4878349
   1.2388586  33.4756050  24.0180244   0.5484189  32.8667793  24.2804298
   1.8800929  32.9291496  23.5636730  29.1171646  53.5130386  81.4489822
  29.7061520  53.4505424  80.6970367  28.3662109  52.9693565  81.2108459
  79.6624451  70.0090714  41.8855553  79.8261948  70.1087418  42.8233604
  78.7490463  69.7281647  41.8304329  76.3073730   0.3303762  84.7244873
  75.7631760   0.0510274  83.9882507  76.1352768  -0.3166362  85.4085846
  82.6077271   0.2750995  11.0952597  82.4613953   0.2094175  10.1515951
  81.9976044   0.9530827  11.3856316  63.0470848  26.4796886  73.7023239
  63.9598846  26.3067226  73.4718704  62.6187057  26.6595020  72.8654327
  15.6466360  71.4095001  32.4887924  15.9529037  71.7596970  31.6522560
  14.7461004  71.1338043  32.3177414  51.5614929  33.6238289   5.2978697
  51.0242996  34.4143372   5.2454562  50.9389191  32.9039650   5.1957445
  57.1931801  14.8984776  74.1634827  58.0601845  14.4951296  74.1205597
  56.8414001  14.6207161  75.0092545  61.8721809  63.7975464  68.5239868
  62.6028252  63.3739891  68.0734406  62.1393127  64.7131119  68.6053314
  80.2183990  61.7490273  25.4598618  80.5909576  62.1949120  26.2205334
  80.5377884  62.2492218  24.7088413  68.7516022   4.7424760  66.4113998
  69.5128250   4.1935096  66.5995560  68.6498032   4.6931672  65.4609070
  17.8232899  21.8954182  30.0176773  18.3408947  21.1742630  29.6595573
  18.4676685  22.5710773  30.2286129  60.1504288  47.8306961  29.3606548
  60.8569603  48.4740562  29.3046513  60.0660248  47.4895363  28.4703083
  11.4029131   4.5505586   9.4466782  11.3247528   5.0850153  10.2369175
  10.5064278   4.4731350   9.1202574  60.0548935  15.0360394  65.7048187
  59.1706543  14.6695042  65.7049713  59.9363289  15.9474449  65.4374008
  70.2826538  67.6872253  31.2142944  70.8179321  67.7132416  32.0074081
  70.8611221  67.3181229  30.5469303  14.5051260  27.6105385  11.6730413
  15.0566559  27.1206112  11.0631084  14.5702486  27.1267471  12.4964104
  43.1466980  38.3366127  80.4701538  42.3202248  38.6926613  80.1439590
  43.5056648  39.0314980  81.0219727   2.5286145  32.0700607  79.4012909
   3.0679193  31.5715561  78.7873840   2.4483099  32.9358826  79.0011215
  13.4677801  51.1302185  82.5540695  12.6549578  51.0168724  83.0467148
  13.4416437  50.4436455  81.8876114   3.3476689  58.3615417  57.2344589
   3.8500926  58.2653503  58.0434990   3.3824964  59.2983093  57.0408363
  69.4811859  22.4334831  14.6818256  70.2718124  21.9401245  14.9003077
  68.9717102  22.4405708  15.4921446  79.7091217  10.0493269  81.5963364
  78.8991318  10.0714550  81.0867767  80.2772675   9.4462976  81.1169586
  42.0704193  48.4614296  30.6007557  43.0002899  48.2430267  30.6629810
  41.9600601  49.2087555  31.1885967  69.7271881  41.2521248  63.3150940
  70.4740067  41.2172241  63.9128151  70.1145401  41.4293251  62.4578972
  67.9406586  63.5320358  63.9757462  68.4790497  64.3198776  64.0510483
  68.4443893  62.9513054  63.4054451  85.1025848  14.8875036  39.4973335
  85.3965225  14.1470957  38.9666481  84.2945175  14.5812731  39.9090157
  82.3296051  68.5531921  16.1313152  81.8266754  67.9535828  15.5801687
  81.9307785  69.4099426  15.9791365  54.5244980  54.9184074  25.6633930
  54.7410622  54.1825676  25.0907898  54.7426376  55.6950798  25.1481934
  73.3415756  26.3112183  65.2000427  72.7986221  26.2343330  64.4154968
  73.7178802  27.1896706  65.1457520  61.7941437   9.5964413  16.9688473
  62.1098442  10.4150095  16.5860806  62.5548897   9.2360153  17.4244690
  52.5929565  37.9009819  23.8115978  53.3994446  38.4099312  23.8939419
  51.8940392  38.5546761  23.8323746   4.4990344  56.1360588  22.8098164
   5.4106364  56.0407104  23.0857182   4.2848105  57.0489349  23.0021629
  52.2750015  54.6197777  38.0869789  51.7249794  55.3203735  37.7364502
  52.5376205  54.1139488  37.3179512   2.1781368  62.3348083  67.9105453
   2.7416024  61.5847282  68.1005936   1.4258455  62.2225685  68.4916534
  21.1469994   8.8041458  83.5139389  21.3495541   7.8756638  83.3993759
  21.2895069   8.9671116  84.4463348  24.3540630  61.0017586  49.6817818
  25.0360832  61.6726379  49.7133942  23.6072121  61.3981361  50.1304817
  16.7489223  48.6820374   7.2154675  16.6394539  49.3479347   7.8943124
  17.6946011  48.5418777   7.1677299  29.6349754  11.6175156   8.0792751
  29.6968765  11.8531532   7.1535997  30.4479485  11.9444466   8.4645319
  76.4466400  11.5958433  11.6948833  75.5078888  11.7539473  11.5949640
  76.6825638  11.0655499  10.9337263   3.8137348  37.3663139  20.1662235
   3.1271465  37.7401543  20.7185574   4.2509785  36.7262993  20.7278576
  58.1651268  16.6137638  48.2648392  57.2956352  16.8963528  47.9813652
  58.5326462  17.3782387  48.7083931  25.0166492   1.8540859   7.8591485
  25.8520069   1.5670168   8.2279320  24.3553715   1.4064403   8.3869324
  21.2304592  40.0241508   0.4482816  21.1689777  39.3714218   1.1457022
  20.3836842  40.4702492   0.4624227  31.7133713  14.3228731  34.1027985
  31.1470413  14.9401760  33.6397247  32.4449692  14.1734104  33.5039177
  23.8769302   5.5371051  59.0670280  23.1308937   5.0663528  58.6954727
  23.9287052   5.2281661  59.9715233  33.1734543  46.3150330  19.7612743
  32.3519707  46.7286987  19.4961681  33.7860756  46.5258293  19.0566521
  53.0087891  61.4297752  75.1396713  53.0581284  60.5409012  75.4913788
  52.1108475  61.7087517  75.3188400   8.8659878  39.6025391  18.7996712
   8.4099112  40.4034843  19.0579605   8.9390411  39.0968704  19.6091118
  34.4056282  67.7451630  57.4471054  34.7693214  67.6588364  56.5659065
  35.0599213  68.2523346  57.9276314  66.5347061  36.9594078  66.8158722
  67.2278900  36.3033257  66.7432175  66.0386200  36.8748779  66.0016251
  23.7411385  67.7815094  82.5890350  24.1876202  67.4333496  81.8172379
  24.3183594  68.4758301  82.9067917  29.6279278  67.5326080   1.8257349
  29.3742962  67.1035843   2.6429501  29.5323162  66.8528366   1.1586525
  15.3687801  13.5291338  54.1873741  14.6125698  13.3553228  54.7478790
  15.0855875  14.2447062  53.6181717  59.9468117  59.9159584  48.9500923
  59.5927773  59.5629692  49.7663574  59.6425209  60.8232727  48.9296074
  10.2226038  55.7560501  66.6134567  10.4341526  55.9494667  67.5267258
  10.0679731  54.8115425  66.5982742  81.8850327  21.4533100   2.9313266
  81.3360443  21.2978306   3.6998801  82.6270981  20.8590622   3.0428720
  12.6453295  65.8567734  11.4865541  12.0193033  66.5310593  11.2226229
  12.8814688  65.4164352  10.6701164  50.4625969  68.0495682   4.7672396
  49.9737015  67.6307144   4.0588794  50.3733292  68.9874420   4.5979362
  52.1810799  16.6554585   1.3230960  51.5358505  16.1226196   0.8583408
  51.6614494  17.3184910   1.7776350  86.4385605  11.2054262   9.1107569
  86.8061905  11.4209776   8.2536612  86.1826172  12.0502357   9.4809237
  17.7003613  10.9379597  74.9320755  17.6190910  10.6287899  75.8343201
  18.6317234  10.8471031  74.7307358  34.3482780   3.0283108  16.9383583
  34.1492882   2.6060784  16.1026821  35.2274513   3.3883343  16.8214474
  77.3181381   7.1188936  68.2461319  77.7787781   7.7270336  68.8242416
  78.0021591   6.5345116  67.9192657  16.9782124  27.1211281  69.7627411
  16.0370121  27.0610218  69.5991440  17.0569096  27.7494659  70.4805298
  65.8929443  42.9020233  19.7560081  65.8377991  42.3065720  20.5034218
  66.7252579  42.6836662  19.3367157  76.3969193  30.9749374  29.6189327
  75.7272797  31.4119759  29.0928097  77.1336288  31.5860538  29.6246548
   7.6250334  69.3995972  33.9000854   6.9464760  69.1740723  34.5364265
   7.1463013  69.7829361  33.1651726  41.7403870  10.7804708  56.1069908
  42.3677025  10.2444811  55.6217880  42.1628189  10.9382906  56.9513130
  19.7057819  27.5591488  85.0729218  18.9880733  28.0026112  84.6207352
  19.6186390  26.6407623  84.8175735  16.3608799   8.0897379  75.1204453
  16.9017944   8.8210602  74.8224335  16.7192802   7.8605819  75.9779282
   4.4390574  43.3404350  20.7320824   3.5711749  43.1240883  20.3911915
   4.4358468  43.0021210  21.6274967  66.7832870  41.7735672  22.5630283
  66.8567886  41.1647339  23.2979774  66.0752716  42.3670349  22.8135262
  64.2732544   1.7201958  73.1734390  64.8670807   2.4133370  72.8850784
  63.9220314   1.3528877  72.3622894  35.0744896  66.5474548  18.1020622
  34.7213211  66.1736221  18.9093723  35.9151840  66.9250412  18.3607025
   0.7937812  26.7366943   6.8288369  -0.0017639  27.2683716   6.8031688
   1.4028363  27.1886234   6.2448468  29.2128239  55.6443901  21.9926529
  30.0456276  55.2550316  21.7260571  28.6533089  54.8955154  22.1984806
  71.4946594  13.8193903  24.2892570  71.8943939  13.2150679  23.6637630
  70.7722473  14.2207794  23.8063145  23.0919514  25.6104946  10.1111860
  23.0769539  25.2788448   9.2134018  22.5253220  26.3817024  10.0911217
  17.6364994  52.4682159  66.1521683  17.9146461  51.6334076  65.7753830
  17.0379848  52.2246933  66.8583603  19.5037003   0.3230332  27.7941551
  20.0794735  -0.4405647  27.8345966  19.9087677   0.9598824  28.3828602
  11.5498676  70.0344543  84.1543121  12.2814589  69.8073654  83.5803528
  10.8963909  69.3546600  83.9897766  24.5052376   6.3696852  29.5554085
  24.9835224   5.8459635  30.1982079  23.8251839   6.8110085  30.0643215
  43.0592194  57.1287537  45.7861633  43.4532394  56.4419899  45.2482605
  42.3670616  57.4960594  45.2364044   4.4814610  44.1184921  58.4227829
   4.3595033  44.8396721  59.0402412   4.5433912  44.5434761  57.5673409
  67.2064209  46.5798111  14.0336561  67.6290359  46.1240349  14.7615995
  66.8530045  47.3790207  14.4242878  36.8615570  40.9594040  86.4004898
  36.5797157  41.4110756  85.6050110  36.2840424  41.2971344  87.0850677
  28.8770428  52.7986259  67.9443588  29.0209618  53.2998962  68.7470093
  27.9351883  52.6282272  67.9340286   4.8651147  24.6850319   9.4088821
   4.8077140  23.8239269   8.9948330   4.1853380  25.2035522   8.9784498
  62.3401489  26.8260345  29.1505909  63.1422768  27.3153400  28.9678211
  62.4276466  26.0225220  28.6378098  82.2743759  68.5849533  41.5874710
  81.4766769  69.0583038  41.3511429  82.2697144  68.5706100  42.5445518
  59.8873558  55.3747292  40.1688118  60.2942505  55.1765480  41.0122528
  60.2408371  56.2309608  39.9276581  55.5969810  29.2424984  54.5690842
  56.4244156  29.1469460  55.0407372  55.0132027  28.6033611  54.9776649
  84.2714233   2.2395353  79.9048996  83.3760681   2.3160257  80.2346115
  84.8231583   2.4227383  80.6653290  81.5777969  71.2931519  16.2341290
  81.0800095  71.3301697  15.4173870  81.0071793  71.7074966  16.8813896
  57.8960495  38.7999611  74.7175903  57.1494255  38.8055229  75.3165436
  58.6435699  39.0417328  75.2643890  72.5689926   0.5700825  28.4509087
  72.4373550   1.0132737  27.6127644  72.2869720   1.2082785  29.1061993
  53.4220963  43.1367683  28.2583542  52.8740425  43.5908585  27.6182976
  53.7140999  43.8257065  28.8552856  78.1689224  24.6402130  11.2632408
  78.7145157  25.4030857  11.0719719  78.5239792  24.2906761  12.0805473
  85.3381805  34.8635826  29.1560802  86.0802155  35.4601288  29.0573654
  85.5999069  34.0750504  28.6807423  11.6988144   7.8333960  64.6432343
  11.3419266   7.0950279  65.1368713  12.2305326   8.3120394  65.2791672
  77.0159225   7.4598951   9.4561930  76.2512436   6.9391570   9.2105780
  76.6908646   8.3593912   9.4945755  26.2811069  60.7461624  33.6888618
  26.4299355  61.2798500  32.9083099  26.9141712  60.0320168  33.6150055
  13.6823626  64.2574158  30.8207417  13.1499443  64.3218307  30.0278912
  13.3582230  63.4733162  31.2638607  55.5985718  50.8895264  82.5661163
  55.5615501  51.0608139  81.6250916  54.7197914  51.0990601  82.8824615
  10.5509672  32.4030762  87.9947968   9.7651386  31.9653835  88.3220978
  10.4582100  33.3104706  88.2850800  32.0481529  14.7435074  28.7605228
  32.0291290  15.6777287  28.9681320  31.4711838  14.3419752  29.4102211
  56.4872742  26.3121948   1.0666970  55.8395615  25.6098499   1.1250919
  57.3113441  25.9002361   1.3263745  20.6893444  67.0498352   3.5625362
  20.4755821  67.4429703   2.7163815  20.0442886  67.4169235   4.1669998
  11.7550888  49.4447250  70.9710541  12.0186357  50.3573265  71.0890884
  11.7242641  49.3251762  70.0218506  56.1216011  23.2173367  13.9319057
  56.5605736  22.3731060  14.0358858  55.2048073  23.0378895  14.1405230
  32.3192978   7.7895527  55.8823357  31.8364201   7.1870861  56.4481049
  32.9771538   8.1818943  56.4563789  32.9877052  25.2874985  42.3806305
  32.2467308  24.7675457  42.0694389  33.6916046  25.0962753  41.7607994
  21.4695530  25.0377254  71.1796722  21.9211788  24.6155357  70.4489059
  22.1250286  25.0763817  71.8761597   1.0018945  62.7200317  49.9363060
   0.2176512  62.5305862  50.4513817   1.7073692  62.2679329  50.3990631
  67.7576065  25.6785316  18.7447147  67.9071274  25.7485752  17.8018627
  66.9904861  25.1115646  18.8240986  35.5757828  16.2574635   9.5238514
  35.4788666  15.5032110   8.9425240  35.3482285  17.0107250   8.9788303
  14.1945305  56.2692833  74.3691406  13.3207703  56.6520386  74.2899475
  14.7882280  57.0195465  74.3398438  55.6843796  56.2189331  54.1771202
  55.4817886  56.3157539  55.1076088  54.8426666  56.3323669  53.7356644
  78.9439774  66.5163651  66.7793579  79.1537476  67.3570023  67.1862411
  79.7649307  66.2338791  66.3762817  16.3640041  66.2454453  61.5205421
  16.4786148  65.9308090  62.4172592  16.1752682  65.4566269  61.0122261
   2.0954082  47.2187309  11.6185112   3.0107698  46.9763870  11.4784613
   1.9265261  47.9018478  10.9696198  61.2623177  37.8033142  23.3616505
  62.1246223  37.7126236  23.7671604  60.6869545  37.2575874  23.8977261
  18.2120647  31.3601742  11.8573923  17.5337276  32.0031128  12.0640802
  17.8793602  30.5373383  12.2158356  10.9796038  44.2219124  57.6021996
  10.1654015  43.8461914  57.9370766  11.2245541  44.8805580  58.2521362
  73.5651398  53.1640816  73.5303345  73.3817673  54.0543633  73.2303238
  73.6457825  53.2434692  74.4808197   4.7415695   1.1879095  62.5755577
   5.3991790   1.4880708  63.2029991   5.1370006   1.3486900  61.7188110
  12.0711269  43.2043610   0.8396459  12.2296524  43.8905296   1.4879327
  12.4949732  42.4275551   1.2045574  42.8687134  70.0171585  36.9706230
  43.1331863  70.5775146  37.7001991  41.9757462  69.7483902  37.1865158
  39.9334717  60.2398033  70.4367599  40.7322311  59.8900986  70.8316269
  39.2790833  59.5546646  70.5731125  47.6535149  56.8026695  85.1844101
  48.0030861  57.5352020  84.6770401  47.7569084  56.0432167  84.6110306
  11.9813471  54.2489853  29.8488922  11.0597467  54.2195473  30.1058311
  12.3978796  53.5642357  30.3722000  53.2443962  66.0737076  65.8526459
  53.7486382  66.8865967  65.8183136  52.4649353  66.2529755  65.3267746
  44.8092079  52.3427811  46.1280708  44.5648575  52.0626831  47.0101509
  45.5045128  51.7381706  45.8687820  49.9886971  32.8103981   2.1968725
  49.3853226  32.1564636   1.8439687  50.4993439  32.3358345   2.8528123
  12.5265903  45.4239883  30.9837589  13.3399067  44.9509010  31.1596508
  11.9799871  44.7941856  30.5138607  34.0269852  61.9396477  56.5892715
  33.8847160  62.3590355  55.7406807  34.9783859  61.9271049  56.6937370
  85.4105301  23.7857838  27.0569839  84.7122803  23.8595142  26.4064121
  86.0893784  24.3861351  26.7488174  23.6800213  63.1624908  39.1803703
  22.9970989  63.6565094  38.7267265  23.4649582  63.2535324  40.1086464
   9.4005108  16.2551365  71.3287048   9.7022438  15.3957214  71.0344391
   9.3904648  16.7901287  70.5350342  59.3429222  58.8889771  51.4873428
  58.5945892  58.5152702  51.9527130  59.8350945  59.3569183  52.1619034
  16.9627094  38.7260590  15.1506147  17.4545212  39.4622688  14.7868214
  16.2317181  38.6036606  14.5448904  54.6444206  52.1681709  80.1187134
  54.9943161  51.4387169  79.6071472  53.8274002  52.4001617  79.6772537
  28.0095444  -0.0551968  24.7507286  28.5764694  -0.1378045  23.9839134
  28.2455482   0.7899623  25.1331425  15.6224594  61.1432228  44.1534119
  15.0957155  61.5560608  43.4690628  15.0189686  60.5423698  44.5904579
  57.2927208  44.0662384  29.3994179  57.9125481  43.3598366  29.2176495
  57.8362503  44.7841759  29.7240276  75.9135971  24.4427528  85.7085876
  75.1045761  24.9539509  85.7282562  75.6951523  23.6309414  86.1662674
  66.6892014  13.7258024  80.8420715  66.6262512  14.6081009  80.4762573
  65.8196564  13.3485765  80.7086029  81.4555817  28.5870972  10.1089220
  80.8147125  28.7660065   9.4208040  82.2713242  28.4166107   9.6380348
  84.5784225  30.2465916  55.8724480  83.9683990  29.8875923  56.5168228
  85.4326019  29.9025040  56.1336060  29.4293404   9.2130756  49.5498657
  29.7092152   8.8581009  50.3936043  29.0680599   8.4605818  49.0813980
   6.6504593  63.6128922  45.3451576   6.5481877  63.7510605  44.4035225
   5.9643917  64.1496735  45.7419052  74.9375763  52.2505417  45.1431313
  74.4123001  51.7048264  45.7283707  74.5557022  52.1092148  44.2768593
  60.3971214  52.6935120  20.0026188  60.7693634  51.8121605  19.9728355
  59.4917259  52.5617294  20.2839108  81.7799377  21.2686253  87.6189194
  81.7317810  21.3617268  86.6674805  81.9459686  20.3365936  87.7602768
  15.7757549  58.7919998  83.6669998  16.3798180  59.0137711  84.3756256
  15.9953289  59.4042130  82.9647064  85.6420441  69.0220795  40.8681030
  84.9594879  69.6645355  41.0620193  85.4915085  68.3156967  41.4962654
  41.1486359   3.9271882  87.7908325  41.8062897   3.7820568  87.1106339
  41.4749184   4.6808372  88.2825470  41.6156387   1.0217612  70.5759811
  42.2955742   0.6430776  70.0187378  40.8052635   0.9000558  70.0812988
  20.4176044  65.3592224  50.8375969  19.7631130  65.9972992  50.5534706
  19.9382610  64.7656326  51.4156265   1.1841071  37.1478310  86.5183640
   0.3944371  36.9948387  85.9994736   0.8580613  37.4218864  87.3755798
  60.1600609   6.1518397  53.0510139  60.1129303   6.8559632  52.4043121
  61.0705261   6.1584625  53.3463821  54.1776886  10.1547184  51.5356102
  54.0704155  11.0980797  51.6572380  53.3709297   9.8757944  51.1025124
   5.9064903  69.1370087  36.0241966   5.8456235  68.2414856  36.3567123
   5.7196465  69.6879501  36.7843170  81.3542786   7.2885656  53.5082779
  80.9705811   7.8691354  52.8510475  82.0355988   6.8097062  53.0363388
  31.0271473  70.8592072  85.0339890  30.4485397  70.3338013  84.4813614
  30.4718266  71.5698776  85.3546143  49.7221260  15.5281134  24.8277798
  49.0993652  16.2037125  24.5595169  50.4072380  15.5550823  24.1598530
  34.9173775  35.9103928  22.3608932  34.4492073  36.6756210  22.0270081
  35.1535301  36.1466637  23.2579098   7.4470978  70.4744949  53.0822525
   7.7517061  69.6024780  52.8312073   7.0701890  70.3547974  53.9539413
  60.3897362  38.2134209  76.1352081  61.0284729  38.4037437  76.8222504
  60.9059639  38.1842308  75.3296738  78.0569229  10.8322010  24.1620522
  77.9518967  11.7469730  24.4235725  77.7360306  10.3305025  24.9114227
  26.1739769  62.5767937  15.6976776  26.8009644  62.4388504  16.4076691
  26.7094765  62.5897293  14.9043903  72.7347107  66.6137695  51.7963333
  72.4591217  66.5119858  50.8853340  73.4851379  67.2065201  51.7547531
  14.6150293  12.3311682  46.4197426  13.9552746  12.9969139  46.2254753
  14.1169567  11.5996323  46.7844467  56.4838982  56.4777107  23.6581459
  56.4284592  56.0200462  22.8192749  57.0136490  55.9025536  24.2102222
  37.8802567  36.6768723  10.6675777  38.7167702  36.2117348  10.6787157
  37.6819496  36.8352242  11.5905247  70.8499832  17.6661510  14.4113321
  70.8626862  17.1966228  13.5772982  71.0411301  18.5745201  14.1777477
  39.3863297  20.4795246  78.9735107  39.5139465  20.7891102  78.0767899
  38.5180435  20.8008480  79.2165375  41.0629425  64.8385544   1.7825452
  40.7200012  65.3277435   1.0346699  40.7862663  65.3442307   2.5467288
  29.1370182   9.5967236  66.7264557  29.5477524  10.4610023  66.7499161
  28.8502026   9.4923887  65.8192215  24.3447342  16.9575634  69.8223801
  24.5780773  16.9310513  70.7503281  24.8960228  17.6492348  69.4564514
  32.3284111  17.7177715  84.1421280  31.8020935  18.4291668  83.7772446
  31.8802547  16.9199276  83.8613586  84.5079651  40.7475433  36.6506844
  85.2972717  40.4064445  37.0712624  84.8302231  41.4045448  36.0336494
  34.7964325  42.7120247  10.5123434  34.9077187  43.0892258   9.6396656
  34.0610275  43.1946106  10.8898630  65.3188171  56.0276985  18.6659107
  64.7484360  55.9631042  17.8999348  65.4190521  56.9684753  18.8112450
  32.4265862   7.6466517  32.8918495  33.0011673   8.0681038  32.2527351
  33.0121384   7.3778591  33.5997429  26.6789246  37.3252487   9.4075928
  26.9527340  37.1568298  10.3091993  27.2762489  36.8011131   8.8740034
  13.3031464  31.6034718  49.1124611  13.2946663  31.3002453  50.0203209
  12.3789082  31.6576614  48.8693962   9.9143238   6.0614901  81.0100632
   9.9147978   5.9607911  81.9619522   9.4435806   6.8805928  80.8561020
  57.9519348  55.5747566  44.4351349  58.5438385  55.1677971  43.8024635
  57.1489716  55.0566940  44.3795166  83.6159210  55.3383102  42.7493858
  83.6766815  54.3835716  42.7175293  82.6965942  55.5262375  42.5603027
  41.6414986   4.8711176  24.4594822  42.2740288   4.7326279  23.7545300
  41.4731865   3.9947932  24.8058319  12.4701099  32.8488350  26.0669136
  12.5805531  33.7947845  26.1629047  13.2939062  32.4781723  26.3834591
  12.8842592  11.4108419  53.3724632  12.2140722  11.1003056  53.9812698
  12.9673233  10.7074766  52.7285614  35.6471443  10.4972706  14.8189011
  34.9639893  10.8221102  14.2323751  35.2730293   9.7065983  15.2076254
  28.7950974  64.7963791  25.0856647  28.5115509  65.6763916  25.3334846
  29.1526375  64.4240570  25.8917522   5.6548686  52.4715385  52.0918694
   4.7675600  52.4882431  51.7332115   6.2154908  52.2966919  51.3359833
  39.4636497  26.7035942  33.0837212  39.4103928  26.3356266  33.9657593
  38.5530777  26.8628120  32.8352432  12.8057098  59.1551857  27.8438187
  12.0974665  59.7645149  28.0519981  12.5445881  58.3334236  28.2594566
  63.8193665   1.2001201  62.7457047  63.5872536   1.3057634  61.8231049
  63.0195465   1.4247820  63.2211494  19.0031338  71.4401169  62.5603218
  18.6588421  71.7216873  63.4079132  18.2529774  71.4916458  61.9680061
  50.6961174   2.9292693  59.8577652  49.8161964   2.9722049  59.4834290
  51.1796494   2.3514886  59.2673454  78.6809616  22.1620941  15.7183084
  77.9068298  22.2920647  16.2660961  78.4014053  21.5319290  15.0542479
  79.8194962  51.9379501  42.9420586  79.3978195  51.2882843  43.5045166
  80.7528000  51.7326050  42.9969711   8.4404058  46.4771118  88.0651016
   7.8248949  46.8949013  87.4627457   8.3101254  46.9342690  88.8959198
  84.6473389  61.1896095  28.7114811  84.6987991  61.3644066  27.7717838
  84.5750504  60.2372131  28.7743340  64.6734161  41.3294029  57.2447739
  65.2691040  40.8802719  56.6450539  64.8020401  42.2594147  57.0583267
  49.7889709  70.4094238   3.5644753  49.1431198  70.2072372   2.8875501
  50.5734444  70.6640015   3.0786533  49.1940346  16.4062042  67.9963684
  49.0952263  15.8102646  68.7388840  48.6207619  17.1441975  68.2036285
  78.6490097  61.0744896   9.0634632  78.1678543  61.8318176   9.3969002
  78.0809326  60.7095795   8.3849649  71.4070129  11.3316021  69.9234467
  72.0776596  10.6971426  70.1762772  71.0670700  11.6645956  70.7539749
  55.0952873  18.9517994  21.7799301  54.7122459  18.6476841  20.9571152
  54.4548035  18.7061520  22.4475155   3.0702233  30.4695721  11.1721716
   2.7814643  30.3632832  12.0785675   3.3232956  29.5885410  10.8965445
  37.9496651  68.8850021  81.4868393  38.9018784  68.9521637  81.4160080
  37.6546516  69.7868576  81.6127243  65.0575638  55.8015900   3.8488104
  65.6218643  55.2487221   3.3083243  65.6581802  56.2402382   4.4513717
  51.2353554  49.9207954  87.6979370  51.7542114  49.4008102  87.0842285
  51.8672867  50.5155945  88.1018066  80.5847015  35.7284279  80.7220535
  79.7550125  35.5335999  80.2862854  81.0522690  36.2922592  80.1058502
   5.2167301  32.2458382   4.7673674   4.6415911  31.6137905   4.3361325
   6.0600429  32.1418877   4.3266292  15.1783724  38.6202164  69.9938049
  14.6331129  39.2844238  69.5721970  14.6186562  37.8451157  70.0403519
  41.9783287   5.6101809  83.7949448  41.0932541   5.9295807  83.6192627
  42.5472603   6.3477426  83.5746002  50.3605957  62.9035301  73.0072556
  49.4126663  62.9228706  72.8757782  50.4761925  62.4727821  73.8542023
  43.4116554   9.7524147  83.3439407  43.6786041  10.5286274  83.8363419
  43.5058746   9.0304585  83.9653320  20.2688828  71.9033127  24.8016262
  20.7720985  71.2610779  24.3010807  20.0651016  71.4591370  25.6246796
  73.5200424  57.4355240  10.5385523  72.7607422  57.5558472   9.9682732
  73.2653198  56.7276306  11.1303606  49.2144012  27.6949291  14.2430182
  49.3413239  28.0054798  13.3465357  49.9327545  28.0898190  14.7372484
  75.0307922  65.2864227  50.8506317  74.9291077  66.1840439  50.5341301
  75.9731750  65.1848297  50.9841232  31.1574707  33.9581490  77.9809875
  32.1045876  33.8930168  77.8586884  30.8374996  33.0651054  77.8532333
  39.7346191  66.7744370  68.9031296  39.0049019  66.2173767  68.6321564
  39.3204308  67.5863800  69.1954193  82.1463394  60.2005959  52.7103691
  81.2081451  60.3442574  52.5863686  82.2162018  59.8146210  53.5835114
  83.5066757  21.1242943   5.7495136  83.3434067  20.1822433   5.7955074
  84.4027481  21.1963062   5.4207330  78.2998962  63.6869850  66.5346375
  78.7055588  63.1525459  67.2173157  78.5933075  64.5785446  66.7224197
  72.2525940  10.9177589  61.8974648  72.0930405  10.5149240  61.0439453
  72.8041916  10.2872515  62.3605309  82.3861923  19.3755093   8.4592295
  83.0069504  19.9911118   8.0694618  81.8560944  19.9112473   9.0493279
  59.8644066  21.1842384  88.2037354  59.2010078  20.5546589  88.4861526
  60.6578484  20.9216309  88.6703415   3.3626502   6.1041422   3.3440547
   3.5997603   6.7327237   2.6622221   4.0103321   5.4043293   3.2603731
  58.0883560   2.2758365  55.6231041  58.1444778   3.2311540  55.6443214
  57.6702156   2.0420115  56.4517860  63.9050331   0.1665872  80.1665573
  64.5780411  -0.0871304  79.5349579  64.3720169   0.2360814  80.9992218
  18.5359764  51.5535774  11.2919741  18.8762321  52.4479446  11.2681532
  17.6915932  51.6303139  11.7362299  59.8003464  54.0171585   8.7428379
  59.4137650  53.8518829   7.8829126  59.8103371  54.9710579   8.8216133
  83.7996902  38.3770142  60.0060425  84.5087433  37.7378235  60.0761452
  83.9296265  38.9617157  60.7526817  59.3410530   6.2128987  66.8847961
  59.9246407   6.8903904  66.5432358  59.9270096   5.5757327  67.2933426
  77.4699707  50.1317368  61.5420189  78.2070618  50.4980469  61.0534134
  76.9476242  50.8932037  61.7941246  54.7855759   4.2220960  67.0321198
  54.6819534   3.9369509  67.9399643  55.7034874   4.0430541  66.8281250
  23.8766041  46.5265656  23.3782139  23.9307003  46.9186707  24.2497406
  24.7317257  46.1171913  23.2462578  12.9671030  63.9405403  82.4686584
  13.8660498  64.2103119  82.2806396  12.4410658  64.7204819  82.2920074
  33.0995255   8.2735758  38.8826180  32.8848305   8.5956802  39.7580566
  33.8815804   8.7651491  38.6316643  83.3078079  25.6807022  64.9407272
  84.0977249  25.3217983  65.3450165  82.9977722  24.9846020  64.3614502
  79.2615738  15.3026972  54.8189697  79.0795822  14.4366465  54.4541855
  79.9602127  15.1523743  55.4557915  75.0392151  27.8038597  12.6041651
  74.1550064  27.4632301  12.4686117  74.9061508  28.7035313  12.9026871
  28.0417805  62.6739006  53.1235161  28.7441044  62.3927307  53.7099571
  28.1996613  63.6087494  52.9917183  57.2633095  52.3941917  31.4980793
  56.7880859  52.0271149  30.7526608  58.0588608  51.8653870  31.5588646
  33.3325691  60.6820793  34.9983292  32.8163338  60.4897575  35.7811127
  33.7441750  61.5260239  35.1842461  29.8439331  16.7883205   2.3979607
  29.2005348  16.7788086   1.6893144  29.3583508  16.4883614   3.1663790
  47.5365753  53.2571754  74.2424774  47.9577866  53.7796326  74.9250107
  48.2631607  52.8955231  73.7350159  29.8196869  52.0051079   7.0828648
  29.4445915  52.6757736   6.5121269  29.0609703  51.5537605   7.4528198
  65.8768463  66.0472717  24.6053085  66.3844528  65.2730255  24.3621769
  66.4636688  66.7830048  24.4304790  12.8866081  36.8649979  79.0434494
  12.2854357  37.5829620  79.2418137  13.4205599  37.1927223  78.3197556
  52.4513702  63.7924957  84.8351135  53.3801155  63.7603683  84.6056900
  52.0433464  64.2737122  84.1152649  55.5003052  29.8922520  70.8369446
  55.8762741  30.7617493  70.9742508  54.5638008  30.0519886  70.7200089
  28.7697392  46.9184761  36.6019135  29.1891232  46.9136734  37.4623337
  28.8208065  46.0097618  36.3054962  73.7392426  15.9180727   3.0481658
  74.1506195  16.0832329   2.1998024  73.5426865  16.7892227   3.3926902
  63.1631355  54.4454308  42.3719978  62.2157021  54.3109360  42.3493462
  63.2880898  55.1657600  42.9898529  67.2193985   9.2262125  48.9890900
  67.4069595  10.1349497  48.7540359  67.0616455   9.2506094  49.9328842
  62.7261047   9.9804173  13.0151291  62.2332726  10.8003006  12.9813566
  62.1557274   9.3775835  13.4920902  62.2322845  32.2916641   8.9866295
  63.0907249  32.5479088   9.3237438  62.3368301  31.3731022   8.7385473
   4.3832378  34.2488670  12.8693590   4.6222086  33.5345764  12.2786722
   4.5882802  35.0445137  12.3782988  84.5181122  69.9671326  43.9913712
  84.9704742  69.4183960  44.6320648  85.1722641  70.6131592  43.7249718
  43.9415474  55.9064255  10.8402042  43.7963791  54.9671402  10.7265987
  44.8321648  55.9711647  11.1849337   8.1114492  59.7778206  58.1762390
   8.2767944  59.2531853  57.3928833   8.9007835  59.6709900  58.7070580
  41.0787544  35.2643433  15.8715553  40.6745567  36.0857353  16.1511478
  41.9423065  35.5204391  15.5476255  16.7012367  71.0838470  18.4404888
  17.3818035  71.7467728  18.5570812  16.2861843  71.3104858  17.6082649
  63.9054680  67.8039322  20.3434410  63.5553627  67.7351837  21.2316589
  64.6254578  67.1736069  20.3203373  21.3799496  53.3470459  56.4733658
  20.7592812  54.0679741  56.5795059  21.1181240  52.7062874  57.1345062
  43.2932663  49.6232796  46.3564186  42.4562454  49.6064339  46.8204727
  43.2021828  50.3359833  45.7239723  85.6355362  31.4418068  74.0775223
  86.2384262  31.9603500  73.5447311  85.6258392  30.5809841  73.6590500
  21.4512043  43.2329445  79.6904984  20.8823376  43.8115234  80.1983032
  21.6375275  42.5023384  80.2801819  35.9763374  61.1170883  14.5348787
  36.3929558  61.6402245  13.8500528  35.0916748  61.4757309  14.6054306
  44.3591995   6.2745385  87.8222809  44.3556366   6.0561295  88.7542267
  43.4559479   6.1318979  87.5393982  59.8695717  22.2319794  33.0428085
  60.3509483  21.6225605  33.6023788  60.4928246  22.4703350  32.3565331
  18.7113552  63.5010567  85.9180908  18.2249413  62.8395805  86.4101105
  18.3143673  64.3325272  86.1774979  48.3944664  58.5283012  46.7831612
  48.9066582  59.3042030  47.0109062  49.0216141  57.8064117  46.8254738
   0.3722441  58.4707603  57.0238075   0.3597454  58.6266899  56.0794754
   1.2824632  58.2467079  57.2175369  38.9068794  22.5830822  15.2055264
  38.2343864  22.1747856  15.7507601  39.4715309  21.8578072  14.9383659
  39.0178146  70.0466385  73.0790710  39.5838928  69.9754486  73.8476562
  38.8723145  70.9869843  72.9750519  55.7982483  30.0069332  86.8351746
  56.0871048  30.7554741  86.3131790  56.5841217  29.4706497  86.9402237
  23.1958332  22.1776085  17.5894356  23.9062309  22.7569370  17.3138542
  22.4090805  22.7199173  17.5332985  43.7006989   8.4325304  41.5925446
  42.9715538   8.4071274  42.2121658  43.6392670   9.2967768  41.1856842
  63.1374588  40.0217934   6.3837547  63.2285309  40.5252571   7.1927438
  63.9649582  39.5476151   6.3023062  78.1128159  16.3353062  22.9394531
  78.5401688  17.1840496  22.8244190  78.6780930  15.8634529  23.5510483
  62.5448151   4.0117946  75.2938156  62.2070274   4.8558016  75.5934601
  61.7688103   3.5329411  75.0027084  57.5983276  67.0392227  80.1084976
  56.9855347  67.6295700  79.6700897  58.4633865  67.3813095  79.8829346
  43.3603935   3.6549096   0.6033946  42.5798645   4.2029748   0.6848054
  43.2413864   2.9694564   1.2608311  66.9950943   6.5086417  59.4393044
  66.2668228   7.1224203  59.5348549  67.4015808   6.7471366  58.6061668
  15.3772402  54.8619995  31.4984989  14.9589243  55.7228546  31.5116005
  16.2600613  55.0195770  31.8332062  38.8170547  43.9567947  13.4577684
  38.7278633  43.7329369  14.3841400  38.8149185  43.1128426  13.0061369
  43.4248810  37.6822395   8.5604115  44.0082016  37.5891457   9.3136072
  43.9396629  37.3654556   7.8181973  63.9670753  62.5957069  46.2524109
  64.2419968  62.1455688  47.0511780  63.3305206  63.2454033  46.5506134
  21.1904583  26.8321972  57.7780647  21.8464031  27.3828793  57.3506088
  20.3814926  27.0058861  57.2967758  71.6572266  37.5998535  15.5034046
  71.8056870  38.5095253  15.2451601  71.5940933  37.1231689  14.6757469
  53.0064812  65.8048935  43.7995644  52.1281509  65.4562683  43.6471596
  53.3987312  65.8553162  42.9278831  12.6087933   4.5790296  21.7898712
  13.5403614   4.3940258  21.6707726  12.5297670   5.5202484  21.6346531
  36.0934181  15.3084021   2.4064512  36.1020508  16.1141739   2.9230623
  35.2153893  14.9500227   2.5363193   0.2194969  59.6343994  54.5133591
  -0.6422855  60.0461121  54.4496727   0.8372384  60.3645325  54.4742165
  60.3705139  38.7328186  86.3667603  60.2706337  39.6767960  86.4898911
  61.2797890  38.5548096  86.6071014  71.7770081  66.0954971  83.3972626
  72.3353195  65.5607452  83.9616623  70.8979950  65.9908295  83.7614212
  19.7697163   5.8523273  24.3588142  19.3256874   6.6261168  24.7056866
  19.7560654   5.2244062  25.0811443  84.0959778  53.6875038  46.5202103
  84.4698715  53.2578735  47.2895279  84.2910538  54.6161346  46.6459961
  50.7773781  26.0545101   2.8014510  50.5718460  25.5091095   3.5607440
  49.9865646  26.0233383   2.2630541  27.0770664  70.4824524  11.8250408
  27.7412586  70.9334183  11.3037825  27.3852997  69.5775986  11.8747892
  86.5862350  58.3900414  16.9681072  86.4264526  58.7496605  16.0955391
  86.1090698  58.9730988  17.5585251  10.6655378  55.9239655  70.6187134
  10.4842720  56.1955833  71.5184860  10.5812988  54.9706116  70.6347351
  75.2263260  45.0619888   1.7216629  75.9288940  44.6069298   2.1859353
  75.5759583  45.9377251   1.5571253  82.4861755   8.4872675  55.7223282
  82.2853699   7.7974081  56.3547859  82.1566849   8.1513138  54.8887787
  54.5810394  46.2032852  65.6624451  55.3480072  45.7895355  65.2664642
  53.8548660  45.6184349  65.4459915  50.1793671   2.5283546  14.8965120
  50.1475716   2.5307970  13.9398432  50.8237991   1.8545109  15.1130171
  66.8412323  54.0872612  52.7577477  66.3337708  53.8668556  51.9766350
  66.1834946  54.2288895  53.4385948  72.7895813  29.0539284  38.8064079
  71.9830246  29.3841419  38.4106178  73.2848282  29.8410511  39.0331268
  68.7585373  47.2890434  62.1259499  68.4596024  46.4563637  62.4913445
  68.9937897  47.0829353  61.2212906  71.8195724  28.0312252  10.4649191
  71.6325989  28.2433033   9.5504274  71.4576569  27.1533985  10.5860386
  62.0418930   1.2539780  78.6023865  62.5864220   0.8277963  79.2642670
  62.4999809   1.0953664  77.7770157  19.9287205   3.8209071  81.6031342
  19.9633656   4.3813400  80.8279266  19.0535698   3.9642608  81.9634018
  23.8648167  39.7334595  76.0117950  23.9933510  40.2932243  75.2460403
  24.6841698  39.2450905  76.0917206  63.3082123  20.1719456   8.7570696
  62.9124908  19.4246426   9.2055941  63.8309669  19.7815437   8.0566778
  66.2977219  67.5592728  78.1173172  66.6218185  68.4584579  78.1689453
  65.8175583  67.5248871  77.2899780  77.4752808  11.2830362  50.3235970
  77.6269226  11.2570515  49.3788414  77.1972427  10.3945360  50.5460739
  61.1934166  40.6338425  69.8223801  61.0056381  39.8271561  70.3022003
  62.1381836  40.6079559  69.6707916  62.7221947  59.0192261  76.0881500
  63.6790276  59.0365982  76.1081696  62.5036583  58.1139526  75.8668976
  55.5711174  16.6086502  15.2898741  56.4919891  16.7377281  15.0627832
  55.2571678  17.4823437  15.5229492   9.4855309  10.0706720  60.5281639
   9.7109098   9.2154999  60.1619415   8.6699047   9.9192886  61.0057297
  28.1866951   8.3704443  20.2082329  27.7763119   8.4592123  19.3480377
  27.5487690   8.7421083  20.8174515   2.3367243  30.4272556  57.5803528
   2.0569770  31.3012314  57.8526382   3.2908092  30.4470940  57.6549187
  19.6168098  62.6766777  74.5507431  19.4471226  62.6525650  75.4924774
  19.6753674  61.7563362  74.2942810  58.8773232  49.2127647  84.5516357
  58.7579041  48.2664032  84.4718399  58.2059135  49.4870720  85.1762924
  38.6711693  17.3661709  73.9818878  38.5090904  17.9332294  74.7358170
  39.2666550  17.8698578  73.4269714  72.0158234  44.3719864  -0.2168629
  71.1659775  44.3431587   0.2226298  72.5255356  45.0051346   0.2886518
  33.0355339  34.9646111  26.8175125  32.3910484  35.5460129  26.4139709
  33.7648582  35.5395966  27.0492573  32.2185783  10.5646334  24.2976189
  31.6677036   9.9694519  24.8060741  31.6074314  11.0223207  23.7203407
  38.9129181  40.3469353  74.9313278  39.6929741  39.8936844  75.2511749
  38.1996155  39.7242813  75.0718231  51.0793648  28.2461433  84.8149338
  51.3198357  27.4791603  84.2951736  51.8454094  28.4131184  85.3640442
  50.9199791  71.0810928  87.5647736  50.3362808  71.8164368  87.3782272
  51.7784233  71.3728790  87.2579117  17.2039661  40.4457664  79.6143036
  18.0954075  40.3357124  79.2834702  17.2916527  41.0675926  80.3367081
   4.0874228  58.4843826  86.9348831   3.1920495  58.2402992  87.1693268
   4.0190969  59.3931694  86.6421967  64.2642517  11.1993713   4.7663679
  64.6415710  10.5600624   5.3706412  63.7631721  11.7919197   5.3267574
  37.4941635  64.8940659  67.6877823  37.6226273  64.1026611  68.2106705
  37.0194283  64.5944443  66.9124832  77.1343918  27.9665012  22.5449505
  76.7512131  28.5706882  23.1808453  77.3508987  27.1865807  23.0559101
  36.3544350  15.6956892  82.4893646  35.9752502  15.2643461  81.7236023
  35.9274559  16.5519066  82.5178833  22.8089676   6.7031469  19.6590977
  22.8965664   7.5869365  20.0161343  22.0776024   6.7644663  19.0446262
  35.6410217   0.8682082  42.8854408  34.7794914   1.1246368  42.5564423
  35.5195694   0.7788578  43.8306885  84.1328506  33.5908775  52.3834991
  84.4085388  32.7594223  52.7693863  84.2286072  33.4605026  51.4400635
   3.0414822  36.8496017  40.4341507   2.8134432  36.3685150  39.6386719
   2.2717199  36.7615967  40.9962463  72.0136185  59.3593140  28.9050426
  72.8340225  59.7952881  28.6746044  71.5993271  59.9470139  29.5368614
  40.4058876  57.3073578  88.7149124  40.3554420  56.3523254  88.7548599
  41.2133446  57.4845810  88.2323837  14.8546696  49.0886688  57.8713570
  14.4057226  48.2718086  57.6536102  14.9150352  49.0815125  58.8266220
  86.1736069  10.0551062  25.8624554  85.8023682   9.2284975  25.5540180
  86.2284698  10.6005945  25.0778122  57.0040627  60.1385956  24.1248665
  57.3928490  60.0384140  24.9937973  56.9689865  61.0849915  23.9858284
  59.2854271  44.6160202   4.6311717  59.1089668  44.9216423   5.5209408
  60.0631638  44.0646858   4.7171254  84.5859680   4.7732940  77.0587006
  84.6111679   5.7124157  76.8752747  84.8560486   4.3615942  76.2378540
   5.6115699  26.9684772  80.3276901   5.3419304  26.3768978  81.0302277
   6.0671329  26.4052944  79.7019730  76.6688080  17.3468399  76.9550323
  77.5664902  17.6602478  77.0653534  76.5470810  16.7146626  77.6633911
  21.9415054  69.2032471  31.1950836  21.5690060  68.8568726  32.0059471
  21.7742100  70.1447525  31.2376709  51.7590408  60.9445190  20.3336391
  51.4133797  60.0774498  20.5456448  51.1154861  61.5538902  20.6952171
   6.0344691  34.4409637  83.9530182   5.2308521  34.4195938  83.4334259
   6.4123611  35.3020782  83.7743759  45.4417000  32.7919464  24.1104603
  44.9933128  33.6301651  23.9983597  45.4256516  32.3934784  23.2402878
   7.4383812  59.4457016  17.1194592   8.2340813  59.4760437  16.5882607
   6.8565388  60.0900192  16.7162895  73.1701813  39.2377853  26.7391567
  73.8522644  39.6588173  26.2159748  73.5906525  38.4553757  27.0959015
   4.1468558   8.7555075  28.0101433   3.7731304   8.1387663  28.6395798
   4.7457652   8.2265015  27.4831772   3.1759493  28.8651390  21.4934711
   3.7997205  28.5616951  22.1530647   2.4162385  29.1557770  21.9980507
  65.1652985  54.3848305  37.9409142  64.9096375  55.1856880  37.4832039
  65.7406921  53.9305115  37.3254890  37.3068810  24.3479080  17.7749119
  37.4038506  23.5745888  18.3306141  37.1153450  23.9957447  16.9057026
  12.5256071   0.4352360   6.1372018  12.8063622   0.3653298   7.0496278
  12.1524973   1.3140088   6.0680714  47.4956398  66.1203690  24.5879765
  48.4228210  66.2166138  24.8054619  47.4937019  65.6979904  23.7290096
  52.0794983  37.0853691   5.1614742  52.6203308  36.4695396   4.6670160
  51.7135391  37.6695061   4.4973307  22.3980083  38.6277809  18.5939541
  22.6286602  38.4822731  19.5114841  21.9858913  39.4916687  18.5846863
   0.1106489  68.7073364  72.9580841   0.5635527  69.4707947  72.5999756
  -0.4552892  68.4088364  72.2461624  45.2891426  49.7497597  68.1604691
  45.9496994  49.1299324  67.8510971  45.4256783  49.7927551  69.1069031
  29.0366020  63.2595825  63.3755989  28.7579060  62.7467537  62.6169357
  29.8352070  63.7008171  63.0861588  65.9199066  40.9556084  76.4010162
  66.8470078  40.9936333  76.1659317  65.4593811  40.9671669  75.5619583
  22.6456585  58.3277855  48.0900230  22.1044846  57.7184334  48.5920715
  22.6267319  59.1390724  48.5976524  85.4600525  22.4399357  68.5631943
  86.3142395  22.5701103  68.1513062  85.2369919  21.5294724  68.3694611
  22.7472057  65.7450790  73.8513489  22.7856712  66.2454987  73.0362854
  23.1332130  64.8974762  73.6304474  57.1576614  66.8949203  65.8512192
  56.5413437  66.8041077  66.5779419  57.0863228  66.0693512  65.3720779
  41.8475838  66.5705795  33.1493759  40.8926544  66.5719604  33.0834885
  42.0921669  65.6490250  33.0648575  60.7075043  35.9443855  49.3602180
  60.1710930  35.2351189  49.0060539  61.5943527  35.7475204  49.0585861
  21.1854763  46.2034073   2.9033689  20.8437424  45.3431778   2.6595335
  20.6898041  46.8196716   2.3641472  45.5267143  20.9836006  11.2179394
  45.5854263  20.1247978  10.7993193  45.7173233  20.8138924  12.1404896
   8.7684393  59.4288483   9.1245089   8.0919867  59.2359848   8.4753180
   9.4627380  58.7956085   8.9423256   4.6832652  51.7834511  87.3943329
   5.0157480  50.9789467  86.9962616   5.3427768  52.0179138  88.0472488
   4.0578861  15.1818457  56.8290405   3.8527434  15.9404469  57.3755493
   3.6714284  14.4399443  57.2942963   0.3401100  62.0662766  40.5292473
  -0.2257902  61.7966347  39.8058662   0.6910346  61.2465210  40.8772163
  22.9903946  62.1327591  64.0497818  23.7847805  61.6144562  64.1784058
  22.6497097  61.8429260  63.2035217  66.0866165  36.9266205   9.9465532
  66.3365936  36.4227104   9.1720743  66.1049805  37.8382607   9.6553450
  16.9982052  70.5939636  83.3626556  17.3949795  69.7689438  83.0831375
  17.7416821  71.1525574  83.5894775  68.8987732  64.1490250   6.1920819
  69.0823212  64.7444077   6.9187655  68.6862106  64.7254181   5.4580379
  43.6085052  48.7704773  37.3205147  43.3015862  48.7395554  38.2266464
  44.4155121  48.2557297  37.3232803  66.7455750  16.7559624  71.1070557
  65.8468933  16.9161091  70.8190308  66.9879303  15.9303102  70.6877747
  23.5188847  56.4133148  27.5069599  22.8153057  55.9570618  27.0453930
  23.3829269  56.1931572  28.4285240  64.2968140  68.4793091  67.9221420
  65.1640625  68.0925903  67.8014297  64.2212906  68.6076202  68.8676910
  17.2818584  69.8269272   0.7441538  17.0461903  70.0226974   1.6509978
  16.7278767  69.0829086   0.5079954  33.2587166  57.8942528  45.8716049
  33.6043739  58.6594048  45.4119339  32.5095634  57.6164131  45.3445320
   9.2294950  19.8201752   2.9937925   8.9887009  18.9053478   3.1398714
   9.2457886  19.9144135   2.0413821  59.8235512  36.4147491  25.0832901
  59.7988853  35.4743004  24.9067059  59.8768921  36.4780693  26.0369034
  63.1761703  35.6029091  33.9937363  63.1257858  34.7548218  34.4346848
  62.4656029  35.5821686  33.3527260  22.8992538  44.7093430  16.7990189
  22.3805466  45.4524193  17.1072617  23.6354809  45.1074181  16.3345413
  74.8188858   0.2965326  57.1810265  74.9413605   1.2240376  56.9786263
  74.3985138   0.2925194  58.0409698   4.3798685  48.8034782  50.6119576
   4.8984218  48.0073624  50.7282982   3.6385934  48.6957054  51.2078857
  48.7583389  29.8520050  17.7293472  49.4405403  29.3241978  18.1443844
  47.9375572  29.4656105  18.0347099  70.0204010  16.2846603  43.9875526
  70.7396393  16.8127308  43.6410408  70.4050293  15.8103008  44.7246246
  59.4329720  31.1560211  35.1732140  59.8844872  30.5408955  34.5952988
  59.8673820  31.0521984  36.0198212   4.5979962  59.9665718  53.2506294
   4.4083123  59.0296822  53.2007408   3.9573264  60.3077583  53.8746223
  28.4358501  61.7821999  56.1916656  28.9092693  61.3228645  55.4980392
  28.6310158  61.2839737  56.9853363  34.9629974  23.2398586  79.6957321
  34.6623688  23.2213783  78.7871552  35.3054314  24.1254826  79.8167496
   2.5297971  37.0431137  52.5700264   3.2732430  37.6172638  52.7540665
   2.2336056  37.3066101  51.6987801  50.8822899  10.1132212  20.6270599
  51.6491661  10.1627855  21.1977406  50.2831154  10.7746725  20.9730434
  50.9185486  38.0814247  82.1033630  51.8479996  38.2570953  81.9567566
  50.7329140  37.3107681  81.5668335   9.5374908  46.2882309  46.5663834
   9.8738070  46.7708588  47.3214912   9.0547705  46.9416313  46.0601425
  81.0774460  43.8260040  10.0995245  80.4811325  43.8173370   9.3508139
  80.6717529  43.2369614  10.7356653  61.0509605  63.4523125  79.3328934
  61.5546646  62.6583023  79.5119476  60.1421127  63.1549377  79.2905197
  27.7771835  63.3937378  28.4989471  26.9006100  63.7737846  28.4404812
  28.3631172  64.1001205  28.2270317  81.4825363  51.0483475  21.6897945
  81.9773788  51.4097061  22.4251728  80.5959320  51.3895645  21.8069763
   8.3761568  64.1544571  80.5156097   8.9549313  63.7316971  81.1500549
   8.7081442  65.0496902  80.4479294  75.9282074  60.3538170  68.4657822
  75.4332657  60.0574226  67.7019653  76.1849213  61.2507210  68.2515488
  84.8010101  58.3234329  67.9562912  84.0339355  58.1763611  67.4029388
  84.4778595  58.2064285  68.8496628  60.8421364  24.1194324  48.0260582
  59.9316139  23.8619499  48.1705818  60.9286919  24.1694088  47.0740929
  86.3111954  24.4634781  52.0880890  86.8780746  24.0250015  51.4535637
  86.2801590  23.8655128  52.8348846  59.8692169  21.2619820  47.3450928
  60.6914711  21.4029293  47.8144112  59.2961807  21.9658241  47.6491814
  84.8907089   8.7071733  45.1221237  84.5562057   8.0134659  45.6905556
  85.8410187   8.5939398  45.1398354   1.3764901  35.5009460  56.5852585
   1.0713403  34.8182220  57.1827545   1.1528443  36.3213425  57.0247536
  30.2581997  49.5112228  55.3225403  31.1973743  49.3629379  55.2121124
  30.1683159  49.8154831  56.2256355   9.8278570  20.4104500  54.4050865
   8.9489174  20.2289772  54.7379036  10.3945560  19.8044395  54.8824081
  83.2762222  58.4077606  18.6697044  84.0226822  58.9807854  18.8448467
  82.5206985  58.9953651  18.6582470  17.5652275  22.1777344  23.4517307
  17.0768471  22.9529610  23.1747093  18.4314003  22.5112724  23.6856728
  77.1499252  68.7806625  69.7213669  76.3356247  68.5984650  69.2523727
  77.3672867  69.6817856  69.4827118  36.5622826  37.2319031  17.3592453
  37.1873322  37.4688148  18.0443859  36.4498863  36.2860794  17.4542236
   5.0572047  33.2453461  28.6724453   4.3184843  32.7912254  28.2671108
   4.8890052  33.1844826  29.6127834   7.2804785  47.8342514  85.9783096
   7.0604067  47.0971184  85.4087143   6.8728080  48.5915909  85.5582199
  37.0463257  18.5120468  42.5346680  37.3179893  19.3440857  42.1471863
  36.7719002  18.7397861  43.4229546  30.0337505  50.2249184  57.9913864
  29.7000904  49.6540604  58.6835022  29.5552464  51.0458870  58.1065941
  34.2657776  12.3328505  12.2984581  34.5411987  11.5234985  11.8679638
  34.9424438  12.9692459  12.0674658  53.6089516  47.0867538  10.7427406
  53.1150169  47.3360558  11.5238342  53.0333443  46.4782600  10.2794476
  81.1131592  28.2862473  74.0005341  81.8006439  27.6362915  74.1459808
  80.3577805  27.7750187  73.7102356  30.0644722  60.7256775  40.4774513
  30.0542774  60.8725624  39.5316429  30.8903179  61.1106415  40.7707329
  79.9358978  32.4572296  36.5360489  80.3744888  32.4315948  35.6856308
  79.8806381  33.3887939  36.7490501  84.1353760  71.3761368  34.9528885
  84.6397705  70.7727127  34.4072762  84.2838287  71.0709076  35.8478928
  75.4620056  48.9925842  33.1161461  75.2826538  48.5697441  33.9559517
  76.4166946  49.0484886  33.0751877  57.7508354   6.4092822  16.5377846
  57.6013489   6.9877558  17.2856178  58.5542526   5.9373264  16.7568855
   8.5931063  24.8358898  36.4269676   8.4419909  24.1643429  37.0921135
   9.5332623  25.0100613  36.4717331  72.0534439  65.5889130   3.8807566
  72.2846832  64.7019882   3.6048505  72.5778580  66.1590424   3.3184614
  15.4020967  53.1147766  63.6732979  15.3337746  52.5379677  64.4341202
  16.2896633  52.9729500  63.3441429  46.6910400  49.0430756  19.0691891
  47.2933197  49.4356918  18.4372520  47.2603645  48.6591911  19.7360764
  11.7671356  10.8172369  85.1512909  12.0656433  11.3320341  84.4015503
  12.3372908  11.0888491  85.8705826  56.1751251  48.2339325  27.9775124
  56.4921379  47.4064140  27.6156445  55.2779465  48.0465660  28.2535572
  79.5440445  34.6349907  10.4179821  79.4557953  33.6923332  10.2771320
  79.0875397  35.0317841   9.6760998  20.1992550  47.3756790   6.7336588
  20.2685089  46.9598579   7.5930367  19.8853836  46.6802254   6.1556759
   3.1644032  35.4369965  26.8837833   4.0321898  35.1569290  27.1748867
   3.1745098  35.3019829  25.9362068  39.1302261  47.4071236  18.6509094
  38.7491798  47.5079765  17.7786331  38.3807602  47.4428406  19.2452660
  74.1830902   2.1892416  82.7485809  73.3662262   1.7160493  82.9068451
  74.3751297   2.6207018  83.5811615  10.3162737  64.2951889  26.2624722
  10.8699188  64.4176025  25.4912891  10.1799927  65.1795959  26.6023045
  43.7458839  65.2274628  72.5430756  43.2886467  66.0628586  72.6393814
  43.4453392  64.8856049  71.7010345  75.4061127  42.2945633  61.2344246
  75.2370682  41.3691483  61.4112549  75.7735138  42.3063087  60.3506203
  84.1384811  70.2192383  79.6828537  84.3373108  70.4880905  80.5797501
  83.4730835  69.5378876  79.7789917   4.2767744  51.2539597  33.4572182
   4.0646358  52.0834007  33.0291367   3.4615486  50.9888382  33.8830681
   3.9799545  43.7247314  73.0462112   3.9338505  43.3433533  73.9229431
   4.4799829  43.0889053  72.5344238  33.0668488  19.7934322   8.3481617
  32.4491158  19.5110645   7.6736951  33.8341026  19.2359257   8.2187643
  74.5689087  25.0430088  82.9362030  74.1432648  25.7999897  83.3387451
  74.7081146  24.4331436  83.6607208  27.2286854  14.4726706   2.3382440
  26.4002476  14.1493225   1.9841681  27.8489227  13.7597656   2.1855905
  56.2735939  56.1743889  31.5916100  56.6950645  55.3764572  31.2723942
  56.0182838  55.9672203  32.4905701  77.6838379  68.6170197   7.9714975
  78.2558441  68.5674057   8.7373867  77.1966019  67.7931824   7.9826865
  45.6027489  61.3247795  80.9586792  46.1513519  61.4701271  80.1878738
  45.2725716  60.4325790  80.8528671  11.1057873  29.6537647  39.4458694
  11.8862419  29.1686478  39.1779404  10.4441719  29.4218845  38.7941589
   0.6694412  66.4742661  65.9673615   0.1949680  66.4507675  66.7983627
   0.6235810  65.5759964  65.6398849  10.6575718  35.7550964  21.4693928
   9.8300858  36.1654930  21.2182522  10.6379204  34.8972511  21.0451870
   5.3832655  57.8008728  18.0139809   5.1034989  57.7014618  18.9239712
   6.0425110  58.4943581  18.0404797  43.1751175   7.0044112  72.3852463
  43.5585632   7.8374906  72.1110535  43.8156471   6.6343203  72.9926834
  23.2574825  19.7549896  76.6521378  24.0068836  19.5195236  76.1051636
  22.5534401  19.1786804  76.3547821  49.1116257  64.3129959  10.7750387
  49.2277069  64.9695740  10.0882626  49.5845718  63.5449867  10.4545536
  30.2181549  64.2837219  22.7445259  29.7715054  64.9387970  22.2082291
  29.8743591  64.4218826  23.6271057  83.0854340  31.6403217  16.9220829
  82.9349289  32.5477867  16.6573410  82.6462250  31.1188393  16.2502327
  37.7213173  60.0351524  79.1438065  38.3018074  59.2781639  79.2227249
  38.2045860  60.6512032  78.5932007  27.3177185  40.3648071  28.9294853
  28.1381378  40.8579025  28.9290581  27.0816269  40.2934837  29.8543663
  11.0524015  61.2658234  54.6731339  10.7755852  60.7496643  53.9160423
  10.4317255  61.9937477  54.7066154  83.3777771  36.6457253  30.2791500
  83.4999390  36.6101990  31.2278576  84.0368271  36.0456467  29.9301605
  41.4510078  63.1991234  53.4518738  42.3053970  62.8066788  53.2723198
  41.2978096  63.7878952  52.7128792   0.6688815  52.8594742  62.5316849
   0.4995536  53.2230911  63.4007874   1.5025265  53.2486572  62.2674828
  42.9283295  49.2214394  23.8451347  43.4389153  49.2943268  24.6514969
  42.0536957  49.5258980  24.0871143  85.9146729  14.1589909  16.4551868
  86.3493118  14.9967031  16.6150627  85.5575790  14.2393866  15.5707359
  10.8368368  41.0147896  81.2748566  11.1623354  41.5931702  81.9646072
   9.9028158  40.9208870  81.4619904  67.4814529  27.2728291  55.9275932
  67.2936172  27.9621181  55.2905464  67.2019424  26.4653606  55.4962044
  59.5048599  53.1463547  50.2409210  59.7162323  53.1431122  51.1744843
  58.7433510  52.5713043  50.1657600  24.4733906   1.2499340  68.3217926
  25.3140411   0.9239398  68.6431427  24.2851734   0.7106693  67.5536804
  11.0768337  23.5000610  67.2966995  11.6089239  24.2956715  67.3074112
  10.2735786  23.7552185  66.8429260  42.0488930  60.1247902   5.4508591
  42.6354370  60.2754860   4.7095842  42.6342392  59.9497108   6.1877093
  81.0050507  10.5615616   2.5780036  80.7419128   9.8247032   3.1293931
  81.9308090  10.6945620   2.7817485  13.3554935  41.0055466  30.2912235
  13.6169434  41.9047928  30.0931549  13.4777050  40.5336227  29.4674587
   5.0858426  16.7206383  47.1006241   4.5917568  17.4646893  46.7563858
   4.9238539  16.7413082  48.0437927  50.2639427  35.1623497   1.1125181
  49.4075432  35.1547432   0.6850167  50.3504410  34.2874603   1.4910889
  47.7787743  53.9773369  34.7377243  47.9631042  54.3615685  33.8806267
  46.8905106  54.2679787  34.9444733   4.3478584  34.3987732  46.2771149
   4.2563057  34.9291153  45.4855423   3.4620523  34.3500824  46.6365738
  43.4762840  57.2932777  32.5202255  43.8539505  56.4495544  32.2717667
  44.1689873  57.7288017  33.0169258  76.2711639   5.5107331  66.0409546
  76.2330933   5.3439012  66.9827347  76.7555923   6.3325839  65.9626923
   3.1709781  47.1711311  14.3303709   2.5484982  46.9893417  13.6263094
   3.6475999  46.3492393  14.4468155  82.3960953  55.6288223  75.3846512
  82.3597488  54.8041039  74.9001389  83.0232010  56.1645508  74.8988876
  53.7495117  13.9298315   1.2429632  53.8441467  14.0972252   2.1806490
  53.6943169  14.8002911   0.8486452  11.0106945  63.3581619  17.3640366
  10.3029757  63.7138786  17.9014664  10.8632393  62.4124031  17.3692608
  37.5718002  57.6448212  48.3085861  37.4032211  58.5562859  48.5474205
  38.1074333  57.6997299  47.5171890  33.2528152  17.9171562  19.6094227
  32.7602615  17.5313511  18.8850079  32.6718903  17.8333073  20.3655491
  80.1217651  17.3001766  30.2390747  79.6128693  16.5590172  29.9105339
  79.9176102  17.3354321  31.1735840  34.0456734  66.6881485   2.2449174
  33.3631020  67.3527298   2.3379831  33.9664650  66.1513977   3.0334928
  45.3373642  51.8824272  35.1737785  44.8055305  52.1671295  35.9169693
  44.7773781  51.2672958  34.7002144  83.7716141  54.9529648  51.5149193
  84.7193909  54.8721390  51.4080772  83.4893570  54.0877151  51.8114090
  20.8819790  39.5751572  65.4490585  21.1373348  38.6659698  65.2928543
  20.1506653  39.5162964  66.0638351   7.3266091  34.5465012  10.3569880
   6.7629509  33.7737617  10.3943577   6.7687979  35.2323189   9.9899292
  13.1978512  45.5008316  86.4625854  13.3975239  46.1763191  85.8144455
  12.2427635  45.5046272  86.5260239  12.0389433  65.9595871   4.6701536
  12.3179197  65.2632904   4.0755329  12.6893339  65.9497452   5.3723841
  33.3890381  44.9541321  85.1261368  33.6652222  45.2364426  84.2542114
  32.5891418  44.4512291  84.9728775  35.4552307   8.3404207  52.4623947
  35.9691162   7.6251326  52.8372498  36.0847359   9.0519753  52.3455849
  36.2476006  25.3154984  77.7439270  36.2381973  25.4325485  76.7939529
  36.7227554  26.0778542  78.0744934  23.0807457  24.3926525  20.4161549
  23.6636162  23.8962154  19.8416595  23.6639595  24.7929573  21.0610199
  53.0403595   2.8545394  78.3763123  52.7572441   3.0036333  77.4741821
  52.5641785   3.5085244  78.8879700   9.0500851   6.5861826  22.5872555
   9.5273237   6.6661181  23.4131393   9.7277384   6.4068990  21.9354305
  26.0160580  63.1752625  50.1917038  25.7855034  63.7960548  49.5005493
  26.8222694  63.5263634  50.5698318  21.1702251  34.8074570  56.6851730
  21.8299274  35.1254654  57.3015289  20.3503227  35.1958313  56.9903946
  72.2293320  42.6504402   3.9576383  72.6798630  42.4863586   4.7860904
  72.5320206  43.5175819   3.6880443   2.5238490  69.0753098  30.0274887
   2.3188500  68.3497620  29.4377575   3.1087811  68.6938934  30.6821709
  34.4386063  15.3359404  23.4503059  33.8851089  16.0352459  23.7979298
  35.2615242  15.7706575  23.2265663  69.4779587  44.3766747   5.0395994
  69.1873093  44.5322723   4.1409655  69.1647949  45.1381035   5.5278482
  59.8913116   9.9977379  59.3516769  59.5893059   9.7773886  58.4705009
  59.2250710  10.5955868  59.6906929  81.3246231  69.4608917  11.4461222
  81.6616211  70.3066864  11.1506615  81.6574783  69.3690796  12.3388777
  36.1307793  59.3986015  89.3666992  35.7885857  60.1856003  88.9427109
  36.5819550  58.9264450  88.6668777  15.1828251  66.2012787  32.1859322
  14.7515974  65.4821396  31.7242832  14.4677649  66.7823334  32.4453392
   6.4775739  52.3358879  29.0988255   6.0700564  51.5694733  29.5022774
   7.3489513  52.0356483  28.8403873  52.4926491  68.4764633   9.0875883
  52.6898193  69.0579987   9.8218708  52.1084976  69.0498810   8.4243784
   9.8339148  67.9052658  52.9363136   9.8952065  68.5229111  53.6649971
  10.7420778  67.7505722  52.6764221  55.0454712  43.1259422   8.4140911
  54.7748604  43.6905365   7.6900520  55.9298172  43.4213943   8.6305943
   3.9267051  63.7639656  70.8459625   3.1224732  63.2621841  70.9788437
   3.7685599  64.2619324  70.0439301  83.9543762  68.8013687  84.4716263
  83.2128830  68.2903748  84.1471329  84.6865692  68.1848373  84.4759140
  72.6320267  67.9751053  88.4120331  73.1678467  67.2360458  88.6999893
  72.1214523  67.6298141  87.6796951   7.2543726  15.4085331  60.4410515
   6.9318290  14.5672617  60.1178513   7.7430425  15.1889486  61.2342834
  73.6826401  38.3752480  71.0177231  74.4682617  38.7087288  71.4511108
  73.9117050  37.4820900  70.7607574   3.3374243  25.2256756  61.4579697
   2.7677646  25.9836960  61.3271065   3.5124340  25.2172070  62.3989944
  57.2717514  59.9730034  69.1277008  57.9688683  60.1770248  69.7510986
  56.4744072  60.2994308  69.5447388   7.7256718  69.0588760  58.7226524
   7.2793632  69.3857880  59.5037842   7.5494251  68.1180420  58.7222023
  22.7742558  17.4050102  55.0254326  21.9398365  17.4921112  55.4862900
  22.5932369  16.7873344  54.3169556  75.3395233  21.6988811  31.5431728
  74.6333160  22.2057285  31.1424026  75.7666168  21.2599564  30.8075333
  10.8670702  41.2863770   7.7643242  10.9566221  41.8398857   8.5401096
  10.9916105  40.3950729   8.0903549  71.9369736  37.5873604  18.2745609
  72.8162842  37.7646027  18.6086788  72.0352478  37.6010399  17.3225155
  64.7146912  48.6165504  47.1926003  64.5240097  49.4427452  47.6367531
  64.9959641  48.0275764  47.8927612  72.0453873  40.0658073  14.4449167
  72.8380890  40.0863876  13.9087954  71.3382111  40.2758369  13.8349810
  10.7447796  13.2438650  67.5952911  10.9058285  12.7061930  68.3706665
  11.6043959  13.3348894  67.1841888  67.5323792  67.9076843  23.4473686
  67.6090317  68.5276260  24.1726398  68.1309509  68.2440872  22.7804527
  41.6969490  59.5896378  10.6869469  41.3578300  60.0518951  11.4534655
  40.9999428  59.6633453  10.0350409  58.9894333  62.1084137  51.5046234
  59.8046150  62.1438675  51.0041695  58.3165970  62.3950233  50.8870621
  80.9698257  52.9828835  16.4810772  81.8702087  53.2168083  16.7065029
  80.4366837  53.4068069  17.1535988  72.2441330  61.2281036  54.6176872
  72.0134659  61.2197075  53.6887360  72.0979462  62.1332474  54.8926010
  36.8439407   8.8733120  58.4839783  36.4753876   9.4587383  57.8224030
  37.4034271   8.2747049  57.9891281   0.5990193  45.1503792   2.1546073
   1.5122433  45.4152374   2.2646286   0.5939102  44.2160416   2.3624899
  77.7901917  71.0930176  68.9443741  77.5532837  71.5999222  69.7210007
  77.5641479  71.6621857  68.2087173  50.9282188  70.2822189  76.6753311
  51.7544212  70.7491760  76.5504990  51.1892014  69.3850403  76.8831482
  43.7774734  45.4943085  83.9418335  44.5486183  44.9806137  84.1820068
  43.2561913  45.5329819  84.7437057   0.3837557   3.5799737  78.7417984
  -0.0160310   4.4391026  78.6065216  -0.2819201   2.9573336  78.4495239
  27.6430721   9.6552258  17.9389687  28.0388985   9.4602766  17.0895271
  26.8254128  10.1044216  17.7247562  48.9255028   2.0945566  68.2031937
  49.8120461   2.4254973  68.0591431  48.5385742   2.7095537  68.8263245
  57.3455582  38.8076134  84.6774292  58.1174240  39.3114662  84.9354782
  56.6330605  39.4467964  84.6721420  84.4557648  37.3904839  20.8340111
  85.2073669  37.1298027  20.3016853  84.4504929  36.7686958  21.5617390
  64.0590515  59.3467102  36.0987434  64.3304443  60.0463257  35.5045090
  63.1325684  59.5200462  36.2654991  80.8916931  28.7593613  82.8554382
  81.5200348  28.3840618  83.4723434  80.6238632  29.5850220  83.2589035
  59.5736084   6.3342743  48.7394600  58.7431641   6.3220024  48.2636032
  59.9340630   5.4563360  48.6148415  73.2765045  60.3543510  73.2865372
  73.9468002  60.4931946  72.6174622  72.5327988  60.8808365  72.9933777
   1.1114914  18.3229828  56.2784042   0.6419035  19.1568546  56.2590523
   0.7721295  17.8394604  55.5252304  18.3479424  36.7840042  27.6336536
  18.9459057  37.5279083  27.5610332  17.6350327  37.1028900  28.1870975
  21.8846512  21.5417309  20.8380585  22.3994827  22.3231621  21.0394211
  21.9316635  21.4628925  19.8852692   6.6673656  42.5379524  36.4783821
   6.9333887  42.0341949  35.7091675   7.4650431  42.9869881  36.7582245
  61.8227158  70.0563354  10.5097437  61.2175751  70.4190521   9.8628464
  61.6322861  69.1182938  10.5163202  80.9631500  46.0342751  25.1113701
  81.8267288  45.7707634  25.4292316  80.7779388  46.8527451  25.5718384
  46.2121010  53.5751724  78.2540894  46.3954773  52.6435165  78.1331787
  46.8767357  53.8713608  78.8759918  60.2667732  28.7036114   2.3965669
  61.1931305  28.8411999   2.5944645  60.2566223  27.9448299   1.8131465
  53.3432159  45.3050804  48.6236801  54.2830811  45.1576347  48.5181274
  53.1381302  46.0002632  47.9984665  54.6865692  66.2494736  48.1609459
  53.7298813  66.2629700  48.1327744  54.9532280  66.2458954  47.2416496
  77.3642120  30.2374477  81.6480408  77.1425552  30.6013546  82.5051727
  78.1632462  30.6979504  81.3916855  61.5628128  13.1346474  21.2981949
  61.7679138  13.8770704  21.8665028  61.9834404  12.3859730  21.7210350
  77.5057526   2.9658046  73.3427429  77.2308350   2.3483169  74.0205078
  77.8663712   2.4143946  72.6483841   0.7010338  64.1493149  83.5896225
   0.1450496  64.4456177  82.8689880   0.6798968  63.1941261  83.5313187
  17.2682514  14.1283674  39.7897415  17.1492176  15.0777521  39.8167992
  16.3791790  13.7746687  39.8158150  63.1405716  17.4004784  32.6749535
  63.9962082  17.7677193  32.8968887  62.6892357  18.1069546  32.2129822
  51.5209846  10.9217176  66.3488541  50.6889992  10.7243433  66.7790604
  52.1835899  10.7468185  67.0171280  19.5695419  16.0944729  59.2873344
  18.6660461  16.2373714  59.5693016  20.0476952  15.9156055  60.0970306
  68.7872620  57.1195641  46.2352028  68.2606201  57.7186165  46.7643661
  69.6800842  57.4567490  46.3087921  86.2254562  15.6089211  58.3714752
  86.2142258  16.4242115  58.8728790  85.8363724  14.9610624  58.9589462
  28.5623169  31.3097439  12.0217724  27.6953564  30.9046040  12.0000553
  29.1571922  30.6181965  11.7317381  76.5137482  33.5686989  73.7240829
  77.2131958  33.1211739  73.2479248  76.6456757  33.3151779  74.6376266
  42.5257874   0.7787064  87.7249832  42.0171509   1.5155889  87.3865662
  43.1094551   0.5397763  87.0049362  34.9020119  61.7648888  42.9841652
  35.4190216  61.0296898  43.3134308  33.9963303  61.4576721  43.0240097
   2.3867111  16.1450214  13.9140978   2.7647679  16.1383190  13.0347462
   1.4409306  16.1228085  13.7683668  23.1436386  58.3663216  36.9855728
  23.2802715  58.6189575  36.0724792  22.2754917  58.7070999  37.2010345
   2.5651524   8.2055531  78.0170975   1.6878977   7.8790135  78.2171707
   2.8235908   7.7297273  77.2277756  35.4261017   2.8895843   3.0118876
  35.2442780   2.3729498   3.7969105  34.5989227   3.3307755   2.8186116
  37.5562897   6.9418774  20.7193871  38.5063934   6.9806180  20.6096783
  37.4270325   6.4017372  21.4989853  55.0040703  14.8170261  22.3144703
  55.6227837  15.3180838  22.8458538  55.5406151  14.4314423  21.6218853
  82.7900162  27.8771019  41.0572281  81.8742905  27.8382149  41.3331947
  82.8263321  27.3332863  40.2703514  66.1608582   8.3183708  14.9132195
  66.4280243   8.9464417  15.5843267  66.9698029   8.1073914  14.4470243
  80.4132233  42.2247353  61.9311905  80.2879486  42.7423058  62.7265892
  80.1341171  42.8039627  61.2220879  65.6726761  42.7611580  29.4252129
  64.9140625  43.0399208  28.9123573  66.1054535  43.5773582  29.6757298
  20.0222588  22.3567429  83.7220917  19.4702740  21.9737549  84.4039001
  20.4377747  21.6048622  83.2998886  32.8372116  69.0537415  62.4978027
  32.0567703  68.7805939  62.0155830  33.3336487  68.2456741  62.6274986
  22.6461334  65.6870728  76.6490555  22.9817944  66.5592499  76.8561096
  22.3623829  65.7499237  75.7370453  77.4274292  57.5270576  64.4764862
  77.0531693  56.6589279  64.3264694  77.6461945  57.5358086  65.4083099
  84.7579346  51.6391220   2.5869279  84.5754547  52.5515938   2.3625796
  84.2630539  51.1308861   1.9442627  26.7411442   2.7661409  45.9919090
  27.1625175   2.1639342  45.3787003  27.1360931   2.5604117  46.8392105
  83.4649277  57.6565132  70.0614014  83.9640427  57.1328545  70.6882095
  82.7350693  58.0085602  70.5709229  51.4012604  18.5316658  70.9701233
  52.1375084  19.0655460  70.6715546  50.6750488  18.7851009  70.4003677
  76.6548767  17.2005310  61.5289307  75.8600922  17.5604877  61.1352386
  76.6895142  16.2968960  61.2151222  38.2250290  10.0943384  11.6112423
  38.1439857  10.9430857  12.0463190  39.1559792   9.8808155  11.6742496
  29.5581341  67.6172791  81.4381714  29.5424728  66.6669769  81.5518036
  30.2535515  67.7705841  80.7985382  16.9718552  71.4344940  26.3717384
  17.8871613  71.2928314  26.6133537  16.5938663  70.5556793  26.3395367
  49.0764732  11.3649292  85.1721344  49.8020821  11.3494396  84.5480499
  49.4342499  10.9661455  85.9653549  15.8542480  51.2189445  12.2291012
  15.9586258  51.0311127  13.1618690  15.5802555  50.3855705  11.8461590
  22.3597507  13.2951365  63.6353340  22.0202904  14.1548357  63.8841629
  22.8657169  13.0082159  64.3955383  60.5009537  49.2509575  32.9310951
  60.6400719  48.8448143  33.7866249  61.3744583  49.5241699  32.6507835
  48.9382858  51.5432968  89.0972977  49.6258469  52.2061996  89.1609497
  49.3973579  50.7469444  88.8302689  15.7262974  71.3698730  15.9456167
  16.5449333  71.1199493  15.5171280  15.1986170  70.5712967  15.9383144
   4.0894156  10.4604998  77.9997177   4.8124967  10.0341282  78.4597168
   3.6742606   9.7565374  77.5014114  32.3740807  31.8146362  12.4501696
  32.9088173  31.9563370  11.6690111  31.6142921  32.3836021  12.3267574
  35.0686455  26.7381039  13.7773523  35.8536415  26.3141079  13.4305954
  35.3879204  27.2795467  14.4992476  69.6196671   3.0917661  50.1825714
  70.0837784   3.0031471  51.0150261  69.6165390   4.0331159  50.0091286
  22.8167362  55.9270706  38.1492310  22.4432793  55.4238892  37.4256477
  22.9096603  56.8139687  37.8013611  24.5209732  18.0783863  83.0076218
  24.5640488  18.5058537  83.8629837  23.6845589  17.6129837  83.0142975
  73.0568695  18.5172729  55.2919807  72.3963699  18.7312584  54.6330566
  73.7017517  19.2211685  55.2220764  83.0547943  23.3272877  52.7847176
  83.3888474  24.0764904  52.2914314  82.8291702  22.6812191  52.1154480
  56.7617493  23.4471378  61.4430695  56.2837906  23.9429111  60.7782402
  56.2423592  23.5528259  62.2401237  73.4552078  49.7225876  57.4062424
  74.4018784  49.8391075  57.3257484  73.1006165  50.0708351  56.5881844
  67.3062897  18.8254204  28.5119514  67.8841629  19.1447887  29.2049904
  66.5368042  19.3925877  28.5613956  58.0780296  16.7177448  34.0923386
  57.9099464  15.9712152  33.5172958  59.0265656  16.7123985  34.2207146
  84.0709381  14.8716869   4.5710030  84.8290024  15.1487188   5.0856104
  84.3519287  14.0600281   4.1485243  35.0054893  11.2244759  29.2169170
  34.6855583  12.0704956  29.5301723  35.9077454  11.3948240  28.9464684
  61.2359123  14.6529226  70.4891815  60.7293053  15.3600502  70.0897446
  60.7085457  13.8677702  70.3420410  75.1480942  66.7380829  55.3278809
  74.3125000  67.1702728  55.1511726  75.8042221  67.4225845  55.1968040
  61.9470291  61.1117859  81.9170990  62.8065186  61.3099976  82.2888794
  62.1398163  60.6557693  81.0978851  14.7700920  56.1298904  19.2635307
  14.9432163  56.8671684  18.6781406  15.3461571  56.2789764  20.0132999
  60.2906952  33.9830208   9.8799829  59.7218094  33.2794571   9.5675774
  61.0926666  33.8886414   9.3660126  22.7719364  12.9901400  58.7790527
  22.7968655  12.4681168  59.5809860  23.4552021  12.6118135  58.2256546
  10.4426222  24.0575314  26.7238503  11.2904367  23.8596020  26.3260212
  10.3833323  25.0125599  26.6986275  36.2097511  61.7828712  67.7278061
  35.4377327  61.5547104  67.2099609  36.2434845  61.1162987  68.4139328
  70.8975372  35.7687645  65.0644836  70.0264664  35.3961754  65.2010269
  71.2351151  35.3124199  64.2937622  86.0424652  20.1458015  20.3473530
  86.6362534  20.1251392  21.0978298  86.6050262  20.3581963  19.6026058
  13.0427914  42.5292320  23.4273167  13.3759089  41.6380043  23.5320969
  12.9362154  42.8518448  24.3221874  72.5464935  50.7074623  77.3249054
  72.0927200  51.4777603  76.9829025  72.8863602  50.9873886  78.1748199
   7.5776381  71.3009033  81.8681259   7.0190339  72.0507278  81.6633224
   6.9649997  70.5866470  82.0434952  38.3238792  60.1633263  39.8121910
  37.9153099  59.3037224  39.7102890  39.1201515  60.1142654  39.2832489
   0.4775531  38.5714302  80.0227127   1.3363247  38.7059669  80.4235153
   0.5476386  37.7228699  79.5853729  82.2595596  38.6651344  34.4513702
  82.3412323  39.3094254  33.7481995  82.4902115  37.8318443  34.0406876
  66.7756958  22.4224548  55.4398537  66.9637070  22.5517368  54.5102463
  66.0915070  23.0621586  55.6370659  45.9713631  19.7970886  80.0280838
  46.2002296  18.8895435  79.8275528  45.0146523  19.8017616  80.0583115
  81.6480560  69.6948395  44.2235031  82.2870941  69.6646881  44.9355087
  81.6707611  70.6022186  43.9195557  74.6332245  33.9967499  88.4631042
  74.0128937  33.2702789  88.4026184  75.4569092  33.6363335  88.1346512
  12.6894760  13.4662037  77.1238174  12.9303484  13.4892426  76.1977081
  12.9370508  14.3286324  77.4572144  26.7771549  63.2744827  58.0510445
  27.3725910  63.2725410  58.8004990  27.2624989  62.8262825  57.3583755
  24.2140121  36.6383820   2.0208936  23.3496723  36.7069283   1.6153703
  24.0320988  36.4838257   2.9478517  18.1171799  61.3189354  80.5541077
  18.6175594  61.2549629  81.3675995  18.2174950  60.4603271  80.1430588
  54.1879196  31.0719318   9.3742056  53.7595978  31.6226349   8.7188435
  54.8297768  30.5641308   8.8778267  62.1608543  49.7553406   7.3491893
  61.9686584  48.8242722   7.2378321  62.7331009  49.7917786   8.1156340
  39.4156685  41.8735046  88.4680634  39.0628014  41.1119499  88.0078964
  39.6133728  41.5515251  89.3475418  23.1165314  66.6395340  36.8258286
  24.0425701  66.6654892  37.0666771  23.0671272  67.1380310  36.0101738
  29.7466221  53.9115791  84.1089783  29.4773350  53.7429733  83.2060471
  30.7027245  53.9393845  84.0725479  54.1150589   3.3251543   9.9288454
  54.8589287   2.7474108   9.7582493  54.4896240   4.0614777  10.4123344
  21.3534851   1.9724102  21.5265827  21.7494392   2.6929829  21.0364532
  21.0640011   2.3714182  22.3470840  24.7090473  69.2741241  86.0115433
  25.5462952  69.5337448  85.6270370  24.0544052  69.7615128  85.5114136
  11.1863174  54.9319572  45.5026588  11.6834688  54.2670174  45.0262947
  10.3721676  55.0227432  45.0075340  74.3826447  63.4480934   2.9069424
  75.0433350  63.5031052   2.2165112  74.8846207  63.2923393   3.7069383
  12.7444925  59.7843132  39.0878906  12.4857635  59.0695724  38.5061417
  13.3557434  59.3817215  39.7047577  47.9452095  15.2831326  36.3825035
  47.9939995  14.4119902  35.9888496  47.4300537  15.1573553  37.1793900
  10.0058775  16.9655628  31.3309097  10.2138138  16.6644650  30.4464130
  10.2080536  16.2171745  31.8924007  76.8497238  63.4900436  69.7905502
  76.1001587  63.3211212  70.3613815  76.5256729  63.3058434  68.9089050
  72.4487991  58.6881790   5.0770245  72.3193130  58.6853180   4.1286263
  73.3697128  58.9223900   5.1923246  60.8456192  40.3997040  60.2870445
  59.9936829  40.2840080  60.7078171  61.4349251  40.6409988  61.0016975
  78.5084457  38.4815292  18.4655056  78.9963608  37.9183350  19.0663300
  77.9358063  38.9977264  19.0328236  55.1640358   4.0942187  33.3368416
  56.0208168   3.8266938  33.0042992  54.5592117   3.9063184  32.6191254
  74.9728394   4.0883994  35.5469246  75.3270721   4.7179132  34.9188614
  75.2263718   4.4350328  36.4023781  57.6695900  27.5984821  21.9794712
  58.5408669  27.6069851  22.3757458  57.6076202  28.4354782  21.5192223
  62.3197594  31.5211754  88.5933304  61.4642372  31.9417610  88.5071716
  62.4810944  31.4974594  89.5365372  11.5040255  30.6214027  28.1588364
  12.1540909  30.0109806  28.5067368  11.9974670  31.1803589  27.5585747
  46.2003098  14.1546688  65.9922638  45.2993889  14.4771452  66.0164642
  46.1237984  13.2168074  66.1677475  45.0171242  40.7138214  59.7418709
  45.2718391  41.5304337  60.1714020  45.7057724  40.5582581  59.0954971
  63.1338425  66.2083359  62.5591087  62.4231758  66.8454285  62.4863014
  62.8321915  65.4541245  62.0527458  60.1270370  18.6813030  28.5595074
  59.3584137  18.9044819  28.0344925  59.7849350  18.1283779  29.2619801
  63.7892952  64.9737854  42.5407829  64.6006317  65.4495468  42.3629799
  63.5310822  64.6149445  41.6917839  68.7641830   2.7862327  15.7704315
  69.4234695   3.4661264  15.6314487  69.2705841   1.9840145  15.8978262
  57.2125740  42.6840363  25.6596718  57.0660362  42.3029671  24.7939091
  56.3747368  43.0858727  25.8894234  57.3446770  23.1771832  79.0891571
  58.2097702  23.2625217  79.4898605  57.3482094  23.8132839  78.3739014
  71.4160614  40.2690277  55.4034882  71.0173111  39.6795311  56.0435867
  70.8951569  41.0701866  55.4586563  83.0981064   0.8768569  58.0518913
  82.6606598   0.4438465  58.7849503  83.3881912   0.1594571  57.4884949
  64.4860611  57.6222954  80.5644150  64.0559387  57.2833824  81.3495026
  64.5951920  56.8559456  80.0013580   7.0986061  56.0014648  33.1723404
   7.2152233  55.0786514  32.9463997   7.9891710  56.3452988  33.2423668
   2.1984763   3.0840225  59.9133759   2.7310190   3.7023880  60.4136314
   2.7652464   2.8078132  59.1931610  47.6641693  61.1529579  34.1315765
  47.5401268  60.4596291  33.4833946  46.9974518  61.8049049  33.9155045
  25.3522263   5.1910119   2.5276823  25.7254181   4.9445839   3.3739886
  25.7046432   4.5466924   1.9137709  16.7204475  55.6551933  21.4445305
  17.4645100  55.0925293  21.2300224  16.3864346  55.3059502  22.2707844
  69.9244919  59.5218430  20.9175415  69.5225830  59.4409294  21.7825012
  70.7028503  58.9665070  20.9622078  78.3442993  25.6284733  79.1710739
  77.6831207  26.2029171  79.5571976  78.0973206  25.5652618  78.2484512
  79.7806168  43.8061676  49.4569130  79.7534561  43.2385864  50.2271996
  80.6490173  44.2077560  49.4858093  60.4038506  54.4705620  16.9753933
  59.4592743  54.4071617  17.1167908  60.4966316  55.0899582  16.2515354
   6.3433280  59.8457031  41.6898270   6.1542931  60.7376709  41.9811859
   6.2101521  59.3059311  42.4690170  69.9054794  23.7551708  48.1950340
  70.7471161  23.6127071  47.7619324  69.7149048  24.6818066  48.0492325
  61.5997047  24.9443359  60.2675858  62.1054268  24.4671116  60.9254112
  62.0824089  25.7610817  60.1404915   8.0977392  20.1204777  83.2646637
   8.6569138  20.1123581  82.4878159   8.6399803  20.5180702  83.9459305
  68.6582642   9.2239161   3.4740891  67.7315140   9.4001331   3.6363060
  68.6605759   8.6148310   2.7356844  50.1493225   3.2317169  23.7170715
  50.3288193   2.3923988  24.1408138  49.3328667   3.5319018  24.1164722
  12.4799004  54.6886482  80.2232742  11.9971085  53.8669434  80.1341248
  11.8027334  55.3651543  80.2266464  41.0928459  57.9841499  33.4806976
  41.4108696  57.9466438  34.3827400  41.8817940  58.1106796  32.9536476
  62.7478561   0.6368552  33.6078987  62.0281334   0.8748693  34.1923485
  63.3518562   1.3777566  33.6577034  84.6916962  35.7815704  18.1146030
  84.9395752  36.0511169  17.2302208  85.4917679  35.8853683  18.6297226
  59.3164673  20.8631973  54.8505058  58.8434448  20.4976044  55.5980530
  59.8816757  21.5358295  55.2304230   6.4979901  47.1841125  82.6274414
   7.0206261  47.6101456  81.9480438   5.6892281  47.6948662  82.6630173
  85.9792252  30.2397251  18.5506268  85.7483826  30.3682270  19.4706440
  86.1484833  31.1221657  18.2206516  54.5709801   4.4702997  49.5161896
  54.3980789   4.6671000  50.4368477  54.2821274   3.5643284  49.4065857
  86.4679337   2.1494756  66.1078796  86.9159164   2.9586833  65.8614426
  85.6715927   2.4420116  66.5511475  26.0739841   5.7614479  51.8068581
  26.2339764   5.5842476  50.8799095  26.9403534   5.7197213  52.2116966
  82.4460983  59.0046387  43.5793953  81.8954468  59.6828041  43.1881104
  83.2250748  58.9784889  43.0237427  15.5646706   5.1023164  43.9386406
  14.9162693   5.1180153  44.6426010  16.4066181   5.1838422  44.3866501
  13.0015450  68.2514725   6.6845813  13.5799923  67.6355057   7.1342611
  12.5710411  68.7344055   7.3900442  66.2171707  15.7910042  40.8866615
  66.3063736  14.8958826  41.2138214  66.7102432  15.7964087  40.0662460
   5.6687417   6.5543847  27.1286907   6.0933981   6.2298284  26.3346119
   5.0335345   5.8751369  27.3553295  18.7848148  39.3113632  20.8179798
  17.9739552  39.4705582  21.3010902  18.4953938  39.0488968  19.9441490
   9.6641378  38.8001747   2.2706234   9.5400448  39.6795311   2.6277916
  10.1647501  38.9368057   1.4662904   7.5749226  16.7318439  56.2120361
   6.8233371  17.2260723  55.8847885   8.2615061  16.8817558  55.5621414
  57.1572456  17.7432079  22.8712673  57.0826416  17.9431801  23.8043671
  56.4478416  18.2391357  22.4625683  68.6497421  10.6981230  45.2149544
  68.3268738   9.8193588  45.0155487  67.8962021  11.1495848  45.5952072
  63.5064316  69.8253860  59.2793159  64.0941467  69.3048325  59.8268967
  62.8670006  70.1884842  59.8921165  62.1428070  30.1454220  22.2952461
  62.6390839  30.9607029  22.3677711  61.3371048  30.3111172  22.7847538
   5.1587763  63.1279488  75.7612534   4.9210663  64.0086288  75.4712067
   4.5668731  62.5494843  75.2803574   2.4882858  63.2588005  60.7322845
   1.9669554  64.0263596  60.9674492   2.6819847  62.8354340  61.5686264
  46.8213081  52.2422638  87.1933136  47.3575630  52.4564590  87.9567184
  47.1116219  52.8545609  86.5172653  47.9890785  65.0976257  44.3009720
  47.2541428  65.6857071  44.4749413  48.1732674  65.2137146  43.3688583
  39.5658340  19.8928051   6.4219041  38.9535637  20.6278629   6.4542246
  39.0618973  19.1782799   6.0323744   1.3485918   7.1723690  16.4043293
   2.1537127   7.4791508  15.9873190   1.5438273   7.1863155  17.3413029
  54.2052727  12.9749031  78.9760666  54.2225800  12.1685743  78.4605408
  53.6012077  13.5480633  78.5040283  46.9917793  71.5594101   2.7370832
  47.7745857  71.6061554   3.2859559  47.2347946  70.9701309   2.0229900
  36.2234955   6.4767079  10.8996897  36.7386780   7.0726871  10.3559723
  36.7296181   6.3916559  11.7076750  35.0944405  58.7985153  72.3413467
  35.2758217  58.0626717  72.9260483  34.1500549  58.7576027  72.1907196
   1.1093932  22.0561752  73.8407516   1.6416316  21.3884163  73.4082565
   0.2179811  21.7087803  73.8102188  65.1831055  42.8896294  39.3814735
  65.0253143  43.0359879  38.4487839  64.9536285  41.9710236  39.5219536
  69.5969086  20.5918541  65.8493042  69.8259735  21.4671745  66.1616821
  69.6773682  20.0330334  66.6222687  11.8199339  57.8477058   5.2167211
  11.9484806  58.7877045   5.0897870  12.6526232  57.4546356   4.9552732
  64.2313156  23.4089699  43.1293144  63.8364868  23.2791138  42.2670593
  64.1981583  22.5452061  43.5404625  67.6677246   3.3672826  42.8972588
  67.4513550   2.4360998  42.8491325  67.1385193   3.6989601  43.6226311
  64.5489197  55.6737556  40.4094696  64.0745773  55.2409821  41.1193542
  64.8716965  54.9559937  39.8646164  64.2401428   6.2364297  68.4963608
  65.1967773   6.2629418  68.5156631  63.9723053   7.1427112  68.6485138
  32.4849358  22.4319572  18.4869690  33.4072304  22.2327442  18.3259792
  32.0227432  21.6243420  18.2625465  56.6328049   3.9237885  19.2398624
  57.2961464   4.6135311  19.2613754  56.9145317   3.2996008  19.9086304
  71.5330124  40.2818527  88.0507507  71.5372849  39.3249321  88.0279388
  71.9850922  40.5425797  87.2483292  35.0991669  60.4731178   2.5945640
  35.0247459  61.1711159   1.9438032  35.7561646  59.8780060   2.2334173
  14.3610182  33.5773087  12.2639418  13.6011982  33.0001755  12.1876287
  14.9109821  33.1626091  12.9286194  49.3958168   0.0848418  56.4685974
  50.1043358   0.6341460  56.8039970  49.8344994  -0.7043670  56.1508865
  12.0742779  35.1527061  48.3194542  11.8412676  34.3292809  48.7483025
  11.2572451  35.4562798  47.9238129  22.0389919  57.9322052  33.2588234
  22.5531216  57.1795540  33.5510826  22.5475292  58.6930962  33.5393028
  14.7846098  17.5211029  30.1087379  15.6966982  17.6016483  29.8297424
  14.5331030  16.6339035  29.8521233  40.9944572  65.1353531   7.7801228
  40.4138107  65.7496109   8.2293148  40.5644722  64.2855606   7.8759975
  78.9897079  37.0601807  59.2588768  78.2835388  37.1137848  59.9028358
  79.7775040  37.3000679  59.7467918  11.7649336  24.5465088  23.7778740
  12.3566780  25.1244164  24.2596359  12.3150892  23.8109455  23.5086040
  24.3607273   4.7836752  83.1588440  23.5192947   4.3328199  83.2292175
  24.7209587   4.4892974  82.3223038  52.4916878  44.1434097  17.9935932
  51.5880966  44.4073792  18.1670113  52.8020897  44.7680626  17.3380871
  61.8639908  58.4186249   0.3302163  62.0924606  58.2451477   1.2434188
  60.9216690  58.5859261   0.3467017  39.1253014  49.3389740  14.1059742
  38.6455231  49.1323051  13.3038950  38.7290649  48.7786026  14.7732153
  79.0336456  65.1554260  21.6543427  78.4553909  65.9138336  21.7359657
  78.5554199  64.4428711  22.0783710  20.1910706  54.7313194  68.3048172
  20.9130573  54.1038589  68.2693176  19.6752777  54.5476265  67.5196762
  38.1041031  70.6118240  11.7261343  37.2023773  70.2909775  11.7394695
  38.6401253  69.8234711  11.8122501  38.6247826   3.5391865  80.5133667
  38.6189690   4.3933625  80.0814133  38.2218819   2.9469538  79.8784180
  17.0849819   4.4725857  82.1863480  16.8088722   4.2965937  83.0858002
  16.4016972   5.0423551  81.8331909  43.8415718   5.6496868  53.2707100
  43.8175964   4.7230654  53.5095177  42.9762154   5.8241091  52.9006119
   5.1548796  46.9348412  53.5706139   5.8977122  46.7040749  53.0127831
   5.2400441  47.8787994  53.7045059  83.2594376  24.6617947  10.0947275
  83.9245453  25.3490448  10.1340847  82.7308273  24.8836842   9.3282003
  77.4954758  52.7424774  74.4678192  76.7094727  52.4192314  74.9082031
  78.1095810  52.9267693  75.1785583  78.9305573  56.1986389  38.3432617
  79.2604523  56.6115532  37.5452003  77.9897690  56.1054153  38.1934128
  68.9152374  47.6496010  59.0350647  69.8411560  47.4769325  58.8645020
  68.5903320  48.0376282  58.2225952  27.3578339   9.4713879  35.7457657
  27.0665359  10.1234426  35.1084251  28.0873852   9.8912067  36.2015457
  23.8190689   1.3999190  40.6446648  23.1575279   0.7847648  40.3281517
  23.8378296   1.2649442  41.5921135  46.2404594  62.7288399  14.0755444
  47.0477676  62.2963142  14.3537712  46.4964600  63.2450294  13.3111868
   0.0180786  28.9999084  57.3837547   0.5378680  28.2768822  57.0326347
   0.6409067  29.5163803  57.8951950  74.9200211  38.6089821  42.9229279
  75.6873245  38.2900238  43.3980522  74.7231293  39.4545517  43.3260117
  74.4566193   5.5066390   2.2234006  73.8204956   5.2926807   1.5409019
  74.7057495   4.6594224   2.5927110  75.0905991  36.6450768  34.8332329
  75.9421387  36.2288361  34.9668465  74.8578644  36.9957123  35.6929512
  15.7265606  28.6565838  87.5026932  15.9266624  28.0290718  86.8081284
  16.1121693  29.4790249  87.2008209  41.9992828  64.9815140  87.2897644
  42.3803177  64.4486160  86.5918655  41.1873817  64.5297775  87.5199280
  86.3191147  31.6622620  60.1704483  85.7170181  31.8950710  60.8772125
  86.3505173  30.7057362  60.1879005  52.7419243  62.8537560  27.0504913
  53.3489609  62.4730110  26.4158497  53.0701714  62.5617218  27.9009056
  61.1097412  60.0798607  24.1022606  61.1257935  60.1948433  23.1521263
  60.8453903  59.1686325  24.2288132  55.8975296  32.8735046  69.4166412
  56.6017380  32.7258949  68.7853470  55.0962029  32.8376122  68.8943176
   2.1890221  24.8322258  70.9025879   2.8754003  25.4960728  70.9691010
   1.9108740  24.6839008  71.8063889  32.8806953  31.5950241  75.1253662
  32.0128670  31.9988842  75.1260605  32.7084732  30.6571217  75.2084885
  10.0911016  52.4099464  50.7321815  10.1590300  52.5129318  51.6814003
  10.6501350  51.6591568  50.5321083  74.3255920  70.3244781  31.7017517
  73.9436264  70.0833435  30.8578396  74.3531647  69.5047150  32.1951714
  74.7375870  28.2482815  84.8378525  74.5652237  28.8723240  84.1328049
  73.9310455  27.7376251  84.9082108  62.9132080  25.0568504  49.8146057
  63.4774437  25.4093418  49.1264038  62.0821915  24.8777161  49.3746605
  60.4333496  60.3250580  84.1862793  60.6900902  60.3213501  83.2641602
  59.8532944  61.0818291  84.2703552  65.8374176  48.9903831  81.7513275
  64.8814087  48.9965935  81.7987061  66.1047668  49.7914886  82.2018661
  51.9093933  51.3886757  52.9566917  50.9605446  51.3807831  53.0825920
  52.1769028  50.4800568  53.0948448  79.9046783  10.9238415  70.3653870
  79.3626862  11.6296663  70.7179337  80.4378891  11.3451672  69.6912842
  59.7612419  12.5653591  69.6384354  59.9813232  11.7121286  69.2645493
  59.2071114  12.3610363  70.3917084  22.0486374  57.5594406  83.4289322
  21.3901730  57.0426826  83.8932800  22.4173279  58.1352425  84.0988235
  54.4781418   4.2625136   6.5878406  53.8275566   3.5623410   6.6400881
  54.1691780   4.8239741   5.8768306   5.7947178  20.7807980  88.6983643
   5.4389758  20.8358326  87.8114319   5.0257244  20.8142605  89.2673645
  13.4487896  20.7094593  21.6426983  13.2972422  21.6440144  21.7836590
  13.7831879  20.6533852  20.7475643  76.1909332  44.8846245  79.6678314
  76.4905777  45.1950684  80.5222702  76.1729965  45.6697311  79.1205521
   2.1131620  68.0296097  58.7961731   1.2840459  68.4660110  58.6003265
   2.2071574  67.3730927  58.1059685  11.5468998  58.2600555  14.8447437
  12.2296877  58.8846588  14.5999956  11.9809132  57.4073830  14.8162079
  61.5695496  23.6249790  88.0955276  60.6992989  23.2520924  88.2364197
  62.1402817  23.1298637  88.6831970  62.9716568  25.2185898  37.2041931
  63.4068451  24.7247505  36.5092354  63.5384712  25.1080627  37.9675674
   4.9932737  17.4391823  17.5734463   5.5904260  17.8524742  18.1970081
   4.3559532  18.1218510  17.3636436  11.0280228  47.6789970  28.9101715
  11.9719725  47.6843910  29.0687923  10.6391554  47.6033859  29.7815475
   3.0463681  71.1975784  12.6820068   2.3434811  70.8477631  13.2295542
   2.6032801  71.5060806  11.8916082  64.9776306  34.2837334  42.8678513
  64.1317139  34.5954552  42.5461769  65.2900772  34.9854774  43.4389610
  53.4070129  15.4679956  86.7644348  53.7330856  14.5822887  86.9239044
  52.5076180  15.4546661  87.0917587  69.4919434  26.6780701  52.1271553
  68.7857208  26.0519333  52.2866096  70.2535019  26.1340942  51.9262619
  66.3836670  35.1111641  14.1405849  66.7961197  35.9251480  13.8515539
  66.9438553  34.7977905  14.8506641   4.5506473  19.0528030  37.6832695
   5.0836306  19.7621307  38.0424576   4.1551871  19.4257145  36.8953743
  72.4249496  32.6343765  19.9273624  73.1486893  32.0503883  19.7006721
  72.3945770  32.6180000  20.8839397  22.1795845  17.5326786  86.5285721
  21.4686470  17.2779560  85.9404221  22.5508499  16.7030964  86.8288803
   1.2688599  33.0958939  11.7482119   1.0684865  32.1613998  11.6952791
   1.6232356  33.3140640  10.8862076  40.7156830  52.5249176  13.1553030
  41.1083641  51.8382950  13.6943645  40.6319122  53.2740517  13.7452269
  39.4420128  54.8587990   0.8068694  38.6271515  55.3551102   0.8837167
  39.3303604  54.1207733   1.4061055  34.4855194  32.7748451  26.2729149
  34.5099220  32.7500877  25.3163471  34.2019615  33.6647758  26.4823208
  86.8857498  12.7418623  57.7101936  86.4687958  13.6021137  57.7586288
  86.2631531  12.1498260  58.1322060  28.8995037  25.7123947  26.6740723
  29.6630001  26.2601318  26.8565216  29.2122936  24.8163548  26.7985973
  58.8227997  19.2328129  49.1729012  58.9103355  19.8235378  49.9209747
  58.8641014  19.8070202  48.4081688  26.8594532  36.0590935  73.4846039
  27.6654358  36.3168640  73.0371933  26.1635227  36.5003738  72.9975891
  46.9780807   7.0529885  75.4309006  47.1832733   7.9233007  75.7724915
  46.0267143   6.9829068  75.5097961  82.5393143  62.7310371  61.4791679
  81.8777466  63.3254128  61.8331223  82.2265015  62.5211678  60.5992050
  45.4710236  44.7853889  15.0026417  45.9272118  43.9972229  14.7078257
  44.6086655  44.4742012  15.2778339  16.0768566  40.8799782  75.0312653
  16.7205276  40.2460442  75.3475647  15.7649031  41.3195534  75.8222656
  65.8206711  24.1369247  63.8996964  64.9383926  24.2589378  63.5490685
  66.1050568  23.2946415  63.5448532  59.9253349  46.6291428  26.9150524
  60.1710281  45.8375587  26.4362373  58.9690056  46.6447525  26.8773327
  39.1164436  65.8982239  48.0625420  38.8722725  66.1557159  48.9515381
  38.5040131  66.3715057  47.4993668  47.4805222  58.3976097  62.8479118
  46.6066818  58.5570679  63.2045746  47.6710854  57.4883575  63.0785179
   5.7664227   8.6809778  43.5668640   5.0473042   8.4001293  44.1327477
   5.9192119   7.9356747  42.9859924  17.2633610  22.3976173  72.3411789
  16.5059834  22.0743217  71.8532333  17.1585331  23.3490582  72.3433456
  60.1834831  58.1103020  42.4950066  59.3118210  57.7789497  42.2790260
  60.4159775  58.6723518  41.7559013  37.5840569  50.9224434  25.7725048
  37.2612228  50.0602417  25.5105591  37.3440857  50.9976044  26.6960831
  44.9732742  17.8073826  88.1339035  45.0636406  18.7595177  88.1726837
  45.2048111  17.5813103  87.2330627  58.1280556  65.4262543  20.6076431
  57.9943123  66.2981415  20.9793282  58.0534515  64.8331604  21.3552475
  52.9029350  62.9029541  12.1695433  52.6891365  62.7698135  11.2460747
  52.2053680  62.4511757  12.6444397  36.4853249  71.6219254  69.1391144
  35.9323196  71.1788712  68.4955902  36.3233681  71.1527405  69.9575653
  40.1735992  44.6085396   2.6930349  40.0939827  44.4006424   3.6239874
  40.6676865  43.8757782   2.3253872  64.9514923  22.0077286  79.1224213
  64.2975616  22.7067261  79.1185684  65.1177826  21.8302155  78.1966400
   4.5507393  28.2893238  57.7293167   5.1199951  29.0368214  57.5464821
   4.3748817  28.3462601  58.6684990   9.2466297  16.5369473   6.3451633
   9.2171144  15.7741327   6.9226375   8.7764225  17.2188549   6.8248897
   7.7996831  23.9921684  69.9754715   7.7452173  24.6004925  69.2384491
   8.4323750  24.3936005  70.5711136  64.5343704  70.6853104  14.0850649
  65.2099075  70.4578094  13.4462204  65.0218658  70.9512634  14.8647146
  85.5536270  66.7182922  83.6899414  85.1175385  66.1573257  83.0485535
  85.9027863  66.1103745  84.3416824  58.4267616  70.5823059  26.0755863
  58.7128181  70.2099457  25.2414665  57.4941902  70.7589645  25.9517593
  19.1592636  30.5986347  83.7831421  19.1425457  30.7320309  82.8354263
  18.4627781  29.9630241  83.9478760  56.5435715  55.8268051   2.1777315
  57.2376671  56.2228241   2.7046394  55.7472076  56.2838631   2.4481578
  47.6924973   2.0863276  36.0607986  46.8199997   1.6932230  36.0820389
  48.2192574   1.4727148  35.5487099  76.8490601  50.7915421  55.1164513
  76.9372787  50.0884933  55.7600098  75.9464035  50.7202072  54.8060265
   1.0202544  57.2076340  49.3581429   0.5693656  57.6488647  50.0780373
   1.6437985  57.8567200  49.0323906  60.1387062  55.1626625  81.3152390
  60.6102638  55.2089539  80.4835434  60.8016701  54.8955421  81.9519119
  45.8234711  42.6669044  75.7133255  46.1590843  42.9018631  74.8482285
  45.5737534  43.5022659  76.1083450   1.8313159  62.1208115  81.2762604
   2.2458849  61.2752838  81.1046600   1.4646055  62.0335884  82.1561203
   8.0470047   1.0962564  28.4218597   7.6030107   1.4349025  27.6444149
   8.2627039   1.8761116  28.9332619  14.0260172  40.5477219  68.3510971
  13.6533051  41.2890778  68.8282852  14.6535978  40.9433289  67.7462234
  29.4810638   4.5110240  43.0473213  29.8869648   4.4364953  43.9109879
  29.8775768   3.8065681  42.5347290  31.4371815  21.2727394  25.0343342
  30.7729626  21.7359257  25.5447292  30.9650517  20.9434738  24.2695408
  68.7199783  70.7070236  82.0050735  68.6658478  69.7923965  82.2821274
  69.6351547  70.8266754  81.7513657   2.7085047  22.5693588  78.9623260
   2.8729351  21.7509499  78.4939194   1.9869462  22.9781075  78.4842987
  63.8479462  18.9129105  78.6486511  64.1611328  18.6009312  77.7996445
  63.3915176  18.1611786  79.0265503  64.6359558  16.8322163  25.3113804
  65.3298340  17.4202385  25.0130539  63.8341370  17.3492603  25.2340412
  72.0727539  45.3016510  67.6701660  72.1714401  44.4872169  67.1770325
  72.8965073  45.7683220  67.5291901  77.6254883  19.1686916  53.0630722
  77.4636459  18.3802528  52.5449982  76.8910141  19.7464447  52.8557777
  35.9934769  56.0831146   6.0251322  35.4013710  55.3541374   5.8401041
  36.6415176  56.0498505   5.3214493  72.3516312  63.4911613   6.3160806
  71.4744949  63.1224442   6.2116232  72.9300919  62.8567467   5.8928466
  30.1363373  45.9412422  75.1111755  29.7828102  45.0680847  75.2810287
  29.5613060  46.5313873  75.5983047  44.0739670  45.4473839  19.2506275
  44.7961540  44.9495773  18.8674011  43.3795204  45.4066315  18.5931206
  52.5712929  12.4603739  46.1875648  51.9105759  11.8900824  45.7945595
  52.9658318  12.9172182  45.4446907   4.0698385  10.0121317   5.6626616
   4.6739378  10.3171511   4.9857125   3.2457283  10.4578819   5.4667506
  45.4215927  59.2511826  57.4745064  45.1592674  59.3589668  56.5602875
  46.1234016  58.6008377  57.4472275  56.5118103  22.0249386  82.9816895
  56.6685410  21.1412373  83.3144684  57.3501396  22.4739723  83.0903473
  36.0500259   1.3377767  72.0966721  35.3826828   2.0221655  72.0466843
  35.5631790   0.5203838  71.9913940  54.5352974   2.5852139  18.1379318
  55.3338013   2.8976130  18.5634098  53.8780174   2.5836334  18.8337898
  27.2720642  49.8883171  19.2738686  26.9210663  50.6406479  19.7503490
  26.6769104  49.1700058  19.4884644  75.1617203  50.7576447  36.5855484
  74.8608627  49.9168472  36.2409134  75.7363205  50.5256691  37.3151054
  33.0706291  13.9760122  21.4387512  33.5172272  14.4072733  22.1673088
  32.1880226  13.8040571  21.7668877  67.1083527  18.0383053  24.7846603
  67.2707214  18.8520546  25.2618179  67.4956207  18.1852951  23.9217300
  15.8624353  50.5453491  53.3454208  15.3795309  51.3475761  53.1467590
  15.1853399  49.9087029  53.5744553  71.1234818  51.0930252  38.7700615
  70.8545990  50.3736267  39.3413811  71.6738510  50.6783791  38.1056862
  41.2561951   8.7035742  52.9692955  41.9784737   8.9475937  53.5480881
  41.6696014   8.5593309  52.1181068  25.8660412  30.0984669  78.7770767
  26.0417461  29.1667271  78.9083023  25.9392757  30.2251072  77.8311234
  24.7075291  67.1405487  79.1804810  23.8530846  67.1511459  78.7491531
  25.2820129  67.6228180  78.5858231  62.0343781  55.7231712  79.2432175
  62.0746994  56.3729134  78.5414734  62.8675957  55.2556458  79.1849136
  72.0538101  70.3098068  64.2102737  72.0470886  69.5452881  63.6343384
  72.1740265  69.9473953  65.0880203  11.5644045  21.0097561  46.0475388
  10.6093464  21.0549717  46.0022469  11.8622503  21.4144936  45.2328568
  58.9955940  35.1988297  80.8673706  59.0165558  34.4437180  80.2794952
  58.2304649  35.0489006  81.4226456  76.5728989  45.6339836  39.7285957
  76.0446625  44.9910240  39.2555161  77.2602615  45.1168594  40.1485291
  59.0824089  45.8246460  88.7154617  59.0955353  45.8221245  89.6725693
  59.9904785  45.6575279  88.4630356  10.9977140  26.0226040  15.3449306
  10.4683189  26.8004189  15.5209255  11.8671417  26.3661442  15.1392403
  62.1041870  31.7036324  32.3787231  62.4326324  32.5457916  32.0638809
  62.4483261  31.6299725  33.2688751  52.1315613  46.3760185   3.2079303
  52.0893440  46.3033676   4.1614351  51.4902039  47.0525322   2.9906373
  56.9244766  59.3873558  39.3191490  57.1492271  58.5611038  39.7469673
  56.8082123  60.0064011  40.0399094  65.4912796  34.4626541  32.8362808
  65.7276917  34.7311211  31.9484367  64.7859497  35.0591888  33.0870705
  77.5407181  54.9312859   8.0637102  77.9595718  54.8800583   8.9228754
  77.0298309  55.7401733   8.0941658   6.9439745  12.6952314  63.4794998
   7.3878341  11.8912954  63.7495117   7.6248450  13.2113733  63.0479355
  10.7611198   0.1355139  32.8412170  11.6051016   0.1522025  32.3899422
  10.7862358   0.8942254  33.4242744  85.2178116  32.5274582  24.5506382
  84.3960037  32.7185669  25.0026741  84.9483185  32.1804504  23.7002316
  59.4910812   8.5298796  45.5715294  59.6748505   9.4521275  45.7501907
  59.0376740   8.2197781  46.3554230  48.2551727  45.4155312  84.5370636
  47.3629684  45.0689278  84.5451355  48.7816696  44.7313385  84.9504776
  63.0694962  45.6001129  54.7927055  62.1628838  45.8800888  54.9188004
  63.3177185  45.9671822  53.9442482  21.9053040  39.9533081   9.8793402
  21.9860649  39.0546684   9.5597239  22.4800701  39.9881287  10.6439724
  17.2579956  25.8349094  75.6459808  18.0955753  25.7613926  76.1034546
  16.8361874  24.9862938  75.7807388  24.9012203   0.9921918  80.0187454
  24.1288853   1.5526253  80.0938721  25.5018482   1.3211957  80.6875000
  14.4318762  45.0207748  63.2414780  14.0169458  44.4441032  63.8829727
  14.5124416  44.4836082  62.4533195  60.9910355  29.3250675  28.6002407
  61.7379150  28.9120941  29.0336628  61.2245407  29.3282719  27.6719627
   4.9120040  27.5740414  83.3019791   5.7196064  27.9104767  83.6903381
   5.1209621  26.6722679  83.0583191  25.6148434  62.9506416  77.6227264
  26.2488575  62.4436798  77.1155243  26.0987492  63.7274246  77.9032059
   4.0225744  41.5204506   2.9295998   4.6347103  41.6427956   2.2039599
   4.5673480  41.2097015   3.6527104  80.3797150  60.5398483  42.3345947
  80.2732239  61.3208466  41.7915192  79.7134628  59.9321938  42.0135231
   1.1469338  59.1536102  71.1868896   1.2563604  59.1884270  72.1371765
   1.9687741  59.4990463  70.8383484   8.7847452  38.9487534  84.7036057
   9.3098011  38.3723946  85.2589035   8.5168657  39.6614342  85.2837448
  84.6795197  29.8466187  12.6339874  83.9775543  30.2539730  12.1265068
  85.4276199  30.4331131  12.5217285  62.9480896  70.9198532   0.5162131
  62.2131538  70.3085785   0.4668317  63.0123444  71.2888107  -0.3646804
  85.7319412  14.6701965  47.7352524  85.7554398  13.7712946  48.0633583
  85.4706650  14.5837736  46.8184662   1.5063682  26.8140621  31.5779362
   1.6733770  25.9684238  31.1617222   2.3725684  27.2108097  31.6702404
  56.9598389  41.0079346   7.4552889  56.5102997  41.6394691   8.0168114
  56.8844147  40.1758728   7.9224267  13.9923735  42.8977432  20.8917294
  13.6101599  42.8655396  21.7687187  13.7838612  42.0459023  20.5081577
  54.6902084  51.9049492  10.0250349  55.3207664  51.2217751  10.2528439
  54.9663849  52.2068863   9.1597061  54.1760063  51.8060188  42.6447601
  54.9386559  51.5905304  43.1815681  53.4303017  51.4708176  43.1425514
  81.1183853  56.1475029  45.0404472  82.0372696  56.4121323  44.9973640
  80.8654099  56.0109406  44.1274376  76.0307846  63.3456955  61.0776367
  75.8106155  62.4217606  61.1963921  75.2133636  63.8113327  61.2543755
  46.0883789  20.9898529   3.6324682  45.7928123  21.7634201   3.1524010
  46.8722420  21.2817879   4.0978322  77.2925415  43.8863373  43.1069374
  77.7542877  44.5179901  43.6583290  77.6485519  44.0287361  42.2298927
  72.1623001  67.1484070  80.9507294  72.0283508  66.9032669  81.8662567
  72.8601913  66.5679398  80.6470032  78.5695953   6.2962160  83.4227219
  78.3895493   5.3823099  83.6431580  79.4816589   6.4296274  83.6807175
  69.3673706   7.6076374  26.9666748  69.8828964   7.7467089  27.7611103
  69.2939682   6.6561594  26.8922863  45.3967323  58.9901695  43.8294487
  45.1762962  59.6168098  44.5186234  44.5513039  58.6538086  43.5322189
  55.8081665  64.8731461  80.2430878  55.6277657  64.8175964  79.3046875
  56.5832176  65.4314041  80.3053513  66.3400421   5.7077441   5.8264213
  65.5794067   5.7115922   6.4075017  66.0990143   5.1080785   5.1203480
  38.7377052  19.7499332  35.7206879  38.0819931  20.1341515  35.1387520
  38.3586464  18.9130020  35.9891891  58.0540848  62.5513115  88.3577347
  58.7501221  62.7438354  88.9859848  58.2289009  61.6539612  88.0741272
  25.4598293   0.5058375   5.0958586  25.2949333   1.2916280   5.6169868
  26.1546631   0.0468640   5.5678568  35.8343544  60.7705841  59.0525932
  36.1002617  61.2065430  58.2429848  35.2283707  60.0863419  58.7682838
  70.7977066  42.9377136  24.9414997  70.0034637  42.4081154  25.0117588
  70.8552856  43.3955078  25.7801533  27.8354263  21.1012859  88.8907776
  28.0177021  21.3806000  87.9935684  28.6793709  21.1657047  89.3378143
  36.7423401  62.1401939  35.0401459  36.8724136  62.5037575  34.1642838
  35.9249763  62.5347176  35.3442802  68.7550049  19.0600948  72.6843567
  68.8718948  19.0686245  71.7343597  69.4190369  18.4481621  73.0018921
  59.3036385  29.1073895  54.4108887  58.6804886  28.7359142  53.7864494
  59.7990990  29.7490139  53.9019012  40.1143227  49.0077591  60.1298561
  39.2331734  48.8687401  60.4769592  40.2554932  49.9514503  60.2056885
  78.1071014  41.4083786  51.2666588  78.4382935  42.2917061  51.4287834
  78.2960739  40.9298401  52.0738297  69.9240875   6.8036380  14.2626209
  69.3222733   6.2829370  13.7307186  70.2087173   6.2074246  14.9552603
  48.8562431  45.1224174  80.7961121  49.0320587  44.2807617  81.2167435
  48.1358910  44.9424248  80.1920166  48.5756493   8.5303879  73.2985916
  48.4167557   9.4738817  73.3269348  48.1838493   8.1971569  74.1058578
  52.1719856  57.1230659  51.0862045  52.5326500  57.5669174  51.8537674
  51.5908203  57.7701073  50.6864433  56.7586288  26.8144493  84.5697632
  56.8087120  26.2035103  85.3049316  57.1488953  27.6225204  84.9028473
  63.0825806  22.4217358  64.1197052  63.0850716  22.8400002  63.2587318
  63.5680885  21.6068268  63.9915085  83.4176559   8.5569324   9.2889519
  83.6100464   9.3764362   9.7446156  84.1024933   7.9547114   9.5797367
  77.0182419  35.0851555  28.6111622  77.1216888  34.1595535  28.3902779
  76.7406693  35.0832100  29.5272293  80.1188660  33.0427551  44.8262100
  79.9431076  32.4640083  44.0843277  80.7915726  33.6441231  44.5067329
  55.0113792   6.0350199  21.7454586  54.5911407   5.8893661  20.8978634
  54.2841911   6.1151237  22.3627205  20.8126869  50.3885574  19.5676899
  21.3918209  49.6305199  19.6465282  20.3232327  50.4025993  20.3901672
   1.8512049  27.9671974  50.4402428   2.6639194  27.8601627  49.9460068
   1.8677133  27.2594795  51.0845222  68.9730148  20.2766190  81.4958038
  69.4660110  20.2120724  82.3137360  69.0492783  19.4079742  81.1009979
  38.5010223  38.6608772  79.1881409  38.0909576  38.5932083  80.0504074
  37.8283424  39.0557594  78.6333466  81.7556076  20.6915607  47.9705009
  81.3958664  20.6201153  47.0863571  82.5005951  20.0905628  47.9752464
  83.9216156  59.4897652  82.1122818  83.1124725  59.1607018  81.7208252
  84.6191788  59.0746536  81.6050110  82.3012314  21.8515530  69.9559555
  82.6414185  20.9644966  70.0727386  81.5976715  21.9250832  70.6007996
  70.6197128  18.7939758  50.6872215  70.3229752  19.5422459  50.1692696
  71.4946747  18.6013165  50.3502579  68.1264343  71.3859406  32.6441154
  67.4863892  70.8195038  32.2131653  67.8281708  72.2747192  32.4508705
  12.3400011  15.8862667   0.8505014  13.0415602  15.8198910   0.2027050
  12.0166779  16.7828884   0.7623817  52.7347145  32.9883804  17.0439720
  52.8016968  33.8946190  17.3447647  52.5621948  33.0597572  16.1051579
  81.9773102  41.1255341  42.5427437  81.4945679  40.7684860  43.2882004
  81.3879471  41.0087280  41.7975960  67.8331299  67.2882996  69.4351349
  67.1049652  66.7378464  69.1470413  67.6390152  68.1520615  69.0711670
  75.4883499  17.2884846  24.7964554  76.3126602  17.6765556  24.5029469
  74.9417496  17.2647228  24.0110302  63.0432014  31.5017109  24.8464069
  62.7125816  32.2929802  25.2716293  63.4056511  31.8097897  24.0157757
  59.8114433  51.7423286  41.3646584  60.3226662  51.6704865  40.5586052
  58.9630318  51.3572044  41.1453171  79.1621552  48.1038132  49.7638168
  79.6171799  48.0361938  50.6032295  78.6501846  48.9096107  49.8331299
  25.5543098  67.8288040  65.7242889  24.7308273  67.8574753  65.2371674
  26.0652561  68.5585632  65.3741226   0.2782848  54.6340218   6.6525173
   0.8773212  55.2942963   7.0009804  -0.5944263  54.9789963   6.8411965
  58.2891159  64.4806061  86.4704819  57.4581337  64.8478317  86.1690826
  58.0424995  63.8641357  87.1599579   7.4696050  31.5582008  70.7500992
   7.3307543  31.0275364  71.5345383   8.4205542  31.6465912  70.6859589
  39.5029297  27.9798927  13.0833416  39.0516167  28.8045921  13.2633963
  39.8943710  28.1048622  12.2188253  44.2643471  37.1854057  17.2214012
  43.8384132  37.5203896  16.4323502  44.7794876  36.4383850  16.9167385
  73.1908340  37.8030930  23.2611713  72.7810211  38.6621017  23.1592655
  73.9286880  37.9581795  23.8508739  24.7380638  16.3259029  86.3472443
  25.3688145  16.2260399  85.6342087  24.4253788  17.2269344  86.2659760
  12.9690027  69.4873276  35.0719681  13.2442675  68.8906784  34.3759346
  12.0200262  69.3733444  35.1237640  53.7784081  60.6443405  34.9348907
  53.9364128  61.1226616  34.1209641  52.9517746  60.9976082  35.2636986
  68.2020264  44.5036278  51.8194618  68.7785873  45.2674980  51.8370934
  67.3212967  44.8660507  51.9153976  48.5914459  11.0265265  53.5041084
  48.9219055  10.7942257  52.6363144  49.2523384  11.6197987  53.8611526
  64.7476349  44.1708832  56.5062332  64.2081985  44.5968094  55.8400345
  65.6411209  44.4488602  56.3046074  18.3606720   2.2755888  11.4096518
  19.0361080   1.8149014  10.9118710  17.8589973   1.5794152  11.8337927
  75.6029663  27.0965748   8.3631773  75.6157455  26.6696663   9.2198095
  75.5157394  28.0289326   8.5614948  69.8162994  22.2485905  76.0681610
  69.4924698  22.0065670  76.9357986  70.7625580  22.3374367  76.1818848
  41.3933258   5.5416641  30.9766445  40.5200386   5.7909369  31.2790718
  41.2559319   5.2228298  30.0846252  53.8372269  54.8752403  78.0681610
  53.2651253  54.2013016  78.4352264  53.2630882  55.3978577  77.5082855
  79.6079559  20.9347992  32.4512291  80.1052780  21.5179062  31.8777447
  80.1206741  20.1268215  32.4740944  50.5480766  48.9285812   6.3561883
  49.7606392  49.4711761   6.3981600  50.9838600  49.2009468   5.5486336
  16.4863567  16.5565357  59.4897957  16.1650639  17.3827190  59.1286545
  16.8022251  16.7841187  60.3642464  69.1677094  65.4023209   8.3643484
  70.0039597  65.7235947   8.0271330  69.0880280  65.8041763   9.2294474
   0.3026127  33.6452980  39.7975235   0.4071041  33.0405197  40.5320702
  -0.6151220  33.9143639  39.8374939  72.9614639   2.5023017  45.6658134
  72.9209442   2.7873082  44.7529259  73.7726593   1.9974407  45.7233276
  38.1833153  58.5020256  87.7993088  38.8975220  57.9707298  88.1512527
  38.6202278  59.1757927  87.2783737  75.0554123  59.4429703   4.9822917
  75.7032623  58.7482300   5.1000171  75.3568878  59.9234428   4.2112603
  72.5839691  40.6648254  58.2829056  73.3816299  40.3360291  57.8683357
  72.5774612  41.6005249  58.0812759  35.4647980  24.6801510  30.2740459
  34.9321022  23.9850731  30.6604843  35.6390419  24.3804150  29.3818436
  82.8780365   0.9113904  67.4711380  82.1694031   1.4274974  67.0868225
  83.0894012   0.2596527  66.8027115  45.1187630   4.8282623  73.5659714
  44.7349281   5.1341729  74.3877487  44.6855736   3.9917800  73.3960342
  42.9543800  53.1938744  11.6369534  43.1230011  52.8698006  10.7522087
  42.1234741  52.7891312  11.8859720  56.9240685  46.0282669  74.4787369
  57.8569565  45.8982239  74.6491623  56.8690109  46.1549416  73.5315552
  10.6612310  11.3381863   6.3895054  11.3711357  11.0646734   5.8085947
  11.0045195  12.1095409   6.8405004   4.3139496  26.4512749  47.3203354
   4.3579459  26.8527317  48.1881638   5.1499619  26.6739292  46.9107742
  82.3260498   3.0061257  32.0225639  81.8751373   2.8837707  31.1871357
  82.9614868   2.2911868  32.0587234  40.8834877  48.2659569  85.1035461
  40.0735359  48.7046242  85.3638916  40.9017601  47.4656219  85.6282959
  34.8802567  17.9538441  82.1697693  34.8339767  18.6203918  82.8551865
  34.3365974  18.2999249  81.4620285  20.1371632  52.6452866  27.5175400
  20.0510406  52.8835449  28.4406033  19.4081116  52.0465164  27.3557014
  72.9125900  31.2930717  68.6489105  72.6881943  32.1372833  68.2575226
  72.2844238  31.1856499  69.3631210   0.5507171  31.3641682   6.9195628
   0.8673167  31.0141659   6.0867996  -0.1026541  32.0182571   6.6715579
  83.0662231  29.8638477  30.8980789  83.9096069  29.7628117  31.3393555
  82.6029129  29.0455055  31.0766621  56.3029137  27.1958923  71.0775909
  56.0285187  28.1118736  71.1214066  56.7055168  27.0254765  71.9291229
  72.7934723  38.1910172  46.8104401  72.7970352  38.6241379  47.6640358
  73.4536972  38.6606903  46.3007889  63.3684578  59.3893509  42.1848412
  63.5897141  58.5193520  42.5170746  63.0997047  59.8809052  42.9609718
  58.0244217  28.4731216  86.8742371  58.5095825  29.0815010  87.4316635
  57.9856148  27.6623688  87.3815842  54.9610100  40.4637489  27.9451389
  54.5418091  39.8070374  27.3890514  54.2785797  41.1166573  28.1008015
  23.8758183   5.4337730  17.6160755  23.5606861   5.6656156  18.4896736
  23.7975349   6.2428918  17.1106739  62.9908981  68.3810806  80.3305511
  63.2589951  67.4691315  80.2178192  63.8127060  68.8713684  80.3524246
  77.5297852   5.2262044  88.6100693  78.4146729   4.9319382  88.8259659
  77.5609589   5.4102254  87.6712418  31.6893806  55.8873672  73.8303604
  32.3764954  55.3084717  73.5002365  30.8771324  55.5151443  73.4869461
   7.9852376  44.4451256  55.4550209   8.0061789  44.2667732  56.3952255
   8.2168856  45.3709717  55.3816490  49.2088013   1.4333746  27.7519360
  48.6940689   1.1273899  28.4986992  48.6996422   2.1593444  27.3914394
  70.9102936  60.8018799  59.4898987  71.4584351  60.6303139  58.7241707
  70.0666580  60.4042625  59.2744789  13.9861889   2.8897109  77.8108368
  13.4077511   3.6326644  77.6386185  14.8163271   3.1323729  77.4006958
  68.3113403   8.2145815  69.8495331  67.9472656   9.0852413  70.0096512
  67.7102585   7.8156061  69.2204514   5.0310163  45.4509315  87.0733643
   5.7238393  45.4937897  86.4142838   4.2323861  45.2890015  86.5711746
  23.3730717  54.3241272  85.4019089  23.3825874  54.4313507  84.4507828
  23.5493298  55.2007446  85.7435379  66.3099899  29.5818863  54.4863510
  65.9358521  29.8376293  53.6432343  67.2242813  29.8609524  54.4372025
   8.0096407  48.9135437  50.4516335   7.1407290  48.6109734  50.7155952
   7.8794479  49.2833328  49.5783997  40.2322693  31.7510872  84.5483246
  40.8324814  32.3433876  84.0953827  40.8016319  31.1883259  85.0730667
  50.9880142  71.1548157  84.7336426  51.8914528  71.3568878  84.4903412
  51.0539246  70.7862625  85.6145782  18.5049496  55.4378242  75.2881317
  17.8632717  56.0818367  75.5876846  18.8073368  55.0104141  76.0894547
  82.6905441  10.2502394  66.7199326  83.3906326  10.9013071  66.6727219
  81.9042435  10.7239428  66.4487152  85.5940399  46.8499565  61.9512901
  84.8832474  46.2217369  62.0791588  85.1723175  47.7063637  62.0216484
  58.2605629   7.6480498  14.2619867  57.8056412   8.4784565  14.4023552
  58.0571938   7.1290250  15.0401163  21.0924740  33.2804184  14.5732059
  21.3658867  32.7092018  13.8554373  20.6465111  34.0096397  14.1424074
  20.8321323  44.3509369  87.8472595  19.9895058  43.9322701  88.0231400
  20.6989841  44.8206406  87.0239258  60.1464081  70.9361038  77.1776199
  60.8722839  70.5682678  76.6736069  60.5410995  71.6478424  77.6814880
  19.5433178   5.7205701  70.4953918  19.6099167   6.6569471  70.3083267
  20.1489277   5.5779791  71.2228088  20.6346970  47.1063347  73.7801437
  19.8994598  46.7068558  74.2449799  20.2413597  47.8202934  73.2783661
   6.9903264  59.0125618  12.7910070   7.2865291  59.6965408  13.3915615
   7.7974720  58.6266327  12.4507017  44.1340103   0.7047403  54.7963142
  44.7893982   0.2020244  55.2800217  43.4174995   0.0868886  54.6510353
  63.8053474  20.7585850  69.4776688  62.9839973  20.3902454  69.1521912
  63.6670380  21.7055626  69.4594116  83.8789597  46.8731689  33.2064362
  83.0664062  47.2627029  32.8835449  84.2716064  46.4643173  32.4351387
  23.0018635  17.1646309   7.6280479  23.7427921  16.6977997   7.2416244
  23.3128376  17.4338436   8.4923687   0.6635966  64.6250381  79.8856735
   1.2542925  63.9419174  80.2029343  -0.0148688  64.1507721  79.4050674
  63.7230797  11.0780087  78.1638489  64.3320312  10.7689438  77.4931107
  62.9875450  11.4411430  77.6705399  63.8508034  29.8490543  63.4859619
  63.8419609  29.2057400  62.7772293  64.7613907  29.8685608  63.7803726
  76.6347427  14.0458994  19.2859669  76.3553772  14.8772211  19.6694908
  76.6665344  14.2151937  18.3443947   8.6874876  58.8338280  49.8325043
   7.8304620  59.2367897  49.6933632   8.5301380  57.8951340  49.7308540
  39.0945930   1.3787887  12.8405571  38.8644638   0.4555527  12.7361155
  38.3076019   1.7817968  13.2072468  34.2003250  32.6761322  20.8947678
  33.3226242  32.3344727  20.7240467  34.4416847  33.1304588  20.0875740
  81.1245270  10.4410763  23.7459545  81.0836563  11.3830137  23.5806751
  80.2177963  10.1890106  23.9207191  69.6588211  35.7373009  82.6061096
  70.5702744  35.4449348  82.6021118  69.3525467  35.5788727  81.7131729
  30.7140141  67.1732178  87.7909927  31.5394287  67.4553757  87.3968964
  30.9402199  66.3821411  88.2801361  76.9498367  25.2115784  20.4309330
  76.6437988  25.3825264  21.3216362  77.8113174  25.6267719  20.3898506
  62.4170647  49.9096794  40.6836433  62.2732277  49.1533051  40.1149254
  62.0962143  50.6552658  40.1763115  57.4722366   7.5905995  47.0555916
  57.3026924   7.9419456  46.1814957  56.6129494   7.3127518  47.3728638
  16.8430290  47.5398064  85.0829315  16.5551052  48.2287636  84.4840469
  16.2649860  47.6245728  85.8411636  33.6977425   4.5939937  85.1384735
  33.4621353   4.8307643  86.0354996  33.8957825   5.4290175  84.7145004
  29.2331295  68.5614014  54.4986458  29.7385921  68.4125748  55.2977676
  28.3257694  68.6231232  54.7971764  75.7163391  63.1460228  44.6664467
  75.0842056  63.7590332  44.2911301  76.2070236  63.6671333  45.3019829
  66.8708572  21.5382271  52.6570778  67.2479935  20.9906254  53.3456535
  65.9961243  21.7577667  52.9778137  21.4710426  41.8486366  12.9922552
  21.7792206  41.8254890  13.8981924  21.0151367  41.0154762  12.8729906
  23.4529839  36.7204018  79.5661469  23.7582340  36.6884918  78.6594849
  22.7391148  36.0836906  79.6010818  41.5886612  12.8220272  49.2767830
  42.0605240  13.5599060  49.6629333  41.0782433  13.2097578  48.5658875
  26.1438084  43.5718193  89.0021210  25.6917973  43.0318222  89.6504440
  26.1939526  43.0185471  88.2226257  18.0995674  32.7831612  32.3094788
  17.5165043  33.4205246  32.7218361  18.3493176  33.1890182  31.4793339
  18.8213100  35.3327522  74.3476028  18.7636871  35.7479057  75.2081604
  18.4829750  35.9912529  73.7408600  59.8180962   6.7764554  38.0302277
  60.5369263   6.9142795  38.6470871  59.0592995   6.5923939  38.5839233
  45.6579323  57.3959198  28.8999252  44.8785667  57.9088936  29.1136570
  45.5681725  57.2013245  27.9670219  77.7051773  46.0246582  44.8443794
  78.4522781  46.4028358  44.3806419  76.9739761  46.6056404  44.6345406
  72.7516327  13.8685255  85.7164764  72.3694992  13.2237949  86.3118973
  72.5097809  14.7148428  86.0926208  13.4334583  36.2159843   9.0829983
  12.9188719  36.1501541   8.2785740  12.8802862  36.7189636   9.6806984
   4.5359645  61.5883598  29.2156010   5.2479110  61.5292740  28.5785198
   4.4125924  62.5279465  29.3504524  50.9350471  59.0457382  14.4259872
  51.6214333  59.7004013  14.2974434  51.3161736  58.4161186  15.0379953
   6.7974653  45.1526451  85.1191406   6.0865135  45.2372017  84.4838181
   7.4681301  44.6452675  84.6619644  13.6904840  56.5409203  60.8371429
  13.0098114  57.1950684  60.9952850  13.4372187  56.1262970  60.0124130
  54.4905090  71.0450821   3.5032177  54.4609146  70.4441071   4.2476492
  55.0868950  70.6274643   2.8818114  15.6588774   6.9680195  87.7218399
  14.9337292   6.6490688  87.1845703  15.8255777   7.8532343  87.3980560
  -0.2118760   8.7274075   6.5122542  -0.4843611   9.5822554   6.8457494
   0.7442341   8.7701998   6.4963150  63.2677422  52.1599312  87.2455597
  62.9350700  51.5441322  86.5926056  63.5209503  51.6096039  87.9866791
  24.6110115  64.7876129  85.9807281  24.7572346  65.4601212  86.6459885
  24.9458542  65.1742706  85.1716461  55.5598564  33.1175804  15.7699909
  56.0330963  33.1104546  14.9379911  54.6370621  33.0652733  15.5211058
   0.1693989  56.8806000  26.4276009   0.4749507  57.7515488  26.1739902
   0.5566460  56.7327499  27.2903938  31.8670940  60.2913246  56.9613037
  32.6678162  60.7896118  56.7976265  31.5606270  60.0377197  56.0906754
  65.9847336  70.7442627  45.0462990  65.3829193  70.0390625  45.2845001
  66.8360901  70.4531403  45.3729057  70.3719101  12.8126554  26.6174297
  70.5626526  13.1692095  25.7498360  71.1545792  12.3121948  26.8480759
  39.4755745  53.1283455  20.4592991  39.5414162  53.1419716  19.5044632
  38.7424622  52.5401649  20.6404572  56.6185455   1.4703593  40.3125420
  55.9852104   0.7866153  40.5307388  57.3522377   1.3159561  40.9075966
  62.6013756  53.5790710  50.1216354  62.4258919  53.9293060  49.2482643
  61.9890022  52.8492737  50.2145195   4.7823563  70.3918457  38.1699982
   4.0520959  70.2009888  38.7586632   4.8791437  71.3433380  38.2090950
  73.9694061  23.7480125  63.7986031  73.6586075  24.6499214  63.7198830
  73.4652710  23.3835945  64.5261230  13.9721479  31.5699673  29.8414402
  13.3365650  32.2855644  29.8550663  14.4719048  31.7087841  29.0369492
  81.7892685  26.9789886  23.1870575  81.9588928  27.3062000  24.0704556
  81.9211807  27.7392330  22.6206131   8.1222525  32.6402054  22.3018799
   7.2566347  32.4658737  22.6714020   8.3764105  33.4842453  22.6750183
  20.6753025  19.2323513  17.3104839  20.4241676  20.1479931  17.4319839
  21.5847111  19.1921215  17.6064377  54.6507759  15.0867577  12.7313261
  54.8207092  15.2158537  13.6644335  54.8663139  14.1675825  12.5735474
  69.2830887  51.5898361  17.6253757  69.7186432  51.0222435  18.2612686
  69.0355835  51.0031471  16.9106941  46.4339142  68.2514343  30.2277107
  46.1900597  67.4541855  30.6979885  47.3665504  68.1436844  30.0411396
  49.9591293  12.2304897  45.5667381  49.0335808  12.4196968  45.7209854
  50.2421112  12.9057379  44.9501419  72.7329559  26.2274361  13.2204342
  72.0250931  26.6643925  12.7469091  72.2882004  25.6009846  13.7913809
  51.8740501   6.6937218  82.3496246  52.2905502   6.6519666  81.4888077
  51.8178215   5.7811637  82.6330109   0.5222116  43.7841415  75.6107483
   0.8674814  42.8970375  75.7110748   0.0113791  43.7522812  74.8018799
  47.3651466  14.8900003  85.4553986  47.1282463  15.4966049  86.1569214
  46.8354225  14.1106806  85.6235809  75.4947510  31.7038784  33.8852272
  75.0756912  30.8496933  33.9900551  74.9274216  32.3091965  34.3626785
   1.2134588  67.7674637  55.6226807   1.1180128  66.9481430  56.1083069
   0.6794776  68.3968201  56.1074562  61.1029778  20.7937908  73.5704956
  61.7603951  20.4701042  74.1863403  60.7896461  20.0092869  73.1203766
  29.8885975  12.5172958  11.5105944  30.5978184  12.4994621  10.8680067
  29.7133541  11.5954380  11.6995392  30.1723385   8.6023359   0.6892140
  30.1478043   8.0455208   1.4674089  30.8788395   8.2378407   0.1560786
  61.0798111  61.6730537   1.8430207  61.7173119  61.0375099   2.1684556
  60.2309990  61.2521019   1.9792227  67.5176544  12.5545349  12.8141308
  67.0677643  12.7965841  12.0046606  66.8292847  12.5522060  13.4792414
   8.1447096  67.0797348  29.7862492   7.9161263  67.9878693  29.5880623
   8.4116354  67.0950470  30.7053509  52.1315880  71.2695084   2.3290076
  52.9353867  71.3072128   2.8473878  52.4326706  71.1452713   1.4289260
  18.7498474   3.6020341  85.1673279  17.8105106   3.6355250  84.9863358
  19.0291119   4.5174942  85.1540527  10.2194052  60.7218666  32.9091072
  10.3092966  60.0208931  32.2635155   9.3188276  60.6435661  33.2238464
  58.9508781  56.3092651   3.7672596  58.4477348  56.0055885   4.5228100
  59.7791939  56.6138687   4.1378551  54.9799614  28.1779289  30.3796349
  54.9709625  27.3179569  30.7998695  55.8908730  28.3055325  30.1147079
  59.6644363   9.3976154  11.4502401  59.8575287   9.3432465  12.3861847
  60.2328224   8.7397175  11.0498114  51.3587265  32.1888847  22.1352081
  51.5728188  32.4132347  21.2296352  51.9945908  32.6758919  22.6593552
  77.5335388  36.7597656  86.8309250  78.3456802  36.6777878  86.3309860
  77.4452362  35.9210014  87.2835922  33.6449852  54.3413353  26.4871597
  33.5639915  55.2519112  26.7709274  34.0399742  53.8918648  27.2342796
  41.8666229  50.1488495  14.2195702  42.0487175  50.2213593  15.1564884
  40.9518318  49.8707695  14.1741886  32.2844734  64.1548767  50.1508293
  33.0418663  63.9278603  49.6113396  31.5296364  63.9873009  49.5865860
  60.7952194  17.7753887  34.3137169  61.6505013  17.5835609  33.9291039
  60.8611717  17.4584675  35.2145195  15.4204292  36.2473221   0.5640210
  16.0562706  36.9626122   0.5813650  14.5893030  36.6599236   0.7990190
  30.0297375  70.5006027  26.6231899  30.7056103  70.9943390  26.1588135
  29.2063427  70.9014816  26.3447151  60.2364769  18.8051414  11.3737392
  60.9767075  18.3441811  10.9790134  60.6383514  19.4403458  11.9663973
  35.4782410  25.2230358  10.3766985  35.4545593  25.9035816  11.0494013
  34.7993698  25.4795094   9.7525311  83.9735489  26.7805252  54.8188210
  84.9213791  26.6500149  54.8473549  83.6184692  25.9145393  54.6182709
  51.3248825  24.6306763   5.2279801  51.6253395  24.5677147   6.1346183
  51.2158318  23.7218170   4.9481363  57.8190041  47.9921722  87.7440491
  58.3307495  48.5706825  88.3094406  58.3406143  47.1917191  87.6854706
  68.3055954  13.4339266  84.8747406  68.2412109  13.9559774  84.0750198
  67.3970566  13.2694216  85.1271820  23.2678814  20.8538857  81.4679947
  22.5208626  21.3114109  81.0821686  23.8999844  20.7817516  80.7528229
  78.6192093  10.0180016  53.4357071  77.8078995   9.7262030  53.0199356
  79.2494125  10.0748320  52.7174911  57.1606560  11.1369247  46.9941139
  57.8560181  11.7643375  47.1917381  57.0168037  10.6714277  47.8180389
  21.5667057   5.9321003  72.3334122  22.2117958   6.6302128  72.2205811
  22.0044746   5.2893867  72.8915482  46.5599327  49.9401550  85.8535233
  46.5246201  50.7398262  86.3784180  47.4354591  49.9460449  85.4666748
  15.2278700   4.0047936  67.4010391  15.7690125   3.2350144  67.5766449
  15.1585159   4.0362005  66.4468689  35.3018036  70.7785645  63.9273796
  34.4830933  70.8668365  63.4393654  35.1518478  70.0377960  64.5147476
   2.7464788  36.8627510   3.2002738   3.6712365  36.8329391   3.4455616
   2.7541950  36.9486961   2.2469709  65.6808319  45.1808472  52.2139854
  64.9372711  45.7832451  52.1923256  65.3048172  44.3282700  51.9949875
  41.0111427  13.7776518   6.6921892  41.0389709  12.8765984   6.3703828
  41.8483810  13.8979082   7.1402969  82.7026062  66.0781555  45.9862633
  82.1785126  66.3544617  45.2344627  82.3089294  65.2501602  46.2613449
  29.2793579  22.4777699   5.3057475  28.5567684  22.9220963   5.7492247
  29.3114510  22.8802223   4.4378567  14.1241112  17.2967281  55.5004501
  13.6021404  16.9662876  56.2316055  13.9760189  16.6657906  54.7960205
  17.0124187  13.7373648  23.8139706  17.7478142  13.4422474  24.3509369
  17.3127899  13.6223392  22.9124279  56.9316559  51.7939835  85.2759399
  56.6078262  52.6940384  85.2403870  57.0090981  51.5308990  84.3588715
   6.0749984  45.1063652  80.2222595   6.6837640  45.3568573  80.9171600
   5.3678956  45.7489243  80.2801666  27.6394615  24.0483685   0.3597544
  27.6772614  23.1062183   0.1949622  26.9560890  24.1483669   1.0225012
  18.9479332  63.8604851  52.3578491  18.7851543  62.9559250  52.0904427
  18.5483608  63.9295158  53.2249184  43.3289719  39.7570419  85.2964096
  44.0147247  40.2178688  85.7797470  43.7509384  38.9551620  84.9879303
  28.3747044   6.0148401  65.9384384  28.7826118   6.8435321  65.6872101
  27.5864525   6.2712979  66.4170990   5.1712432  53.9981041  15.0176640
   4.5042715  53.8703613  14.3430805   5.0719876  54.9125748  15.2824821
  60.5069237  30.4358654  86.1316452  61.3838768  30.0541553  86.0931473
  60.2257309  30.2992229  87.0363464  13.1581354  15.5053434  83.0811234
  13.5937910  16.3511009  82.9756241  13.6773434  14.9006948  82.5509796
  75.3797150   1.1217729  13.5884304  75.6372147   1.9098097  13.1099682
  75.2536774   1.4191221  14.4895020  54.0178871  12.4051676  28.7985001
  54.1790085  11.4666519  28.8957520  53.6066780  12.4897127  27.9382725
  20.3109455  39.8276482  27.0215816  19.5780563  39.9919548  26.4281921
  20.3429794  40.6023407  27.5828819  59.7847214  16.3623905  39.5426483
  59.3422890  15.6505032  40.0049286  59.7245979  16.1214981  38.6182098
  28.9762325  69.0354996  39.7836227  28.9861889  69.2235413  38.8451271
  28.0794659  69.2285385  40.0570755  39.6547585  68.2999420  11.5559568
  40.4541206  68.7285919  11.8617411  39.4660378  67.6406479  12.2237558
  52.6371193  63.2163086  56.7204590  52.0643921  63.7744102  57.2465172
  53.2478180  62.8366966  57.3522606  15.1359148  36.3563385  65.6880493
  15.1914129  36.5494652  64.7521820  14.1983976  36.2661629  65.8588181
  23.2764168   6.7433529  51.0307999  23.1376705   6.9017739  50.0970535
  24.1348095   6.3223686  51.0773544  38.6988525   8.3945971  17.4237061
  38.3812180   9.2199163  17.7900238  39.2651520   8.0323238  18.1050987
   9.6657877  65.9316483  75.0135803   8.9723978  65.3214188  75.2646942
   9.4580498  66.7378082  75.4860077  66.0780487  19.4834347  85.4276581
  65.7388687  18.6170788  85.6526413  65.7169418  19.6640606  84.5597839
  53.1571312  30.7041645   2.7296402  52.3304214  30.2231426   2.6921871
  53.8057632  30.0932312   2.3799682   7.8628449  54.7822418  47.6039543
   6.9815845  55.0025864  47.3021927   7.8248253  54.8910675  48.5541878
  38.3268776   6.1004786  72.6398239  38.0177917   5.3223295  72.1759415
  37.5277901   6.5707245  72.8776550  38.6385994  22.3816223   8.0065308
  38.3585625  22.9529266   8.7216682  39.5106087  22.6999626   7.7730994
  16.4180565  51.3836861  36.8132744  16.0802402  52.2733002  36.9167366
  16.5987835  51.3035278  35.8767166  77.6979446  53.6142387  48.2525177
  78.0525665  52.9498787  48.8433647  78.3906097  53.7550087  47.6070480
  82.4889374  52.8192711  52.2326851  81.9159164  53.0626106  52.9597702
  82.0065231  52.1372261  51.7654381  46.7074432  34.6993637  79.3828354
  47.3951874  34.5786171  78.7281189  46.0756721  35.2823410  78.9618530
  22.6401348  69.9169388  55.1399803  22.7347183  69.9372101  54.1876793
  22.7109776  68.9900055  55.3680267  41.0980072  14.5529814  23.3248024
  41.6111450  13.8031502  23.6259270  40.7423096  14.9371243  24.1261425
   0.7377051  61.4393578  36.2837982  -0.1162555  61.3047066  35.8728790
   0.7355813  60.8511009  37.0389023  52.4824638  15.9095964  69.7567596
  52.2430801  16.1311035  70.6566849  52.3559189  14.9624090  69.7014847
  60.6784859  62.3757515  56.8417931  60.9537163  61.5608139  57.2617416
  59.7481270  62.2475281  56.6567917  77.0069504   7.3171015  72.5710754
  77.4317245   7.4671521  71.7265167  77.6102982   7.6921110  73.2126160
  17.9098263  37.2386360  89.0152435  18.2354755  37.0477676  88.1356049
  17.9430428  38.1929893  89.0810852  21.2577858  69.0960007  82.9672775
  21.9646492  68.4505768  82.9688492  21.7056885  69.9417953  82.9832458
  24.3010902  41.3428078  14.6411495  24.5395813  41.4291496  13.7181664
  24.4033928  40.4097481  14.8286877  61.5013771  67.3010864  54.3092270
  62.2255630  66.6967697  54.1461830  61.7633133  67.7826462  55.0939026
  55.4306946  37.2902489   8.7657509  54.8636475  37.8474541   9.2988672
  54.8678093  36.9878769   8.0530357  81.3436127  58.9699135  71.5458221
  80.8173752  59.0143738  70.7474899  81.0645676  58.1594124  71.9717941
  54.1668091  12.3010941  35.6305313  53.8507004  12.0334845  34.7675781
  54.4537468  11.4867010  36.0436440  24.8792038  62.2602768  61.1685677
  25.6771145  61.9664040  61.6081238  25.1104603  63.1111641  60.7960777
  45.5304070  19.4950352   7.5999756  46.1136398  20.1438408   7.9938288
  45.8810730  18.6520100   7.8873334  15.4575615   2.7953687  18.9066124
  15.2280788   2.3533149  18.0892029  16.0111122   3.5277424  18.6356106
  64.9664993  39.2641792  65.1612091  64.8557663  38.3177109  65.2515793
  64.0796509  39.5970306  65.0236053  64.1159668  61.7691536  83.5638275
  63.4388885  62.0423698  84.1828156  64.9397049  62.0061760  83.9898682
  83.5613708  69.3548889  57.1888924  83.4648972  68.4089355  57.2988739
  83.4203796  69.5028992  56.2537727  36.3160324  56.7300148  27.1424866
  37.0742950  57.0412750  26.6481266  36.6855507  56.3825874  27.9542656
  49.3527985  42.6692429  85.4006729  49.7576103  41.9109650  85.8218307
  48.4125786  42.4962845  85.4486313   3.4522371  13.8397942  28.6933899
   2.8251064  13.6279221  28.0019779   4.0592160  13.0996952  28.7012157
  67.3772125  21.5814018  40.7847939  67.8581390  20.9034100  40.3101654
  66.5333710  21.6350517  40.3361511  37.2704887  31.6291237  87.8423767
  37.6318474  31.1387043  87.1040421  36.9850540  32.4596252  87.4615555
  37.2966461  34.9060669  26.5482044  37.7819328  34.2172127  27.0023079
  37.8971443  35.2146072  25.8696499  44.6054077  10.9211721  24.7106361
  44.4522552  10.0058270  24.9449844  45.3784103  11.1718063  25.2164783
  33.4550552   2.5705810  42.4823494  32.5131416   2.4097910  42.5386620
  33.5546837   3.1476197  41.7251625   4.5997186  44.4961662  48.6736374
   3.6919191  44.1943626  48.6413002   4.7514930  44.8912735  47.8150978
  53.6460381  52.2144623  59.9236488  52.8411865  52.5704956  59.5472336
  53.4558449  52.1281853  60.8577843  51.5701866  12.4497290  60.2282219
  51.0885201  12.2587433  61.0330505  51.0872612  11.9858141  59.5442619
   8.3548918  13.7529068  22.3830318   7.5712643  14.3011246  22.4232502
   9.0829782  14.3702679  22.4536400  71.3036880  55.1294708  26.7236958
  70.3933182  54.9433517  26.4938927  71.7727966  54.3209000  26.5178146
  43.3086662  20.9978485  21.6899548  43.9601822  20.5440273  21.1553478
  42.4672585  20.7322044  21.3188801  40.5394897  12.4188147  71.8766479
  40.7557983  13.3399982  72.0210876  39.6355972  12.4315348  71.5619202
  64.5945053   3.6631942  81.0624695  64.0024185   4.4152269  81.0518951
  65.3149109   3.9335291  81.6318283  80.9573364  23.6037598  48.4136047
  81.4687119  22.8010387  48.3117981  81.1758423  23.9172573  49.2912216
  64.8088303  19.6940403  17.8511639  64.9595108  20.3884392  17.2098083
  64.9724197  20.1101112  18.6975422  85.8165436  59.2001839  14.6427736
  85.2000046  58.5832558  14.2484188  86.3580399  59.4979210  13.9117718
  67.8970490  49.9658966  12.4622374  68.1090927  50.4070854  11.6396685
  66.9871902  49.6877747  12.3572350  16.3168430  17.4657288  85.3281631
  16.0814590  18.0057716  84.5737228  16.3209991  18.0746956  86.0666580
  76.2352829  32.3415298  76.6331177  77.1825790  32.2277832  76.7100677
  75.9085999  31.4743099  76.3934555  73.0237808  43.1572304  66.2443466
  73.5231552  43.2659073  65.4349976  73.3614578  42.3475342  66.6272354
  10.1961670  67.0641098  27.8432579  10.3080702  67.7133789  27.1488800
   9.5572853  67.4570923  28.4379215  64.9664764  27.4347076  61.8282661
  64.3312149  27.3652210  61.1156273  65.6672440  26.8300514  61.5842552
  71.4059830  39.1510506  41.0975609  72.1178436  39.7359505  41.3571243
  71.2150879  39.3935089  40.1914711  40.8677826  41.9465561  81.9648514
  40.6857681  41.9125862  81.0257339  40.0231705  41.7696686  82.3790665
   6.4321442  55.3662643  80.8216400   6.9532700  54.9606781  81.5145721
   7.0342288  55.9757462  80.3947220  13.3241920  37.6931763   1.4767133
  12.9813900  38.4718094   1.0380185  12.5539074  37.1460381   1.6301131
  71.6113281  27.6156464  49.6394501  71.2873993  28.5088520  49.5233192
  71.5233841  27.4491043  50.5779419  47.2343674  49.5752716   3.3159134
  47.0133820  50.4949989   3.4625385  47.0384979  49.4264145   2.3908684
   1.8937790   8.8232317  71.8110809   1.2700472   8.3064995  71.3010025
   1.5902265   9.7261410  71.7170486  12.6341019  56.8221474  87.6339340
  12.2175932  56.7854576  86.7728882  12.6336460  55.9148865  87.9390717
  78.8343964  34.4283943   2.0320351  78.2044220  34.0391464   1.4255272
  79.1120529  35.2374420   1.6024048   2.1010532  47.0026436  83.4540405
   1.5129215  47.1148682  82.7072144   1.5183785  46.8346100  84.1946335
  67.1398392  25.2430439   8.3809223  66.2402420  25.4248695   8.6527662
  67.4322968  26.0532455   7.9634600  43.9416313  26.4787712  87.0048904
  44.4505844  26.8631363  86.2911301  44.0539780  25.5342636  86.8975830
  33.9372978  54.2563705   5.7002802  34.5264626  53.5389595   5.4669590
  33.2613144  53.8455086   6.2392325  81.5690689  71.3446274  69.5500412
  81.3919601  70.4053497  69.4988403  81.9126892  71.5710297  68.6858063
  59.2344170   9.5238104  38.8114357  59.5884933   8.8782072  38.1998329
  58.6363678  10.0519171  38.2825966  63.5204887   3.6396346  35.2317772
  62.6188126   3.5185909  35.5293655  64.0433502   3.6085305  36.0329552
  18.7976685  31.0200653  88.2989349  18.1083813  30.9431858  87.6392365
  18.4635696  30.5331573  89.0522842  86.1539688  62.9109726  14.2499971
  85.7729187  63.5439758  13.6414442  85.4220810  62.3456726  14.4969893
  82.0188675  43.3454475  29.8261833  82.8134918  43.0648880  29.3722210
  81.9721222  44.2881241  29.6667881  51.4153481   4.4249444  47.8855858
  51.2269135   5.3422327  48.0838394  51.6309013   4.0360818  48.7332611
  58.3814545  55.5651741  25.4090004  57.8292198  55.2844620  26.1387062
  58.4797134  54.7817879  24.8678169  69.6209564  47.7848701   4.0153055
  68.8706970  47.7636566   4.6093540  69.2386017  47.6889420   3.1430488
  28.8847466  24.5652885  15.4013643  29.3425484  23.7933235  15.0686197
  29.2449341  24.6979122  16.2782383  63.1001282  27.1005306   9.3294821
  62.4410057  27.3523960   8.6826801  63.0979805  26.1434669   9.3134403
  64.3176575  55.9921455  30.2337742  63.7784233  55.7879295  29.4697380
  64.6729660  56.8618774  30.0506020   7.1065102  42.1921196  73.5798492
   8.0408907  42.0959396  73.3956833   6.8521128  42.9904594  73.1170578
   1.5557696  55.7944908   4.1791468   1.4293483  55.2559319   4.9603014
   1.2056772  56.6521149   4.4202814  80.2284775  52.6116066  33.7986794
  80.6576157  53.4350929  34.0309448  80.0949326  52.1667328  34.6356277
  14.3663321   0.3728490  54.5471420  14.7555170   0.5681681  53.6947212
  13.7301369   1.0743499  54.6863670  63.3406754   7.8380823   2.3849716
  63.5310097   7.0835204   1.8276201  63.1596298   7.4604721   3.2457068
  81.4312134   3.0533442  42.5191689  80.9620667   3.4154398  41.7674942
  82.0518112   3.7386825  42.7669754  49.1504211  59.2229080  44.1300697
  48.3438416  58.7692184  44.3746719  48.9042130  60.1472511  44.0953865
   5.6264768   3.1568851  31.8656197   5.1028895   3.8745911  31.5092678
   6.2464342   2.9434683  31.1682396  60.3518600  69.7103500  20.0132484
  61.2161484  70.1172180  19.9524155  60.4778175  68.9675980  20.6037483
  85.1396103  39.5545769   0.3904041  84.7670898  39.5562286   1.2721406
  85.1552582  40.4770164   0.1352757  71.4886093  33.6798325  41.6658783
  70.6764221  34.0694046  41.9896469  71.2026138  33.0207787  41.0333557
   0.4996046   8.8244505  10.9580517   0.2663029   9.4111185  10.2385912
   0.7863844   8.0192728  10.5271473  24.9310436  17.1383953  79.3433533
  25.7336063  16.9825764  78.8455124  24.4508495  17.7858067  78.8271103
   5.4296513  28.4714203  74.8301926   5.8351998  29.1681004  75.3463287
   5.9603491  27.6965313  75.0149612  85.9705048  12.0594168  54.5433960
  86.0615921  11.1492481  54.8254013  86.0664062  12.5699987  55.3473473
  85.8709412  52.8272820  44.2684555  85.0750809  52.7951050  44.7993050
  85.7724152  52.1074753  43.6452332  66.3087234  36.2634964  50.9836998
  65.4584579  36.2780190  51.4230957  66.8717728  35.7560463  51.5682564
  80.0569077  21.4676666  55.5519142  79.5826874  20.6489620  55.4067879
  80.3588715  21.4120731  56.4585381  25.5143623   5.8353186  74.4928894
  25.3152542   4.9050846  74.3868027  26.1844177   6.0136089  73.8329849
  18.5939732  49.6518440  68.8678665  18.1148663  50.4590302  69.0553207
  18.5466022  49.1506424  69.6819839  16.0946350  45.4417076  26.7494583
  16.3127918  46.3464241  26.5255737  16.5138035  45.2971535  27.5977726
  50.0483475  63.1349030  26.6331539  51.0047073  63.1746407  26.6279144
  49.8471489  62.2006302  26.5794010  56.0888634  35.2242851  10.8327589
  55.8031044  35.7198143  10.0652790  55.4272728  35.4115219  11.4986992
  86.3643112   8.5808449  73.9869690  86.9386215   9.3022633  73.7301407
  86.8964386   8.0506411  74.5802231   1.2108482  40.1982002  68.4168549
   0.5748304  39.4870834  68.4944916   0.8167360  40.9256401  68.8982544
  25.9159908  12.4211855  10.8496943  25.8851967  12.4324675  11.8063326
  25.9286556  13.3450365  10.5995541  58.0095253  -0.1034150  70.9298019
  58.3848495   0.3224076  70.1590652  57.5808258   0.6050606  71.4099197
  11.1436338  63.6921005  61.2396011  11.9622049  64.1476669  61.0430450
  11.0976009  62.9910698  60.5894699  54.9611320  17.5998459   7.3803382
  55.7021828  17.0377655   7.6064816  54.2168770  17.0012074   7.3174853
  83.2538223  24.8195286  28.9213142  83.2706604  23.9217587  29.2529106
  83.8945770  24.8242702  28.2102280  52.7699661   1.0336074  10.8158264
  53.1367989   1.7471966  10.2938528  53.1318245   1.1671206  11.6918764
  59.5860443  56.6367302   7.9185119  58.6477928  56.4791336   7.8132439
  59.6395264  57.3428307   8.5625572  19.3683376  54.5806427  65.8023605
  19.1584721  54.9685440  64.9528198  18.7637367  53.8431549  65.8848419
  45.7896843  31.9686108  73.5084763  46.5125008  32.1990776  72.9248276
  46.2154465  31.7016602  74.3231506  46.3181915  59.5248795   8.7681923
  45.8106346  59.6518784   9.5697451  47.2293129  59.6285667   9.0426807
  69.4855728  43.5050278  29.2499409  69.0231323  43.0232162  29.9356804
  69.7593994  42.8316765  28.6271648  50.5082550  18.2258549  17.0084934
  49.8579597  17.5674133  17.2530365  51.3485832  17.7752399  17.0923233
  74.7198181  20.0596848  11.1476412  75.4485550  20.6603718  10.9916067
  74.1103668  20.5586739  11.6915255  17.3856049  57.4287910  30.3736515
  16.9476109  57.4542618  29.5229206  18.3129501  57.3207893  30.1624660
   8.1558304  39.9722862  75.6537094   8.7507677  39.4342537  75.1314087
   8.3619308  40.8720894  75.4005127  86.0205765  29.7538223  43.3216362
  85.3269577  29.9346981  43.9559937  86.6630020  29.2386131  43.8095741
  57.7359505  12.4108429  39.1953354  58.5984306  12.6178141  39.5552330
  57.6391716  13.0031281  38.4496384   1.8186671  26.0391560  66.5501556
   2.4215927  26.3010445  65.8543625   1.7245020  25.0927773  66.4418411
  28.3656826  28.4561157  82.2367172  28.6094627  28.1190605  83.0988083
  27.7238255  29.1420383  82.4204636  67.4558868  63.3195992  71.1301804
  68.0273743  63.5071259  71.8748016  66.8918152  62.6085587  71.4342728
  59.3457642   7.0610709  22.7827034  59.0166855   7.8139739  22.2917099
  60.2659302   7.2665310  22.9479694   6.8114142  12.8032408  44.6554794
   5.9073100  13.1121140  44.7140045   7.2733755  13.5011988  44.1910667
  23.8580780  64.0784378  81.8791428  24.4527016  64.8077698  82.0544662
  24.4354877  63.3338470  81.7105942  37.3289413   1.7050815  40.3753281
  37.1204376   2.0643418  41.2377052  38.2303925   1.3937553  40.4571304
  63.1738396  27.9286366   4.2070251  64.0820312  27.6468601   4.0973921
  63.2190285  28.8847351   4.2151976  52.0306625   5.9006495   0.1620727
  52.3183060   6.3781638   0.9401945  52.2467766   6.4804363  -0.5682514
  35.3864059  64.8922424  47.4400864  35.5654106  64.3754730  46.6545105
  35.2666321  64.2420883  48.1323204  81.3769531  53.7671623  71.1327438
  80.6616898  53.4528961  70.5796890  81.8991699  54.3241272  70.5554123
  19.4521866  65.7183533  66.8512421  19.8079395  66.4509583  66.3482819
  19.1906338  65.0781097  66.1894913  37.9523277  64.2243042  58.9201622
  38.6861801  63.6192589  58.8123817  37.7193222  64.4796143  58.0275497
   5.0996919  45.1088829  15.0374670   5.8738828  45.2846069  15.5722389
   5.2026529  44.1989822  14.7586937  80.9533081  65.3842926   6.9020123
  81.5760193  65.9169693   7.3966947  80.9630890  65.7599945   6.0216818
  69.1136322  60.1442184  48.4150352  69.9570923  59.8838959  48.0448456
  68.6737747  60.6105576  47.7042046  16.8942318  69.0730362  86.4385757
  16.1594620  69.5643005  86.0711441  17.4992027  69.7454453  86.7517853
  18.2186489  18.2049065  64.5012207  18.2590561  18.0015736  65.4356995
  17.4082012  17.7932186  64.2013550  36.9841270  32.0049515  76.4932022
  36.3300171  31.9818687  75.7947464  37.5839806  32.7053299  76.2365265
  13.3348379  40.3487434  80.2131119  13.9758110  40.6032715  80.8768921
  12.4861860  40.5142746  80.6237488  85.2916489  47.3534660  56.6594353
  84.6957550  47.1741676  57.3867531  85.6492310  48.2204704  56.8509254
  18.2235794  45.4700584  38.1236305  18.4548187  46.3984070  38.1541252
  18.7780304  45.1076965  37.4326057  52.7506218  15.6017113  10.6757221
  52.6757812  14.6576471  10.5365343  53.2650032  15.6854029  11.4786186
   6.9718866  60.5509758  83.9229279   7.8754053  60.8645248  83.9625854
   7.0517936  59.6054344  83.7972336  41.7971153   1.4064214  29.8035355
  40.9371147   1.8229009  29.7472076  41.7690506   0.7093583  29.1481361
  85.4229050   2.9475286   5.6877823  84.7921829   3.4191635   5.1437340
  85.5340652   3.5014286   6.4604850  28.8001976  39.3161469  80.7804947
  28.5536327  38.7205505  81.4880905  28.0173531  39.8458786  80.6295929
  78.4095459  52.1910172  10.3434725  79.3341446  52.4213524  10.2523994
  78.1311188  52.6309471  11.1466970  20.5469761  30.1315804   9.0512791
  20.1275921  30.9897060   8.9882660  21.2826614  30.2677994   9.6483059
  78.3875275  47.6506729  84.7351761  77.8577271  47.7694511  85.5234909
  78.0830154  46.8223534  84.3645096  41.0380058  68.8157501  46.4406853
  41.7140121  69.4455490  46.6908875  41.1573334  68.6980362  45.4982758
  38.0246773   4.3930817  76.8825760  38.2161064   3.4935169  77.1478500
  38.8835564   4.7819610  76.7172623  69.1116028   4.6444941   9.2349377
  69.5383224   4.1762023   9.9524679  68.2174377   4.7916479   9.5432234
  67.1179276   9.7676258  17.2615566  67.3724747   8.8959808  17.5643272
  66.4246216  10.0373945  17.8638725  44.8567314  70.5067215  25.2948685
  44.8650398  69.9641647  26.0834122  44.9837837  69.8870773  24.5764484
   7.2078156  65.1558228  53.5764694   6.4588532  65.5948105  53.1732559
   7.6153884  65.8292236  54.1211319  70.2493362  69.5315552  76.1644745
  70.5324173  68.6636429  76.4522781  70.5280838  70.1194382  76.8665619
  71.8980408  14.8297224  10.0903616  71.6624069  15.4474440  10.7825537
  71.2328796  14.9618263   9.4148312  75.8322067  41.6591644  58.1155663
  76.5481339  41.1561852  58.5037575  75.4380417  41.0627022  57.4790878
  37.2926903  12.8528738   3.4398026  37.2088966  13.7062035   3.0143151
  36.4041595  12.4968596   3.4396069  12.8758631  52.2822952  70.8092117
  13.4531641  52.4881935  71.5444336  13.2989426  52.6868858  70.0518799
   3.7012963   7.9430518  11.6503725   3.7565868   7.7203507  12.5796623
   4.5248508   8.3932953  11.4625673   7.5464816   5.4350605  17.8845863
   7.3026247   6.1765285  18.4386539   6.7900205   5.3043242  17.3128300
   8.7240019  28.5033092  81.7925186   8.5778971  28.9413853  80.9540863
   8.0761566  28.8905869  82.3812027  57.3581734  44.4044724  85.6417389
  56.6548119  44.9768181  85.9482193  58.1609879  44.8270683  85.9469299
  81.8404922  43.5285950  56.0925636  82.7017517  43.8833694  55.8721237
  81.8769379  42.6159592  55.8062019  51.4991341  70.8377762  34.0548210
  52.3166161  71.0158081  34.5198555  50.9399261  71.5876617  34.2577705
  81.5306091   6.9269142  80.1053925  80.6178589   6.7061720  80.2908249
  81.8615723   6.1791034  79.6079254  12.2829809  18.7584152  32.0915527
  12.9819241  18.5540867  31.4702950  11.4920921  18.4001007  31.6886387
  68.5745621  36.4152336  47.4188042  68.7436447  36.2906189  46.4849358
  69.4017258  36.1892738  47.8442192   8.3491154  49.6684875  36.6906776
   8.0166540  48.7746239  36.7726097   9.3013086  49.5725365  36.7094955
  45.1179428  44.3483849  32.0124817  45.4308777  43.8079224  31.2870789
  45.8623352  44.3987465  32.6121292  10.5859385   1.3112274  63.8691750
  10.8838358   0.8897397  63.0630493  11.3269320   1.2303482  64.4696884
  43.1341057  71.0240326  72.3778992  42.7036667  71.1433029  73.2244949
  42.5755692  71.4919891  71.7571869  68.8419876  41.6699142   6.3963499
  69.1146393  42.5856667   6.4537416  69.5687408  41.2308731   5.9544168
  10.6146975  48.4147949  11.8991871   9.7105980  48.6939697  11.7546282
  11.1433926  49.0696983  11.4433212  69.3570938  39.1117363  36.0228386
  69.5550385  39.1081200  36.9593391  70.1799850  39.3658066  35.6050758
  71.4149780  68.1140060  17.3815384  70.5100174  67.9782562  17.1007404
  71.9430466  67.7274704  16.6829910  74.5880966  25.0050316  38.7062874
  75.0740128  25.7500858  39.0598526  75.0633621  24.7648029  37.9109001
  69.9014664  29.2666798  31.6906776  70.4206696  29.6859322  32.3768883
  70.0199814  28.3286572  31.8400135  30.7773266   3.5412340  74.5677261
  31.6824322   3.2360067  74.5056763  30.4974918   3.6473825  73.6585236
  14.3704939   2.4978068  49.9138985  14.0014601   2.9908037  49.1810951
  13.6156063   2.0727119  50.3209229  18.6727924  54.7045364  60.4849701
  18.5808144  54.1998596  59.6768417  19.2224522  55.4492493  60.2410316
  29.1978302   8.9623013  79.2244644  28.5765533   8.9932604  79.9519806
  29.9201775   8.4246454  79.5490723  53.1417732  10.5709343  70.2947540
  53.0573692  11.4981318  70.0724640  52.4823418  10.1343613  69.7555084
  82.2835541  50.9474182  19.0488815  82.2666931  50.9249916  20.0056705
  82.4425507  51.8664436  18.8336086  69.6736221  50.1658249  66.7980270
  69.6136093  49.4062920  67.3774567  70.6129150  50.3307533  66.7158432
  58.3988991  59.9613724  61.0037193  57.9611511  59.1176033  60.8912048
  59.2978401  59.7349167  61.2421646  34.4228516   8.6945009  75.1951981
  33.5517235   9.0881205  75.1458664  35.0043907   9.4253397  75.4047699
  50.9513855  45.8363991  72.7915039  51.2066498  44.9197769  72.8957672
  50.0369034  45.8638611  73.0729294  45.5183449  33.4555359  59.2095184
  45.7665062  32.5729637  59.4846840  46.3444023  33.8697624  58.9599609
  13.3296709   6.3221898  29.5806332  12.5085354   5.9905906  29.2172985
  13.0621014   7.0169530  30.1822491  38.0231323  14.2419538  84.2329559
  38.9283752  14.5021400  84.0624619  37.5143929  14.6864710  83.5548553
  19.8139572   3.1828170  45.8701096  19.3499870   2.4041739  46.1778069
  19.3309288   3.9158511  46.2516518  69.7790146  10.3305244  37.3427124
  70.0009842  10.3236313  38.2737923  70.6162338  10.2052526  36.8959541
  53.8449440  11.0063276  32.8875656  54.5148697  11.6708317  33.0483894
  54.2289810  10.4351358  32.2223701   9.8772249  51.5531387  11.1980648
   9.2742052  50.9852409  11.6777420   9.4593248  51.6813049  10.3464985
  25.2477417  13.1239080  40.1050415  24.9341030  13.0704050  41.0078163
  26.1250381  12.7420874  40.1332512  55.1866875   6.6789827  26.6045780
  56.1244049   6.8532968  26.5237617  55.0445328   5.8876638  26.0851173
  38.2659950  71.1472321  17.8338413  38.7569733  70.6808090  17.1573620
  38.7692184  71.9470367  17.9865227  80.0882950  69.1730194  87.0759964
  79.9821472  68.7959442  86.2026215  79.8811951  68.4547043  87.6737900
  13.7496519  61.4162750  18.5621891  14.0304060  60.7500496  17.9348488
  13.8330755  62.2429962  18.0870037  72.3579788  13.5594606   3.2137454
  72.9903030  14.2768660   3.1721594  71.5040741  13.9903526   3.1762152
  71.3192978  49.6823692  13.9977160  71.4111099  48.8906593  14.5278101
  71.9037476  50.3171577  14.4120712  77.6610031   4.2738886  50.6759148
  78.0082016   3.8591516  49.8861847  78.4159088   4.3466015  51.2599220
  68.6234436  59.8351364  43.1995888  67.6949005  59.8669510  43.4298553
  68.6398239  59.4507828  42.3231010  68.3883438  35.3568993  36.1823273
  67.6840668  34.7722740  36.4623947  67.9587708  35.9920845  35.6094055
  80.4111557  50.2126160  76.5861206  80.7751312  49.3282852  76.6275101
  79.7141342  50.2156906  77.2421570   1.2649039  42.0824623  70.9310760
   0.5153515  41.6632042  71.3537140   1.1492977  43.0157661  71.1094360
  14.2240753  12.0770779  69.5790329  14.4314137  11.3964386  70.2193222
  15.0700407  12.3142080  69.1991043   6.8942232  41.8663139  62.1929131
   6.9026375  42.8232269  62.2148209   7.1804624  41.6445007  61.3068542
   1.2693567  28.1187820  44.6666756   1.9964402  28.7292595  44.5446167
   1.6897593  27.2830162  44.8691330  83.1087875  70.5785904  65.7291412
  83.9179382  70.1275482  65.4881516  82.4241180  70.1175766  65.2444534
  72.3310318  27.8947163  23.4944782  72.4504547  28.5450840  22.8023853
  72.4086914  28.3934383  24.3077908  67.9287643  70.3151855  85.6888428
  67.2372589  69.7458038  85.3514252  67.8405762  71.1238861  85.1844025
  34.8597145  54.6647453  20.2467976  35.6986923  55.0662575  20.0206699
  34.8478851  53.8425293  19.7568455  41.7946396  46.1005821  11.4952812
  41.0334854  46.5693398  11.8375368  42.4775162  46.2415314  12.1510592
  51.7263527  59.6565971  39.5483055  52.5777130  60.0236397  39.7864189
  51.2138481  60.4103508  39.2560272  42.0371704  18.2016411   6.3336635
  42.8996315  18.6107502   6.4045353  41.4531517  18.7894268   6.8128910
  70.9486084  67.0073929  86.3067932  70.5712662  66.2386017  85.8792267
  70.2118683  67.4130020  86.7638779  86.4137421  45.3127174  17.8628540
  85.5739365  45.7628975  17.9539261  86.1793442  44.4082336  17.6550121
  84.3388901   7.8674645  77.6815567  83.5621948   7.4460163  77.3136444
  84.1140976   8.7973251  77.7140884  14.9410191  23.9910774   0.6915084
  15.8945475  23.9825363   0.6081876  14.7834940  24.0644398   1.6328031
  28.8431759  26.7801094  84.7424850  29.7146225  26.3862572  84.7836304
  28.2497883  26.0375080  84.6299515  70.9089508  64.4916687  23.8257904
  70.7577820  63.5942459  23.5291080  71.1125870  64.9771194  23.0263538
  64.3349915  40.1028671  49.4502258  64.5050507  40.8963013  48.9425087
  63.6553688  40.3586426  50.0738564  74.1709213  51.1492958  42.4250832
  73.5446243  50.6502953  42.9494743  74.6377716  50.4871292  41.9153595
  30.1042233  28.9172955  18.7968864  30.7075977  28.2792835  19.1778240
  30.5570316  29.2395439  18.0175571  67.9659882  17.2705917  45.5219154
  67.7875443  18.0131207  44.9448204  68.6467972  16.7732334  45.0687370
  59.0042191  44.5550003  59.5850601  59.3015785  44.7082787  60.4818954
  59.7793121  44.2281609  59.1282921  79.5419617  64.4514771  88.7729187
  80.1448822  64.2887802  88.0474854  79.0389633  63.6410027  88.8526688
  79.8097610  56.6968193  35.7137756  79.5018692  56.3263512  34.8866158
  80.7105713  56.3837204  35.7958679  74.7468262  14.8734684  67.7099533
  74.3197861  14.0213127  67.7976837  74.1486588  15.3863153  67.1664429
  16.1647339  10.5780888   7.8101363  16.3523140   9.6539373   7.6458483
  16.9641037  11.0349512   7.5483775  63.1174164  22.9890270  75.4659042
  63.0788078  23.1214046  76.4131165  63.8291435  23.5582981  75.1733170
  77.2358170  66.6044540  31.4831657  77.2228241  67.3463364  32.0878677
  76.4824677  66.7489243  30.9106045  41.4159508  14.2809534  77.6516113
  40.6228371  13.7756128  77.8300247  41.1502686  14.9171896  76.9876480
   3.8969879  51.2012978  45.5766563   3.2790892  50.9594574  46.2665443
   3.9969440  52.1490517  45.6661072  59.5963669  31.9283295  59.6510696
  60.5414352  31.8051624  59.7400169  59.2531967  31.0475903  59.5001869
  69.0000305  69.5378876  45.9299316  69.6718063  68.9406891  45.6008415
  69.1633072  69.5863953  46.8718529   7.0030365  29.6243134  30.0006962
   7.7646718  29.1831188  30.3768482   6.5551872  30.0119190  30.7526417
  43.6596832  61.4685173   0.5153294  43.6928787  61.1846313  -0.3982018
  44.1933632  62.2627869   0.5388587  14.2053976  68.8100739  15.7503176
  13.8000221  68.6348572  14.9010801  14.2284775  67.9576416  16.1851311
  14.2750721   6.1965566  74.9467392  13.5545130   6.3907080  74.3472977
  14.8327656   6.9736652  74.9105148  57.3825302  62.4823418   5.0658774
  57.0531731  63.0533447   5.7599301  57.5153999  63.0656815   4.3186889
   0.3349341  37.9238396  26.7163811  -0.6188923  37.9550552  26.7903576
   0.5408378  36.9904060  26.6660118   4.4804759  56.5724564  33.5903053
   4.2221737  56.7384529  32.6836891   5.4070287  56.3383217  33.5363312
  13.1580925   9.0913506  67.6040344  12.2847538   9.0180817  67.9889297
  13.5321550   8.2144928  67.6902313   7.9977984  43.1943665  28.5502472
   7.0496292  43.0781326  28.6110458   8.3594570  42.3402328  28.7866535
   0.7981546   3.7524335  55.7280350   1.0043550   2.8589320  55.4534988
   0.0511217   3.6551809  56.3185539  13.7405338  66.3139267  85.7689667
  14.2308598  66.6606674  85.0235977  14.0331278  66.8395233  86.5135269
  25.5728970  32.2968636  73.6983261  25.9403152  32.6339493  72.8812485
  25.3325825  31.3923111  73.4976730  57.8255196  66.4221268  82.7989197
  58.0780983  66.7009888  81.9187698  58.5089951  65.8049316  83.0599899
  10.7486801  17.3077507   8.9127502  10.5184135  17.1794567   9.8329401
  11.5684977  16.8263111   8.8016319  48.4960289   4.1458707  11.8575163
  47.9154663   3.3982072  11.9995670  49.3776665   3.7871950  11.9590034
  52.4399490   3.1621451  88.4788818  52.1169395   2.8620086  89.3284760
  52.3214264   4.1117563  88.4994431  41.4426384   9.8479137  23.6964855
  41.3248405   9.3907213  24.5291500  42.1635818   9.3854179  23.2692013
  73.9378052  55.7266693  72.1702728  73.2905807  56.3489571  72.5020676
  74.7825394  56.1236191  72.3826141  82.8403854  33.4801483  83.5464020
  82.4333115  33.3928719  82.6844864  83.6740189  33.9179611  83.3743439
  59.2660332  50.3480034  10.3152037  60.0009384  49.9358788   9.8609972
  59.0839195  49.7662239  11.0531712  15.7695255  10.6567097  83.8066025
  16.5532284  10.3927355  83.3245697  15.1796055   9.9064074  83.7339935
   5.9856091  42.4340210  45.2629852   6.4772472  43.2508698  45.1776695
   6.4475722  41.8161354  44.6963768  76.2890701  18.7746162  49.1199951
  77.1672974  19.1350422  48.9973602  75.7048950  19.5251160  49.0117111
  83.8803787   4.2374544  22.1797829  83.4871750   4.2142820  23.0521832
  83.2567291   3.7707152  21.6235027  81.0886612  35.8100624  41.2147598
  81.5586700  36.3728333  40.5994453  80.4579391  36.3924103  41.6381912
  48.2871628  41.7046013  80.6514359  47.3831024  41.5931549  80.3573456
  48.3315468  41.2225914  81.4772186  49.3924637  52.1536942  67.1280823
  50.3120346  52.1583710  67.3937912  49.2839050  51.3284149  66.6554794
  16.0906353   5.9609947  18.6562176  15.5850000   6.5675087  19.1972408
  16.4691181   6.5106368  17.9700146  31.5964584  35.8532600  20.1703224
  31.8320789  36.0979042  19.2754135  31.0429611  36.5714226  20.4771042
  56.8710518  33.8991280  32.4705620  55.9848099  33.7425041  32.1445580
  56.7766113  34.6327744  33.0780754  73.2507019  12.6975880  55.6509972
  74.1989822  12.5675764  55.6413040  73.0437012  13.0166330  54.7725945
  15.2010107  12.4890270  31.7002563  15.2763176  11.5347958  31.6984558
  16.0264931  12.7937193  32.0770493  33.9901428  61.5922928  71.1109009
  33.7186813  61.3485565  71.9958496  33.2560234  62.1010971  70.7667847
  70.5936737  63.9108200  79.5751190  69.8057480  63.7044907  80.0779343
  70.3050003  64.5592117  78.9328690  51.7123756  16.5562344  80.8371201
  51.5147705  17.4777088  81.0046539  52.0198326  16.5381470  79.9308243
  83.6175766  22.5473022  18.0073872  82.7422409  22.2254982  17.7918606
  83.5146561  23.4967957  18.0714245  70.1502762  60.7709198  30.9827805
  70.3904343  60.6226120  31.8974171  69.4006805  60.1941795  30.8354321
  70.3338470  33.2741165  25.8647003  70.8559799  33.7673798  25.2320080
  70.4150925  33.7690506  26.6799736   6.5026231  52.1609726  43.8708344
   6.9150505  51.9430466  44.7066841   5.7073860  52.6356621  44.1127014
   9.7165871  11.1388416  30.6351700   9.5598974  11.2076817  29.6933937
  10.2374697  11.9130440  30.8485317  60.0587082  10.3186874  35.8275642
  60.7462425  10.6869497  35.2726669  59.2635422  10.7807388  35.5621376
  48.9168320  64.8112488  41.3331451  48.5511208  64.0965805  40.8118668
  48.6215324  65.6065292  40.8897896  14.5133829  62.6245346  84.5982971
  13.9262514  63.0788918  83.9940872  15.3815527  62.7214661  84.2069931
   6.3606176  48.2614975  77.9215469   5.6206598  48.1653175  78.5210800
   6.0169907  48.7875137  77.1994247   5.4105425  65.1194153  66.6178513
   6.1411161  64.9967575  66.0116806   5.5906501  64.5126343  67.3359146
   7.7247057  66.0669937  61.4025421   7.4541736  66.8443222  61.8912277
   7.3367276  65.3353043  61.8824768  53.3122025  45.4730873  62.8134003
  53.0685158  44.9618454  62.0417252  52.4860306  45.6203766  63.2738113
  82.3714066  71.0654144  38.1486092  81.7071304  71.4527588  38.7186394
  82.1660461  70.1305237  38.1423798  66.0978622  10.9156094  42.4474449
  66.4858551  10.2717361  43.0400009  65.2172470  11.0597820  42.7938004
  10.0201931  52.6004715  62.9581718  10.4081039  52.6321640  62.0836678
   9.8690643  53.5176659  63.1865349  44.7400665  23.8340149  25.2669220
  45.6277161  23.8155632  24.9091969  44.7038383  24.6437111  25.7761478
  84.9566040  26.4278431  60.2881203  85.8325653  26.1091900  60.5057793
  84.7775879  26.0631886  59.4213982  80.0245667  61.3071938  13.3950176
  80.6923294  61.3897629  14.0758314  79.2786484  60.9036369  13.8388367
   9.7107563  51.3303452  85.6502686  10.6162815  51.4414291  85.3605881
   9.6031895  50.3836861  85.7424393  57.3071785  44.5642471  65.5434265
  58.1762199  44.6783180  65.1587372  57.1854362  43.6156502  65.5830765
  65.8730621  43.0581703  34.1408463  65.5161896  43.9232712  33.9396515
  65.6654282  42.5284843  33.3710709  70.9797134   6.9824042  46.0514908
  71.0234528   7.7380428  45.4655495  70.0442429   6.7971969  46.1340790
  51.0458679  56.6212158  67.8335571  50.6718979  57.4488525  67.5312347
  51.1603127  56.1045609  67.0359344  45.5145912  29.1607742  75.3630219
  45.9254570  28.9479713  76.2009583  44.6226540  28.8222084  75.4407806
  30.7708874  28.7658558  80.8380661  30.1149464  28.6010609  81.5154266
  30.7326508  29.7111588  80.6925583  40.3209152  32.8084068   9.7593470
  40.6668930  32.6662102  10.6404324  39.3999138  32.5547829   9.8198624
  76.4386978  46.7834435  77.7750931  77.1477661  46.7146187  77.1357803
  75.7377853  47.2375870  77.3074188  75.5934677  57.6077919  56.0256119
  76.3341217  58.2130737  55.9895554  75.0541763  57.8439713  55.2708817
  42.0205727  35.7417831  19.0940495  42.5777550  35.0123215  19.3654613
  42.6098061  36.3307915  18.6227741  55.1560593  63.9353065  84.5812073
  55.5571938  64.7576447  84.8624191  55.8706322  63.4482994  84.1707916
  71.6001129   8.4869299  10.3739662  72.1202698   9.2899227  10.3444948
  71.3036499   8.4267941  11.2821102  29.0716667  15.1813765  85.1926193
  29.8760109  15.1730404  84.6737823  29.3291702  15.5725908  86.0274124
  53.8865662  57.2062073  40.9558830  54.5753326  57.0750694  40.3042450
  53.0732002  57.1885414  40.4515495   0.9101357  71.2788467  83.4509583
   0.7532306  70.4697495  83.9377594   1.7283199  71.6205215  83.8116074
  29.0459080   7.8407230  55.8744011  29.4714203   8.6974239  55.9095421
  28.1162262   8.0394487  55.7629128  35.4739418  60.5233078  86.8211212
  36.3026810  60.8860245  86.5082932  34.8275948  60.8125572  86.1770630
   0.3146958  54.7742958  24.8169327   0.0684907  55.3151741  25.5673103
   0.2473897  55.3628693  24.0650768  60.5566711   0.3983783  43.9792862
  60.8993149  -0.4731869  44.1772881  59.6222343   0.3392518  44.1781921
   3.6053166  45.9627800  60.9272614   3.5253427  46.9120941  61.0202179
   2.7990005  45.6966171  60.4853973  19.1613903  17.7355881  52.9493446
  18.3886890  18.2724781  52.7735252  19.2534428  17.7530098  53.9019470
  21.6191959  38.0828018  75.9918060  22.3913708  38.6484566  75.9877090
  21.6115952  37.6815834  75.1227875  18.5907364   4.9203801  10.9492893
  18.7292004   3.9759674  11.0210094  19.4720745   5.2869139  10.8776817
  41.6729965  55.7768364  75.3454056  41.7503433  55.0843811  74.6890869
  41.1158752  56.4368095  74.9327545   2.8427465   1.5084382  47.9455185
   3.3885720   1.7905009  47.2115250   3.0837510   2.0950248  48.6625023
  69.9964752  60.2403641  69.5251694  70.7183685  60.2498970  70.1536713
  69.8136520  61.1646538  69.3563614  63.7116508  66.3250580  29.2693977
  64.5317001  66.7245102  29.5595646  63.9585381  65.7945709  28.5118599
  80.1123199  15.7863636  87.1427841  79.5037460  15.1432829  87.5065384
  79.5532990  16.4089050  86.6778412  77.3150482  23.1716843  27.2141953
  77.9476852  22.6177254  27.6715069  77.0938263  23.8551369  27.8467979
  64.7793198  57.3166618  42.9985123  65.3673859  57.9587593  43.3961487
  65.3633652  56.6674843  42.6064796  11.9882545  38.2681007  14.6563711
  12.1897564  39.1763954  14.4313612  11.7460909  38.2987022  15.5819263
   0.9522547  55.2940369  81.3776398   0.3235771  54.5763893  81.3003159
   0.7321084  55.7169228  82.2076569  19.6905727  11.9959087  58.5494957
  19.7700806  12.8928881  58.8740578  20.1664925  11.4665737  59.1894493
  73.0481186  28.3926811  77.3811035  72.7388458  27.5020275  77.5463867
  73.9894104  28.3547020  77.5506897  46.3436699  52.3904266   8.0315599
  47.1188965  52.4521141   7.4734845  46.2392693  51.4528542   8.1937027
   6.6769605  42.6688995  49.2774162   7.2920961  42.9721069  48.6096573
   5.9534287  43.2943573  49.2382355  15.6976967  66.0558319  52.8452225
  14.9585438  66.4151993  53.3358727  16.4441185  66.1438522  53.4379578
  17.2546844  62.3381271  83.7008286  17.9442177  61.7619133  83.3710480
  17.6970520  63.1707039  83.8662338   7.6487517  33.3192368  37.6402779
   8.4254999  33.3857117  37.0848732   7.9469967  32.8389473  38.4126778
  50.6339188   4.8687572  36.7087021  51.1483650   4.8562727  35.9015961
  49.7789536   5.2070527  36.4425697  28.4520473  32.7758446  88.8437805
  28.3854618  32.1088676  88.1604538  27.6575241  33.3003960  88.7447128
  23.2937527  51.9164467   5.1410513  22.8584747  52.2741165   5.9148970
  23.0671940  50.9864655   5.1471910   8.5799685  20.0132217  24.2520580
   8.8555288  20.6104164  24.9475117   8.6695137  19.1409569  24.6359425
   1.7920675  16.9907398  31.3006439   1.4339776  17.8558388  31.4996567
   1.0507582  16.5007248  30.9448662  39.1012192  56.8807030  36.3647194
  39.3120041  57.4276123  37.1214867  39.9407501  56.5052567  36.0992661
  48.4960747  17.8472118  23.2619858  49.3798561  18.0367050  22.9469376
  48.0960770  18.7080326  23.3853550  71.1763763  45.0127716   9.4297199
  70.9547348  44.5603218   8.6158438  70.3985291  45.5315285   9.6348534
  40.1888542  38.8778915  82.1307373  40.7926979  39.4423828  81.6480865
  39.6507988  38.4681511  81.4533691  24.4379597  69.9851074  61.0474739
  24.7347603  70.3431931  61.8840866  23.4894886  69.9015274  61.1456985
  65.5526428  13.1502495  85.2634888  65.5543747  12.3035679  84.8169861
  64.7194977  13.1710396  85.7342987   9.7558985  38.9931908  34.1139183
  10.0661411  39.6758842  34.7088242  10.1733456  39.1969757  33.2769966
  60.6893578   7.0005412  35.3711357  60.4832497   7.0885797  36.3017273
  61.6043739   7.2728524  35.3016739  30.9815025  55.6759148  25.0660229
  30.6647205  56.5538139  25.2785606  31.8640614  55.6438560  25.4351997
  56.4275970  41.7435951  60.8338242  57.1551857  41.1221581  60.8080635
  56.7578278  42.4776840  61.3517952  85.2704239  56.7302628  10.0060358
  86.1337891  57.0868988   9.7971106  84.6731110  57.4704552   9.8985214
  60.2207451  16.0899067  36.8417892  61.1448593  16.2757397  37.0082474
  60.2304535  15.4224224  36.1557846  57.5321198  12.6541100  28.5827484
  56.8440247  11.9912615  28.6410103  57.6858215  12.7578878  27.6436863
   6.0138330   8.9836607  52.6097603   5.5235686   9.8047590  52.6506310
   5.8185406   8.5465851  53.4386482   7.3294001  50.8677063  54.0596542
   7.1202655  51.4214287  53.3073997   8.1059732  50.3782997  53.7882805
  68.1794739  18.5909138  18.5362282  67.9120712  18.5918541  17.6171379
  67.3584442  18.6511841  19.0246048  34.6938477  55.2181587  16.9608517
  34.9099922  55.6431198  17.7908649  33.8861427  54.7372131  17.1412125
  55.3080750  38.3309097   2.3902128  55.5540886  37.9200096   3.2189891
  55.9303284  37.9783020   1.7540557   2.4718757  50.0077248  87.8211670
   3.2682023  49.7376366  88.2784958   2.7551746  50.7189522  87.2465973
  21.1926250  34.9816208  78.9681549  20.8741627  35.8749733  79.0975113
  21.1913128  34.8620415  78.0184555  68.1972046  26.7870712  80.2378769
  68.2036743  25.8314114  80.1839981  67.2894897  27.0091362  80.4451752
  68.7129135  35.3694839  19.0128632  68.8965378  36.2752228  19.2621574
  69.5757446  34.9816246  18.8668690  46.7169304  69.1676407  37.0239182
  47.3553009  69.6606979  36.5085411  47.1436081  68.3278122  37.1938019
  58.1820488  52.2154236  34.7901573  57.5931892  52.9695473  34.8180618
  57.7179375  51.5686836  34.2585945  53.4772415  62.6387634  29.9085960
  53.4075279  63.5933533  29.9199886  54.3986092  62.4636002  30.0999889
  23.6986027  38.4451523  21.0706921  24.5362453  38.1345253  21.4143467
  23.0411377  38.0162773  21.6184483  13.3361864  68.2205276  32.6538048
  13.3732204  68.6829300  31.8165188  12.6524200  67.5615768  32.5334663
  35.9519615  54.9927711  23.9901180  36.7123451  54.4490700  24.1961212
  35.4244804  54.9793358  24.7887516  46.4670296  32.5638313  21.6407986
  47.2225456  32.4733047  21.0600796  46.2992363  33.5057411  21.6704617
  31.3240547   3.1387432  23.6827908  31.6645756   3.8739057  24.1925087
  30.3769760   3.2766590  23.6667995  28.4662170   3.6239181  23.6610374
  28.0232582   4.4540601  23.8367748  28.2500019   3.0730996  24.4134216
  56.6838112  21.7453976   8.5038195  57.0980492  20.8974190   8.3439093
  55.8762398  21.5330162   8.9717445  55.4812202  61.4101868  70.5442810
  54.7902946  62.0431290  70.3487396  56.2918282  61.9165001  70.4913940
  49.0958710  12.8475294  88.2136154  49.2721214  13.0102072  87.2869568
  48.4773102  13.5338211  88.4638519   6.1797915   1.0764430  15.6115856
   5.2843385   1.3919420  15.7334719   6.6491623   1.8245578  15.2424688
  48.8887978  11.8008900  21.0007954  49.4538689  12.5551987  20.8336201
  48.3167877  11.7556620  20.2346439  72.8162460  60.8361588  43.2343407
  73.3664017  60.7045174  44.0065041  72.9244385  60.0338821  42.7235756
   0.8896948  28.3586502  11.4225788   1.7450241  27.9660988  11.2478018
   0.8568798  28.4470749  12.3751211  38.7958908  33.9681473  75.4048462
  38.6733246  34.5642242  76.1436996  39.1958809  34.5094337  74.7242203
  79.8546143  31.6678162  64.6047287  80.2088547  32.5447426  64.7521973
  80.3063126  31.1164703  65.2436447  55.3006859  19.5906620  25.2339497
  56.0848999  20.1373196  25.2829914  55.3116302  19.0827942  26.0452328
  19.7028046  24.4958305  88.5321350  20.4145279  25.1356487  88.5498810
  18.9050198  25.0244446  88.5505371  78.2588425  58.6942940  44.3757019
  79.1096039  58.9611015  44.7239265  77.8429337  58.2208633  45.0961952
  57.3323708  35.7070580  85.5258026  57.5329552  36.4937782  85.0187912
  58.0633583  35.6239090  86.1381607  16.8521957  19.7920876  52.1466064
  16.3403568  20.0041637  51.3660469  16.1973591  19.6302929  52.8257561
  32.4772606  71.8184967  28.8886719  32.6462288  71.0451889  28.3504543
  31.5877209  71.6911011  29.2184048  79.4853745  58.9039726  23.4735832
  79.3574753  59.5632324  24.1556778  78.9927979  59.2368469  22.7233849
  82.7818909  34.8446426  46.9741592  82.8859406  33.9040146  46.8305511
  82.0082550  35.0809288  46.4624023  24.8698502  16.6067848  89.0441742
  24.8563309  17.4765568  89.4436111  24.8569260  16.7756462  88.1020737
  48.8116913  22.1247406  74.1139374  48.6611290  21.2324905  73.8017578
  49.1769142  22.5845394  73.3580093  46.3343620  50.1144981   0.6632605
  47.2704239  50.1145210   0.4632120  45.9469643  50.6817589  -0.0033510
  78.8383865  25.8169460  31.6715832  79.1950531  26.4517269  31.0502338
  78.4872360  26.3507366  32.3843155  -0.1130063   2.3880572   1.7527064
   0.2934622   2.0634325   2.5562198   0.2765566   3.2521811   1.6194296
  75.2198486  23.3049984  35.9407959  76.0087357  23.7835369  36.1955528
  75.3758774  23.0532761  35.0305634  34.8140144  29.3811378   4.9512467
  34.6644363  28.4358330   4.9673200  35.3470535  29.5260277   4.1695113
  50.0063248  69.3007050  89.2541122  50.3446083  69.8873062  88.5775757
  49.1306992  69.0630493  88.9490891  68.3957748  24.0490932  88.1165771
  67.4927368  24.3649368  88.1481476  68.3220139  23.1012325  88.2277069
  46.0023384  34.8568115  84.7150803  46.7079887  35.1814308  85.2744675
  46.3590393  34.9037056  83.8280640  26.4528275  67.9127426  28.4650726
  26.1159840  67.9994049  27.5732994  25.6787720  67.9933167  29.0223656
  63.8078690  32.4611816  78.0736465  63.8854675  32.2620201  77.1406174
  62.9331589  32.1542015  78.3121338  13.2388906   0.5299046  20.0632820
  12.8929806   1.4115291  20.2022667  14.1038065   0.6699719  19.6778831
  40.2239685  17.0669537   3.2380519  41.0435333  17.1412792   3.7269516
  40.4919586  16.7892590   2.3620958  19.9781017   4.4641471  35.4457359
  19.7833481   5.3879986  35.6032219  19.1822472   4.0030437  35.7107468
  46.8627319  12.6490974  19.1186714  46.1390419  12.6114359  18.4933014
  47.2271118  13.5276184  19.0106945  77.1843109   3.9332726  16.8563137
  77.8742523   4.0862994  16.2107182  77.0044708   4.7984166  17.2243023
  48.0539742  27.4598579  72.0615616  48.7617760  27.1712074  71.4854279
  47.4617004  27.9463062  71.4881363  64.6637344  12.5173712  88.2237091
  64.5406876  12.2923832  89.1459198  64.2062836  11.8258743  87.7453690
  42.7050781  10.9965944  41.2321777  42.4220123  11.3001833  42.0946960
  42.8127632  11.7978401  40.7196922  47.4406853  69.3683853  53.9540024
  47.7287750  69.0262299  54.8002663  46.7928352  68.7340546  53.6471672
  68.0402832  29.8955307  85.9070435  67.2436295  29.3731823  85.8135834
  68.7322311  29.2518921  86.0592499  75.7648239  28.3138256  39.0829010
  74.8506927  28.5851345  38.9993057  76.1027374  28.8323555  39.8130836
  33.9252739  39.4211655  34.8863297  33.0651932  39.7885323  34.6825333
  34.5157928  40.1744461  34.8770027  48.0255013   4.8996639  36.2707558
  47.2435837   5.2988973  35.8893814  47.9540405   3.9717269  36.0470200
  35.5223122   7.4130063  60.2040939  35.7937965   8.0067110  59.5040627
  36.0396233   6.6206007  60.0601692   9.4827337  29.2722893  75.3170395
  10.1607056  29.9371452  75.4376678   8.6923170  29.7709923  75.1102295
   2.9783897  66.8111649  21.3580246   3.2203572  67.0792847  22.2444763
   3.3635111  65.9406357  21.2575760  78.0060501  17.9806271  35.8899689
  77.6320724  17.9122295  35.0115051  77.4097137  17.4770031  36.4440308
  66.1217499   2.5422418  67.7707672  65.3869095   3.1350098  67.6130829
  66.4814072   2.8250015  68.6115494  23.1811848  33.0026398  16.8650208
  22.4694462  33.2043915  16.2576065  23.0997753  33.6598663  17.5561485
   4.3486476  66.7555466  30.0181999   4.5999160  67.0625000  30.8893356
   4.9575853  66.0411072  29.8311253   9.6319904  15.3898764  58.6934624
   9.8931026  15.5834389  59.5937881   8.6986504  15.1860981  58.7533188
  52.7146568  10.0697699  55.0953636  52.6021538   9.1200790  55.0545807
  53.5237885  10.1940212  55.5914421  85.7766571  65.9898987  60.1854134
  86.7181854  66.0850754  60.3293037  85.4508667  65.5870972  60.9903030
  18.6313000  49.4478912  44.7523804  18.2086277  49.3818893  45.6086655
  18.3861141  48.6400032  44.3013458  24.1123199   3.1918464  13.6091719
  23.8100109   3.3303623  12.7115889  23.6220016   2.4274828  13.9117746
  53.8268166  48.6946983  24.4686813  53.9052505  47.9648285  25.0829887
  54.1237640  48.3366127  23.6321220  79.4876709  11.9300232  56.6051788
  79.2405777  12.1026859  55.6966858  78.6629181  11.7155895  57.0411034
  50.3311119  51.6100044  56.2291183  50.1813164  51.3187752  55.3296852
  49.9146347  50.9394188  56.7705002  35.4650497  44.0269279  86.9724808
  35.9397621  43.5480309  86.2931137  34.6179085  44.2291985  86.5754089
  36.0244331  59.8222313  33.3180695  35.3453751  60.2255249  33.8588715
  36.3336029  59.0792770  33.8363953   6.5679111  34.7859116  87.1347733
   6.7574024  33.9884186  87.6290665   6.1411061  34.4767227  86.3357315
  23.6193886  71.4277954   9.5254211  22.6892529  71.2187653   9.4394693
  23.7060890  71.7734833  10.4137983  82.2715912  16.5902805  39.4029427
  82.6581116  15.8092718  39.7989960  82.1310959  16.3498840  38.4871368
  63.8332787  62.1480827  66.9333420  64.3382874  61.3937645  67.2369919
  64.4014282  62.8999329  67.1011581  16.2931538  61.7327538  78.3986130
  16.2779293  62.6287689  78.0622253  16.9016895  61.7643623  79.1367950
  58.9869614   0.7408059   1.0198289  58.8303299   0.1740153   1.7751083
  59.4375229   1.5036438   1.3821861  24.6950169  56.1697693  71.5801315
  23.8548317  56.6262970  71.5364609  24.7687664  55.7226677  70.7369843
  33.5387993  32.6159515  10.1184072  34.4147606  32.8699799  10.4089069
  33.3709488  33.1667061   9.3537312  71.3417511  37.3120766  34.5145607
  70.4352570  37.4259834  34.8000870  71.3001938  37.3624115  33.5595894
   9.0423956  45.0376091  30.0226440   9.8735981  45.2530823  29.5996723
   8.6397305  44.3903999  29.4436703  48.9738808  58.9573822  84.1128464
  48.9921494  59.4629860  84.9254150  48.1071396  59.1278152  83.7441406
  68.5197220   6.2039762  36.3412399  67.6108856   5.9219294  36.2377930
  68.5641403   6.5462484  37.2340508  62.0085449  43.8262634  71.6706924
  61.3371658  43.8310318  70.9884415  62.8270378  43.6684113  71.2001801
  57.3313942  56.1504860  36.8906937  56.9579697  55.3287811  37.2094231
  58.2772141  56.0036964  36.9010925   7.1021962  13.3394585  80.2551041
   6.7893810  13.8182907  79.4875793   7.0557256  13.9750824  80.9692917
  21.6243935  23.2923946  74.8954163  20.7676182  22.8727226  74.8176651
  22.2321243  22.6727657  74.4917450  66.7786255  16.7570953  50.0810165
  66.3755646  16.0462646  49.5825233  66.3755188  17.5523853  49.7328033
  47.7813339   0.1574824  47.3016243  47.0651627   0.7892635  47.2369728
  48.0142288   0.1536103  48.2300491  62.1337509  44.2087631  37.3158493
  61.2154846  44.2086639  37.0456352  62.1028900  44.1287842  38.2692032
  59.2365265  55.9043465  87.5178223  59.4853058  55.9255714  88.4418793
  59.4779053  56.7687073  87.1848831  62.6801682  49.3275948  29.5800495
  62.5703850  50.2748413  29.4969730  62.9209518  49.1938705  30.4967670
  73.0796051  41.7047958  53.9771767  72.4335938  41.1095467  54.3574142
  73.0143890  42.4992409  54.5071182   9.6159763  56.3915329  33.3631821
  10.3200674  56.9491692  33.0322342  10.0573282  55.5900917  33.6444893
  28.0915833   0.4761873  34.6724586  27.2636127   0.8335209  34.9934082
  28.0093288   0.5002936  33.7191010  38.8458557  70.9006958   4.0989270
  38.7514496  69.9579086   3.9630008  38.3059273  71.2965622   3.4148264
  28.4718094  31.1045132  86.5309753  28.0221558  30.2623272  86.4619293
  29.1113796  31.0936356  85.8188858  30.0688343  63.5969467  31.9014072
  30.7553120  63.5415459  31.2366428  29.3831024  64.1261597  31.4940510
  54.8319130  32.9598770  83.8965759  54.5098839  33.6881523  84.4277496
  55.5583344  32.5967636  84.4032211  72.5368042  11.7584181   7.3231559
  72.6678619  12.6311989   6.9526029  72.0711670  11.2757082   6.6402206
  29.0376072  69.4064178  63.5380554  29.3856277  70.1128006  64.0822372
  29.4300079  69.5517426  62.6771622  13.8398857  41.3067360  26.1565304
  14.5739202  40.6997223  26.0618877  13.0615664  40.7599030  26.0496387
   8.3619566  28.8814068   8.8362427   8.6090612  29.0561275   9.7443419
   7.9443254  29.6907654   8.5417004  59.9892693   3.3400660   1.7202039
  60.0541306   3.1821446   2.6620564  59.4646797   4.1373229   1.6465912
  69.4755554   0.6800411   2.7993863  68.6422043   0.2536450   2.5995343
  70.1002960   0.2803299   2.1942725  53.6113930  70.9046021  20.7461281
  53.7068710  71.3488388  19.9036503  53.2599831  71.5750732  21.3319683
  79.0604935  65.1272049  24.7422085  79.3378601  65.1477127  25.6581097
  79.8668518  64.9692078  24.2512360  20.7518177  61.8402786  17.3768940
  21.6733589  61.8571701  17.6351700  20.2750416  61.7205582  18.1982250
  50.9342804  15.3509254  58.3717194  51.5259056  15.9883680  57.9718666
  51.2923851  14.5001020  58.1185532  20.5318832  21.6579914  15.0924158
  21.2541218  22.1226063  14.6696444  20.0912189  22.3266659  15.6167469
  34.6154060  39.5236626   0.2072415  33.9498329  38.9107399   0.5196054
  35.3882675  38.9802094   0.0536987  57.1623306  16.4081154  18.8634892
  56.3527374  15.9933167  19.1613655  57.8292580  15.7282915  18.9598045
  84.9804001  32.1673355   5.3919759  84.4697495  32.5868912   6.0843906
  84.3520813  32.0242882   4.6841698  12.2738256  25.3476505  74.7705002
  12.6714487  25.1550732  73.9213562  11.7241802  26.1145287  74.6091919
  58.8873596  13.3183498  10.7034159  58.3809471  14.1260700  10.6175785
  58.3144646  12.7272396  11.1918945  75.2793427  13.1006060  85.0832748
  75.4749603  12.3173065  85.5974808  74.3703766  13.3083668  85.2996979
  28.6338463  57.9200211  74.1458511  28.9685898  57.5673409  74.9703445
  27.9570122  57.2989006  73.8768921  47.2928658  60.7133408  74.0030441
  47.5673523  60.2778358  73.1960602  47.6300163  61.6053810  73.9204178
  60.2994766  33.0260506  12.6978035  60.3899155  33.2689095  11.7763529
  59.3582993  33.0714455  12.8661966  49.5526657  63.9800186  86.7906570
  50.1065178  64.2617264  86.0625610  50.1588745  63.5715141  87.4086075
  52.3090439  28.4455814  81.5898819  52.3043900  27.6243496  82.0816040
  51.4998779  28.4234428  81.0790100  11.6838093  18.5242062  12.2586908
  11.1335115  17.7526989  12.1238613  12.3099880  18.5011864  11.5350885
   4.6314640   0.6452197  58.2824020   4.9686213   0.9192317  57.4294815
   4.5036702  -0.2995730  58.1971512  11.2297144  46.9579887  53.1089554
  11.1874428  46.0279160  52.8866730  11.4043207  46.9716454  54.0499954
  25.1053925  67.7868958   8.7563763  25.0071239  68.5974426   9.2559576
  25.0199509  68.0571899   7.8421164  54.8698997  63.1204834  44.4246178
  54.0255318  62.8985634  44.0321503  54.7332573  63.0095215  45.3654938
  81.2750092   4.3719783  17.2948074  80.5832214   4.9337606  16.9454365
  81.0201263   3.4872410  17.0330696  46.0103188  36.0028305  81.9450531
  45.1828918  35.7069397  82.3245850  46.0992165  35.4947624  81.1387024
  78.3646088  49.6829948  78.4062881  77.4506531  49.9525833  78.4970703
  78.3450241  48.9875946  77.7488174  30.1968594  68.1922531  12.8235817
  30.4364204  68.9914093  13.2928238  30.3636780  68.3957520  11.9032612
  26.8984547  12.8878288  85.1048355  26.8729115  13.0069237  86.0542526
  27.0504608  13.7666264  84.7572098  68.6039581  37.1587334  38.5568314
  68.1712112  36.3051834  38.5771523  69.3730392  37.0242233  38.0030632
  68.2907104   4.4941216  79.3567734  67.5849991   5.1297555  79.4758301
  68.9116364   4.6914816  80.0580139  85.0882797  54.6753235  28.2480717
  84.9804611  54.8897972  29.1746826  84.9145660  55.4977036  27.7900925
   8.8801050   2.5144706  10.7206955   9.7990828   2.2690320  10.8277941
   8.5384130   1.8899617  10.0807991  34.6594429  36.2304268  81.5885696
  34.6019325  35.3336296  81.9182434  34.6225166  36.7769928  82.3735123
   5.0816283  65.2497711  19.2140751   5.1962333  65.1602020  20.1601582
   4.2844825  64.7560806  19.0215702  58.7751541  10.7619743  83.2411499
  57.9977150  10.2127275  83.1404266  59.3363800  10.2744122  83.8440933
  28.4876442   2.2956936  40.7121849  29.3257618   2.1210604  40.2840538
  28.1446724   3.0673726  40.2615051  24.2564163  63.9747314  58.6079330
  24.0574932  64.7839127  59.0789871  25.2058372  63.8801460  58.6846504
  53.2494698  54.7701874  30.8839455  52.3585014  54.4343452  30.7858829
  53.1440239  55.5932426  31.3611221  49.5014191  69.6832199  36.0901070
  50.4069901  69.5304031  35.8202591  49.1269379  68.8068390  36.1793022
  20.9948921  34.3958473  10.1827154  20.2933521  33.8089447   9.9005461
  20.6078510  34.9076195  10.8930120  65.4834900  71.2801056  53.7016144
  65.6824493  71.9658356  53.0641022  65.8039856  70.4749222  53.2951736
  35.2234001  70.7541199  57.4452667  35.0711288  71.5553055  56.9441147
  34.3546867  70.4951706  57.7527046  67.5874023  22.9025860  68.4840469
  67.2633667  22.6703262  67.6138229  67.2959900  22.1856575  69.0473557
  62.5100479  43.8884354  85.2695618  61.7677841  43.4161568  84.8924332
  63.1250153  43.9877014  84.5427856   1.2767073  21.4923897  47.3666954
   1.1793988  20.5457954  47.2631569   1.3368536  21.6249199  48.3127670
  27.5810966  30.0813580   3.0677445  26.7468815  30.4893246   3.2998652
  28.1593552  30.2833118   3.8033142  86.4588318   2.8947713  49.6693192
  86.0545425   3.7611947  49.6235466  86.1631317   2.5363982  50.5061951
  58.6340942  67.6213531  74.4587860  58.5995522  66.9189911  73.8093796
  58.3846092  67.1997223  75.2811050   7.5156183   5.3113599   0.9161121
   8.3035002   5.8503070   0.8453322   7.4894285   4.8166933   0.0970573
   1.4512573  28.6350861   1.3613456   1.3507439  28.0730076   0.5931019
   2.3005245  28.3895149   1.7283224  80.6904602   6.2320414  12.5003757
  80.4736710   6.7676077  11.7372217  81.2798843   6.7803960  13.0181761
  40.4097672  17.5559387  68.0155029  40.2033577  18.1989861  67.3371811
  40.6773071  18.0809822  68.7698135  30.2533245  59.0878792   8.9692488
  29.6958961  59.6508789   9.5064058  29.7995701  58.2451859   8.9548035
  72.8082962  66.3503647  38.9060173  72.1714630  66.2995605  39.6188202
  73.3062973  65.5355148  38.9712219   4.0043664  65.6657257  43.1038170
   4.7671819  65.1488419  43.3630028   3.4899585  65.0745087  42.5541992
  47.6875076  61.2804260  78.9158325  48.2019997  61.8967476  78.3946075
  47.5772629  60.5189362  78.3464355  65.8320465  32.1600418  34.0886383
  65.0670471  31.5848198  34.0773315  65.4874573  33.0214996  33.8533134
  12.5048275  19.6282825  60.8269424  12.7110891  18.6966763  60.7507935
  13.3560677  20.0547829  60.9255219  39.3978004   6.7840991  58.0601845
  38.5807343   6.2857690  58.0427933  40.0476494   6.1918607  57.6817932
  14.3037987  68.1113892  22.6187496  15.0860786  67.7135010  23.0007896
  14.6405745  68.7069931  21.9493637  76.6420059  47.0102539  12.0714483
  76.5554047  47.7990112  11.5361023  77.3738251  46.5338478  11.6794004
  78.0246124  68.8423309  33.0950012  78.6851196  68.1575394  33.1999626
  77.9152679  69.2063065  33.9735222  40.0472069  26.7044945  36.0493927
  40.0474510  27.6488590  35.8931694  40.2999763  26.6136456  36.9681358
  67.0833588  43.7420769  48.5930290  66.2746658  43.5107918  48.1361313
  67.4613724  42.9014511  48.8512650  75.0715485  12.7595425  48.4194984
  75.1034088  13.3355827  49.1833000  74.2750244  12.2430553  48.5420837
  80.8239670  27.1233349  62.4353828  81.3631973  26.4426727  62.8380699
  80.8194504  26.9051991  61.5033798  24.8224792   8.4641571  13.2182302
  25.7197990   8.6447849  12.9381866  24.7971420   7.5155764  13.3438692
  51.0980721   1.4044783   8.0751953  51.0605431   1.1676917   9.0018854
  50.1917458   1.6063027   7.8426609   0.8012795  61.4086266  58.8758316
   1.2893025  61.9091568  59.5296936  -0.1127755  61.6534767  59.0199966
   4.5923548  21.7838421  17.2949944   5.0229416  21.6794529  18.1434803
   3.7127821  22.0946712  17.5093994  67.7627792  31.1443119  76.7409897
  68.6718979  30.8823090  76.8862076  67.8232727  31.9208450  76.1846008
  29.0310135  23.7934723  73.6101379  28.8569202  24.3570900  74.3639603
  29.5944862  23.1004486  73.9542923   3.2747424  15.8919106  33.3009262
   3.3591943  16.7052422  33.7985115   2.9192564  16.1644650  32.4550095
  47.7371597   5.9612331  53.9471741  47.4799957   6.3715134  53.1214790
  48.6734238   6.1447535  54.0244217  85.1531754  40.7877274  76.3240128
  86.0704803  40.8280220  76.5944901  84.9457550  41.6801529  76.0469055
   1.0047216  56.0221786  77.2931366   1.4381431  55.5835915  78.0252686
   0.1716817  55.5606842  77.1966934  37.2750320  35.2080383  81.0797653
  36.7896919  36.0155563  80.9106674  36.7460403  34.5212212  80.6739578
  28.1546707   2.9590487  32.9642334  28.8407288   3.5895896  33.1832657
  28.6189327   2.2380290  32.5390015  76.1915588  19.1458645  74.8645020
  76.4120712  18.4557838  75.4901123  76.9335098  19.7494488  74.9023056
  82.9238968  10.4422503  85.4601669  83.2181549   9.6690483  84.9787140
  82.0011444  10.5351210  85.2232208  62.7031631   9.4428511  58.6218987
  61.9508743   9.2218237  58.0728607  62.3676071  10.0954285  59.2365341
  21.0496769  19.6184597  52.4163170  20.5104942  18.8401337  52.2758789
  20.8508358  19.8890228  53.3126945  40.0276909  51.0844574   2.8540378
  39.2378349  51.0288200   2.3162072  40.7478409  51.0765152   2.2235186
  29.7416763  11.4250870   4.9171948  29.2083740  11.5832872   4.1382265
  30.6241646  11.6939564   4.6619368  14.6689825  27.3200054  84.7236481
  13.7692957  27.6413269  84.6640778  14.6372662  26.6430378  85.3996277
  39.2356491  69.1209641  48.2900314  38.4916496  68.6491394  47.9157639
  39.9490013  68.9748535  47.6687317  43.4412842  37.2756081  12.7254038
  42.5574265  37.1560669  12.3779287  43.3093643  37.6894569  13.5783739
  68.3559570   8.9294481  32.3108673  67.9080200   8.0847893  32.2646370
  68.7698746   8.9341269  33.1739311  50.1445618  23.0886974  71.8443375
  49.3311081  23.0201092  71.3445129  50.6551323  23.7526512  71.3809662
  75.1031876   8.2205124  68.9848404  75.0641632   7.6180696  69.7276535
  75.8071518   7.8770685  68.4346466   3.9096301  19.7093964  86.9598312
   3.1849701  20.3244972  86.8469162   4.5150952  19.9194679  86.2488403
  16.0207443  48.8220177   4.6349463  15.8975868  48.5495377   5.5442424
  15.3608274  48.3303185   4.1460948  77.7504044  23.1454315   6.4610295
  77.0560684  23.6471596   6.8881083  78.3037796  22.8417835   7.1806140
  49.3298378   1.4780939  33.6652718  50.0903931   1.7334231  33.1431656
  48.9342194   0.7571039  33.1754875   3.2134197  59.1384201  83.3791428
   3.0361290  59.6101265  84.1929626   3.5051169  59.8154335  82.7685699
  78.5909119   1.4766920  33.1252594  78.1404190   0.6487710  32.9584198
  78.3339233   1.7138858  34.0162811  53.9957619   9.6557961  36.6842117
  54.5360870   9.7223806  37.4715157  53.6863747   8.7499771  36.6819534
  86.2343216  70.8012924   7.7023787  85.4468231  70.8190002   8.2462263
  86.6284485  71.6651459   7.8233976   5.9694781  59.8935738  50.1514359
   5.8925509  60.0680733  51.0894470   6.0481868  60.7600136  49.7522926
  63.6791267  11.2736406  66.6605606  64.3037872  11.8770914  66.2582169
  62.8239403  11.5734653  66.3523483  34.1550331  66.6203156  54.6372910
  34.7626114  67.1559753  54.1272430  34.3109169  65.7261276  54.3333855
  35.4911537  68.3529968  53.3708725  35.4643593  68.0636215  52.4588547
  34.6601562  68.8096619  53.5017624  55.8136902   4.6254969  71.3346329
  55.0869484   5.0607939  71.7802658  56.1743355   5.2954860  70.7538681
  64.7109909  37.3180580  77.5621490  63.8210564  37.6680946  77.6036377
  64.6319199  36.4229660  77.8919830  47.6624718   1.7241920  39.1666145
  47.1376991   1.8527639  38.3764801  48.4044342   1.1929961  38.8775558
  84.1259766  46.9909325  85.5260468  83.8434830  46.4781609  86.2833405
  83.6111755  46.6449471  84.7970047   2.7404227  31.2593231  18.3878117
   3.3625216  31.7992535  17.9002647   3.0624878  30.3646259  18.2781639
   2.3915412  23.1830082  32.4738464   1.6711826  23.4707870  33.0346451
   2.3299901  23.7418804  31.6991806  69.8453064  58.1221085  51.7749367
  69.2209854  57.4154091  51.6105499  69.3247604  58.9224281  51.7059555
  15.8168306   4.0182481  84.5227509  15.2914896   3.3323700  84.9348450
  15.1753979   4.6575031  84.2126770  78.5830765  41.2173653  20.2954597
  79.4960938  40.9830856  20.1289024  78.6289978  41.8963432  20.9685955
  17.8442764  31.7177525  25.5462475  18.4181595  32.4696312  25.6931171
  18.4270210  31.0315857  25.2209549  67.5183334  27.3343544  21.5212498
  66.9921036  26.5416470  21.6257915  68.3084488  27.1668034  22.0349369
  24.5738411  53.8198662  73.3551788  24.3316879  54.7050552  73.0830917
  24.7034435  53.3441391  72.5347366  59.5648880  68.7664185  66.7968445
  60.1294060  68.4010162  67.4780426  59.0639420  68.0175095  66.4737015
  17.8898220   5.4370108   7.7055745  18.1172657   4.8070059   7.0217648
  18.7328873   5.7283573   8.0528345   1.8199786  62.8608017  44.3748207
   1.5368270  62.0252914  44.0033646   2.7083519  62.6940804  44.6898308
  69.3533249  27.9654102  64.8130417  68.6275558  28.5712719  64.9627686
  69.7791214  28.2928715  64.0207596  44.6548996  13.0843325  48.6194992
  43.9576454  13.7366467  48.5520134  45.2794228  13.3298035  47.9368935
  36.8327827   5.3555264  23.0581303  37.5481606   4.7322974  23.1848240
  37.1846161   6.1901679  23.3676739  51.7710304  37.8430939  74.6741638
  51.9598656  38.2725716  73.8398285  50.8595047  38.0692863  74.8590775
  66.9467850  38.7021561  51.3668442  67.6167984  38.3234596  51.9359627
  66.4341888  37.9511452  51.0677528  82.7163925  31.7828407  70.6336288
  83.3834152  32.0456467  69.9994049  82.9505768  30.8851833  70.8694382
  14.1667404   6.2513571   9.9737892  13.9498968   6.9821286   9.3948383
  13.3212986   5.9510164  10.3073387  60.7416267   1.1053874  48.7181206
  60.0430145   0.5557922  48.3629913  61.5318909   0.5717236  48.6349678
  31.6542873   4.7047558  32.3408890  31.4624691   4.2196679  31.5383129
  32.0540161   5.5201221  32.0381889  56.8400955  63.1218376  82.5603943
  56.0476990  62.9930305  82.0390930  57.2778969  63.8677940  82.1503830
   3.2172184   6.8036165  33.3388138   2.8555048   6.8579559  32.4542542
   2.4830084   6.5141282  33.8804436  45.1806412  66.4283752  56.7012634
  44.6672516  66.0199051  56.0042610  45.1889763  65.7791061  57.4045486
   5.0589743  18.3826466  11.5170765   5.6218872  18.8915253  10.9336367
   4.6595058  19.0344448  12.0931120  66.7688446  49.2004128   7.6819878
  67.2279816  48.6128235   7.0818501  66.2168198  49.7386360   7.1147022
  84.5703125  39.4484215   3.6854556  85.0434341  39.1840096   4.4744244
  83.6463013  39.3694801   3.9225214  54.6201096   6.2290306  29.4172859
  55.5112762   6.2666659  29.7646160  54.6980209   6.5577779  28.5216942
  66.6284103  43.4085579  15.1686373  66.4176865  42.4850731  15.3064880
  67.2916031  43.6042862  15.8305225  62.2361259  66.4952621  16.5536442
  62.6436005  65.9382706  15.8903484  62.4407806  67.3879623  16.2753792
  37.0304527  17.2433376  16.5197945  37.6880989  16.9872055  17.1664257
  37.1509285  16.6260548  15.7982130  30.5733318  45.9090004   0.3679217
  30.3551331  45.0789108  -0.0558336  29.7438641  46.3854446   0.4027457
  62.7535172  57.1836853  82.7287292  62.9245224  56.2443886  82.6600800
  62.2462616  57.2764778  83.5351486  66.8840637  69.0419693   2.6708791
  66.0905762  69.5693817   2.7628310  67.1126709  68.7949905   3.5669656
  66.7264938  68.8401031  59.4684525  67.4615784  69.2405319  59.9327164
  65.9548416  69.1017227  59.9707756  10.2118225  58.2453613  24.9548721
   9.6446972  59.0150528  24.9081745  10.0359364  57.8702545  25.8177681
  39.0115967   6.0519676  12.2659197  39.7997322   6.5085983  11.9716969
  38.5957336   6.6609130  12.8762255   2.1348057  19.9471817  65.4562531
   1.7667587  19.5420036  66.2414932   2.6830299  19.2646961  65.0690918
  54.4539032  16.5071373  51.3550797  54.8459244  15.8700314  50.7578773
  53.6282158  16.7510395  50.9367676  17.5726776  47.2102623  81.9927597
  18.2108326  46.6862869  82.4769516  16.7290916  46.8038292  82.1912689
   5.8097711  20.6273441  23.6588249   6.7134466  20.3695755  23.4767303
   5.7207913  20.5347290  24.6073704  60.4334373  29.9774685  61.8542900
  61.0601883  30.1534462  62.5560341  59.6410484  29.6894817  62.3075142
  14.1988926  40.0947723  23.4044285  14.7597170  40.3328972  22.6661835
  14.6883354  39.4148827  23.8674908  52.4964180  59.5158997  55.3179054
  52.3468437  60.3552551  54.8827667  52.7247772  59.7498474  56.2175484
   9.4254055  70.3771133  17.6383419   9.3950844  71.2221756  18.0868778
   9.7800856  69.7725449  18.2902145  76.7605667  25.6292248  62.0146255
  77.3483124  24.8945656  62.1908607  77.3377228  26.3912716  61.9655991
  32.2435493  26.0207367   2.5334041  32.4353218  25.7817745   3.4402409
  32.6844292  26.8611736   2.4088216  40.6571312  35.8175392  10.3323107
  40.7358322  35.8988342   9.3818226  41.0511169  34.9687080  10.5335350
  52.5693932   4.1746273  34.6547699  53.1859474   4.3965335  33.9570198
  53.1041451   3.7356162  35.3162384  57.2489777  27.1571560  55.9418373
  56.7218056  26.6008205  56.5152626  57.9865799  27.4317894  56.4865837
  31.2526684  26.0285206  83.5251083  31.8238163  25.9722614  84.2911758
  31.4137459  26.9026737  83.1699448  21.1786842   2.0206819  74.9333572
  20.6086388   1.6711435  74.2484436  21.4322624   1.2545075  75.4480438
   8.4885607  24.1732712  23.4865322   9.1592617  23.5234127  23.2765865
   8.9527683  25.0102272  23.4708252  49.2923622  61.2782974  -0.1406138
  48.6770744  61.8151207   0.3588601  49.2496719  60.4165840   0.2739422
  59.4931564  60.9646568  53.7171516  59.0968781  61.4475555  52.9918938
  60.3833733  61.3111992  53.7775917   9.6161928  14.6015263  45.6565323
   9.1953402  13.7957363  45.9562302  10.1833887  14.3224697  44.9377518
  26.1544361  37.6395149  22.2003880  26.8074627  38.1431046  21.7143993
  26.6557598  37.1919785  22.8820190  63.2195854  47.0743599  38.9183922
  63.3229485  47.4071808  38.0268898  63.8786545  46.3843727  38.9943810
  64.9995575  24.9909916  47.8007202  64.7989960  24.0818806  47.5781822
  65.1189575  25.4237728  46.9553375   2.5239651  46.0542221  44.5073471
   2.8397667  46.0305557  43.6040535   1.6574687  46.4565315  44.4476738
  66.4203873  70.5362930  66.2128372  65.5717545  70.0935669  66.2198105
  66.3372803  71.2026978  65.5307617  26.0477943  10.7215033  78.3862610
  25.9468956  11.6318464  78.1081848  26.0151329  10.2176428  77.5730591
  34.0982857  58.8610458  12.2153378  34.7688103  59.5432205  12.2508774
  33.4954491  59.1531334  11.5315943  85.8701782  23.8392849  63.3104515
  84.9914932  23.5124741  63.1172256  86.4128189  23.0523357  63.3603210
  53.9562187  40.0653267  31.0275288  54.0657768  39.6319580  31.8739452
  54.8295364  40.3917542  30.8107567  58.6225357  48.8114586  41.7205696
  58.2496681  48.7486382  42.5999184  59.2986336  48.1342430  41.6981583
   1.2889513  12.6799107  11.5352144   0.9315624  13.3313570  10.9317884
   2.1854081  12.5380926  11.2311010  35.2372475   6.4786768  26.5427246
  36.0391426   5.9727883  26.4112911  35.3091164   7.2062855  25.9249439
  29.9419193  41.5920219  82.4204636  29.6944809  41.5298805  81.4978867
  30.8439236  41.9120140  82.4054871   4.1639738  51.5629387   2.8392310
   3.3547421  51.4294891   3.3327560   4.2731285  52.5134659   2.8106985
  59.4759560  30.6751862  50.0003853  59.1867867  31.4728355  49.5572548
  59.6307373  30.0503292  49.2919884  22.5177555  69.1104507  45.1910248
  23.3983746  69.0092850  44.8297691  21.9415588  69.0894012  44.4269638
  48.3546486  53.3306923  80.5355301  48.3458710  52.4046669  80.7776642
  49.0491714  53.4004211  79.8805466  26.0361862   1.9730202  35.3285561
  25.5796776   2.2300177  34.5274429  25.4126186   2.1604102  36.0301819
  19.9927559  63.4862518  61.2038307  19.3963470  63.5647125  60.4592705
  20.4887104  62.6861877  61.0301666   6.8628268  43.2560921  77.9991760
   6.1563177  43.7680740  78.3928146   7.5674767  43.8885574  77.8588638
  63.5903931  24.3876495  78.1476440  64.1881485  24.9829674  77.6954041
  62.7336769  24.8085804  78.0763168  15.2154179  62.9438515   3.6660676
  15.3363094  63.0749130   4.6065145  15.6289845  62.0994263   3.4868040
  77.8278427   3.5647550  84.2907410  77.8699341   2.9695454  83.5422897
  76.9300995   3.8967655  84.2825317  54.2687149   8.7182045  39.8667450
  53.6160316   9.3116198  40.2383575  54.8081207   9.2760801  39.3063431
  67.0801926   0.9723605  83.1838913  67.6726074   0.3570753  82.7518082
  67.5536957   1.8042254  83.1791229  65.7279358   3.0623758  17.2707272
  65.3523560   3.2951012  18.1198502  65.1724167   3.5097623  16.6323929
  44.7862854  40.3178177  31.9543476  45.6116066  40.8026657  31.9541168
  44.2575188  40.7453651  32.6280251  72.4190598  27.1045113  83.0722351
  71.5109634  26.8053455  83.0264206  72.4852142  27.7742767  82.3916016
   1.1002127   3.2105491  84.7510071   1.3254324   3.8962231  84.1222305
   0.2949414   3.5206048  85.1652908  47.5612221  31.7499809   3.3222013
  47.4420891  30.8008804   3.3575022  46.8265648  32.0641479   2.7951272
   3.7039161  18.2705860   5.2240825   4.1782794  18.5886974   5.9922075
   4.3863606  18.0992184   4.5751343  73.0288086  10.9330091  48.5964928
  73.2957840  10.4294090  49.3654785  72.1760635  10.5702143  48.3568230
  22.8632412  50.4706421  47.9689369  23.0646954  50.6507111  47.0506668
  23.4282131  49.7326431  48.1978302  26.0374012  65.4268646  71.2291565
  25.3293495  64.7991409  71.3735733  26.7313557  64.9140091  70.8148575
  27.2317276  18.3030930  15.5927162  27.4894924  18.6479073  16.4476395
  27.2049274  19.0715809  15.0226803   6.4525580  43.3066330  41.0029945
   6.1233258  43.6178398  40.1597939   6.5288892  42.3585930  40.8951797
  30.5868149  64.2392960  56.8570709  30.4570427  63.4386253  56.3488235
  31.5010242  64.4763336  56.7013016  39.5785904   9.6074219  37.1365891
  38.8993721   9.8987217  37.7448921  39.1204491   9.0326986  36.5233727
  60.5264587  50.5438652  23.6659737  60.7988205  51.0345993  22.8905830
  60.7084045  51.1328011  24.3982849   0.5298538  37.9385490   0.0345286
   0.1227031  37.0843391   0.1786982  -0.1639194  38.5698204   0.2253331
  13.4443741  47.7268944  20.3722172  14.0184412  47.1005554  20.8131008
  12.5898352  47.2960587  20.3528309  43.1570053  48.1107521  83.5164032
  43.4217987  47.1936913  83.4448700  42.3780479  48.0924606  84.0723953
   4.9565291  11.0291777  46.4576530   5.7530875  11.2519026  45.9758644
   5.1779838  11.1914120  47.3746414  46.0902557  20.3664150  17.0334854
  46.7657928  20.7593651  16.4807892  45.3099747  20.3451557  16.4794655
  73.8734131  33.9749908  14.7703180  73.0085983  34.2807503  15.0438938
  74.4836502  34.4365845  15.3454494  59.7678223  14.2366714  43.0882874
  60.5709877  13.7875376  42.8247833  60.0676804  15.0691605  43.4533615
  54.1001587  35.7629242  26.9271126  53.5865479  34.9615059  27.0279503
  53.8554344  36.0972595  26.0642338  62.2067108  38.4384880  78.1408081
  61.9612656  39.2347298  78.6119614  62.0497322  37.7316818  78.7669144
  68.4405899  31.9351578  16.5492802  68.9803696  31.5603294  17.2452450
  68.9943695  31.8964310  15.7694988  33.3672142  65.8677673  41.5963707
  32.6155739  66.2995758  41.1903992  34.0092506  65.7908859  40.8906059
  24.1472740  31.2935104   6.4071627  24.9927979  30.8485756   6.4650564
  23.5412579  30.7178459   6.8736267  86.7601852  61.1862259   2.3621509
  85.8432541  60.9137344   2.3970351  86.8382187  61.6589127   1.5334703
   2.7891150  51.9145546  64.3313446   3.0164907  51.8653755  63.4028473
   2.0298412  51.3389091  64.4228210  67.4357452  69.8774796  68.6652679
  68.1524963  70.4519958  68.9343872  67.2795029  70.1029282  67.7482147
   2.5583806   4.6146755  74.3930588   2.3766923   3.6949468  74.5862427
   2.2965274   4.7236485  73.4788437   4.0204430  31.8365192  51.8607597
   3.2144594  32.3513489  51.8211174   4.6714897  32.4382362  52.2217407
  37.0282784  66.0092926   9.9288826  37.7666130  66.4970703   9.5639648
  37.2951736  65.0918884   9.8708563  58.7526703  45.9694138  30.6454830
  59.4939346  46.4349136  30.2580948  59.1508980  45.3598480  31.2668304
  38.6364517  24.1480389  68.1221924  37.7577438  24.5083504  68.2416916
  38.8951645  23.8531265  68.9953079  28.7756443  56.6192398   8.5151634
  28.0748520  56.0024757   8.3036871  29.3402634  56.1411591   9.1225166
  61.3855247  63.6670341  22.8906631  61.0992584  63.7771378  21.9839306
  60.5756340  63.6795731  23.4007187   8.9614096  19.3669777  11.9822826
   8.6034718  19.1607304  12.8457489   9.9099741  19.3693218  12.1105442
  54.0638199  10.6257153  14.3221464  54.5547905  11.2368441  14.8714237
  54.2255135   9.7678280  14.7147236  16.4550381  62.5125389  35.3034706
  16.1340256  62.0369186  36.0696068  16.9866619  61.8727989  34.8298225
  73.5623550   1.3285580  32.7132187  73.8798599   0.5143676  32.3226814
  73.9997482   1.3728558  33.5634918  34.7185249   3.6417651  72.6319733
  35.4305229   3.8256044  73.2447510  34.0530968   3.2035778  73.1624680
  55.6864777  -0.3178757  88.0529556  56.5426140  -0.1184008  87.6741867
  55.3451691   0.5311339  88.3338928   5.8473706   5.7077522  24.4348621
   5.1122794   5.2479143  24.0293732   5.9980559   6.4646993  23.8686848
  56.1199760  67.3609467  13.6942711  56.6824646  67.3825378  12.9200792
  55.3295937  67.8313751  13.4292688  49.8497696   6.8904071  15.4023743
  50.4803963   7.5620546  15.1426945  49.0654182   7.0875535  14.8903618
  19.7127819  26.8587742  24.7536106  20.1253815  27.7091560  24.6024590
  19.7269669  26.7513371  25.7046566   3.5670695  58.5537605  49.3885536
   2.8826528  59.0403557  48.9291725   4.0834012  59.2270889  49.8315659
  43.7883224  11.4115629  85.6051178  44.4322701  12.0887375  85.8124695
  42.9961700  11.6845779  86.0679245  17.6789112  13.7796850   9.4217777
  17.9840412  14.6758165   9.2800913  17.8335915  13.6183405  10.3525162
  33.4258842  53.5131607  67.2552414  34.3640404  53.6885948  67.1823425
  33.3525543  52.5626717  67.1690826  74.9456635  35.7587433  75.4890442
  74.8822250  34.8915634  75.0887909  75.8766174  35.8646240  75.6848755
  24.1651363  28.1476021  28.1667938  23.7297020  27.6462955  27.4773598
  25.0600204  28.2657089  27.8482571   5.4475932  51.0985794  40.1904755
   5.3208108  50.6944542  39.3320808   5.5797601  50.3605347  40.7854996
  64.7941132  22.4403057  58.0895348  64.7756882  23.3770485  57.8935623
  63.9377480  22.1195526  57.8067131  41.3961639  61.0106659  62.3351860
  41.1400719  61.2286835  61.4390182  41.9490547  60.2346077  62.2442169
  46.2809792   7.3276396   8.6099977  46.5645142   6.4496326   8.3551579
  46.7718086   7.9142861   8.0345268  13.8184872  23.4516563  22.1835251
  14.4641266  23.5862465  22.8772602  14.1936579  23.8888111  21.4190807
  46.2205887  65.7688751  66.9986725  45.3788528  65.9651947  66.5873718
  46.1440125  66.1262131  67.8833618  75.2033539  40.1276436  25.0486717
  75.7800827  39.4756126  24.6505966  75.4668808  40.9564514  24.6488438
  73.1014099  40.7597733  37.5674133  73.2212372  39.8640060  37.2520256
  73.7429123  41.2740822  37.0773163  31.5980854  55.7324104  44.7331619
  31.1544819  55.1710968  44.0972557  30.9573917  55.8532410  45.4339752
   8.6450768  25.2244587  78.6380234   8.6942816  25.8799763  77.9422455
   9.4606390  25.3327866  79.1272659  14.9577579  59.8590813  57.4425697
  14.0990868  60.2636642  57.3191605  15.0366106  59.7488060  58.3901215
  30.5712662  70.2617493  19.6437759  30.0843391  70.7562332  18.9845200
  31.4170952  70.7062912  19.7002392  35.9597015  60.1556473  69.8014679
  35.6482887  59.2559738  69.7022629  35.2500877  60.6055298  70.2600403
  17.8798733  58.8757362  85.2312317  17.9141941  59.7425919  85.6357269
  18.3325310  58.3040085  85.8512878  22.3229752  37.7272911  29.3599281
  21.7612476  38.2619743  28.7988491  23.1499310  38.2077980  29.3985252
  53.7050476  59.1141472  69.5826569  53.7087212  59.9804382  69.9897919
  54.6106339  58.8123093  69.6536331  79.4112778  23.4158688  36.1797485
  79.7903595  23.8670998  35.4254799  78.8658752  22.7280350  35.7981071
  18.3304310   0.2781467  35.1015778  17.4545174   0.4403159  35.4518776
  18.2561417  -0.5629567  34.6507378  10.2317152  69.4282227  34.5344467
   9.3185101  69.4860306  34.2534714  10.7024498  70.0132217  33.9408035
  21.8206692  19.0285568  71.2379227  22.2225380  19.6909542  70.6758194
  20.9392796  19.3611336  71.4075623  81.7126083  36.7898331   3.5569053
  82.0016785  36.0869904   4.1388721  82.1840591  36.6325493   2.7388411
  20.7833138  30.5377445  18.4259357  21.4533386  30.6542797  17.7523499
  21.0923367  29.7954197  18.9452553  29.2974205  48.7233734  72.9456863
  29.8421345  49.4098778  72.5606842  28.4583530  49.1510963  73.1167068
  25.5475006  22.7502193  20.6868038  25.4143848  21.8052101  20.7607517
  26.2391720  22.9448776  21.3192043  78.5905380  30.0482788  14.8175936
  78.9098282  29.7848148  13.9545355  78.9915466  29.4238758  15.4221973
  11.5271654  67.7377472  43.4955254  11.1841869  66.8796768  43.2458954
  12.4345865  67.7308350  43.1909409  71.9206924  43.1912117  21.4352875
  71.0287170  42.8553352  21.3470154  71.8115005  44.0653954  21.8096046
   7.6410093  43.3650169   1.5337106   6.9333644  42.8672066   1.1242518
   8.3276682  43.3973351   0.8676128  76.4781952   9.8137197  40.5935326
  76.7472458   8.8951368  40.5864410  75.6968384   9.8387060  40.0411797
  65.9598999   5.6948953  36.3554230  65.5656357   5.2231317  35.6217842
  65.2262573   5.8844666  36.9402885  15.4314547  71.1373749  68.9566269
  16.0264320  71.5861359  69.5573349  15.6279087  70.2080231  69.0746765
  10.4127378  57.1112442  39.8755836  10.3837605  57.9866333  40.2617035
  10.4712257  57.2670593  38.9329643   6.1459951  23.4026375  21.7799282
   6.0079250  23.2791157  22.7190304   6.7157159  24.1695194  21.7204323
  20.5369415  65.8166046  62.8198509  20.4460850  64.9704132  62.3817444
  21.3789387  65.7630463  63.2719650  66.5494919  39.5499611  62.7697182
  66.7826691  40.3871231  62.3684502  66.1552353  39.7881165  63.6088142
  64.5566025  66.7971115  49.8586884  64.3593750  65.9154205  50.1748314
  64.8796082  66.6652756  48.9673309  82.2992172  50.3740730   8.3235855
  81.3656693  50.4884415   8.5014362  82.6220703  49.8570747   9.0616341
  63.0585976  27.0951786  70.8273468  63.2559204  27.9483891  70.4409180
  62.1207123  27.1286926  71.0157089  63.3789864  14.8504009  38.2784958
  63.2114792  15.4663839  37.5652390  63.6468010  14.0429554  37.8397064
  41.1483307  36.9578705  89.4566422  41.0735931  37.5321922  88.6945419
  40.9854088  36.0799255  89.1118240  36.4761047  39.4884453  77.6075516
  36.7713165  39.0368881  76.8168640  35.5216217  39.4973259  77.5360565
  32.4966202  37.7737389   0.9049307  31.8170567  37.3056793   1.3900533
  32.9756813  37.0871162   0.4409458  76.7562790   8.0896254  78.1258087
  77.0481491   8.0730753  79.0372772  77.2253647   8.8281250  77.7374725
  38.7645760  27.0084953   4.0241251  38.1458588  26.3044415   3.8298879
  39.5735817  26.7439938   3.5862005  70.4875717  53.9626999  68.7732162
  70.9805679  53.2034492  68.4622116  70.3418427  53.7890892  69.7031937
  74.7435837  15.4092398  88.0150146  73.9617310  15.8691025  88.3207474
  75.3915939  15.5540771  88.7044601  25.0357075  40.9854889   4.0900640
  24.9123878  41.8161316   4.5494695  24.8810120  41.1958427   3.1691661
   0.2356395   1.5249157  58.7311783  -0.0825130   1.9466764  57.9329758
   0.8210907   2.1709008  59.1263771  41.3490219  69.8997421  87.8620148
  41.8999786  69.1857452  88.1827698  41.8548164  70.6921387  88.0423431
  80.2270126   2.9326096   1.5423927  80.3776550   2.1282301   1.0458931
  80.7684860   3.5893257   1.1044896   9.5647383  63.7005730  48.6771088
   9.9302177  63.0739403  49.3015976   9.6100788  63.2516022  47.8329506
  63.6878967   4.8652573  70.8436508  64.2430878   4.9422951  71.6195755
  64.2214279   5.2178354  70.1314240  68.6880341  60.8188896   8.5928936
  67.9742889  61.2773323   9.0363235  68.7006683  59.9500809   8.9944429
  15.5413942  58.7321167   1.9259205  14.9354401  58.7370605   1.1849567
  16.3980579  58.9060631   1.5359178   9.4840097  22.5136089  11.6859560
   9.1422234  21.6522560  11.4461956   9.1517601  23.1006489  11.0068197
  13.5044270  12.2883368  42.7607307  12.8224010  11.6718273  42.4942932
  14.1691856  11.7430105  43.1813812  21.7913265  13.1222658  50.4279938
  22.3706932  13.8832588  50.3898315  21.1433735  13.3477783  51.0954742
  13.2310772  68.1834183  60.9533157  14.0239878  67.9795303  61.4492531
  13.1909857  69.1397629  60.9483032  30.2125301  30.7925510  25.6223030
  29.7888775  30.1992874  25.0019875  30.8915443  31.2306080  25.1091957
  40.3550797   6.8334517  21.5138054  40.0886345   7.0564446  22.4057198
  41.2362251   6.4721980  21.6103096  81.7494659  65.2402039  87.0102921
  82.2193832  64.7909317  86.3077469  81.0158157  65.6702347  86.5709076
  32.6865807  58.8933372   9.7591648  33.1737556  58.6669312   8.9669313
  31.7681370  58.8693504   9.4906187  39.5990143  32.8770905  79.1786346
  38.7040062  33.1709061  79.0087280  39.5244026  32.3158150  79.9504013
  25.4592838  59.0731049  38.3498344  24.6976471  58.8436737  37.8173866
  25.0907421  59.4966965  39.1250610  49.5347137   9.6950083  47.5787697
  49.2696075  10.6142778  47.6086693  50.2690849   9.6773596  46.9650726
  56.1792908  57.6906624   7.7885361  56.5475845  57.4012566   8.6233044
  56.0497780  58.6327629   7.8976531  30.7809048  13.6000271  31.2338810
  30.3892651  13.6866827  32.1029854  31.1798496  12.7299299  31.2366199
  71.1418457  67.3333282  77.5725174  70.6224289  67.5299072  78.3521271
  72.0447159  67.5131607  77.8346481  12.8397713  55.8798637  14.7791033
  12.4227448  55.5074158  15.5560217  13.3356934  55.1532364  14.4018698
   9.3922691  26.6960430  28.9269333  10.2706947  26.3845978  28.7087517
   9.5391779  27.5150509  29.4000874  66.8263092  18.1662579  82.8403625
  66.1779251  18.3955498  82.1745911  67.3925705  18.9358196  82.8982697
   5.4524288  39.7803726  56.7588310   4.6398649  39.6076736  56.2832832
   5.1807895  40.2970581  57.5174370  82.8427429  44.4488869  18.3430309
  83.4725876  45.1369858  18.5576191  82.1271896  44.5764427  18.9658852
  67.1520615  56.2794495   5.4643769  68.0993195  56.1961975   5.3547883
  67.0087509  56.1658211   6.4039416   3.1606128  55.0712166  26.0961494
   3.7836537  54.4213753  25.7709446   2.3323650  54.8404541  25.6754532
  63.1600304  55.9825821  57.0026321  63.0262260  56.8922615  56.7365227
  62.9505386  55.9729538  57.9365807  43.3956108  14.8323002  79.9408798
  42.7962303  14.3945827  80.5453415  43.0485420  14.6311455  79.0717926
  48.4322128  11.7671652  30.1808472  47.5135841  11.9593763  30.3690224
  48.5525475  10.8635893  30.4729118  39.7742271  51.5937729  84.9746323
  39.7682877  51.5548363  84.0182419  39.2209091  50.8619423  85.2475739
   3.8283985  39.7968826  12.3322840   3.0671449  40.0636330  11.8169498
   3.4575546  39.3570862  13.0973234  67.4861832  11.7327929  32.0953331
  67.7283936  10.8069611  32.0753365  67.5158005  11.9681387  33.0226784
  23.8505802   2.4358082   0.1210116  24.6046543   2.7634552   0.6111665
  23.0923023   2.7080884   0.6378385  73.6946564  14.5171108  79.3652191
  73.9592819  13.6005154  79.4430618  73.6737671  14.8377733  80.2668686
  39.5920029  58.7632332  65.0404739  40.0170975  59.6119728  65.1636505
  38.7084923  58.8851891  65.3879852  67.2878799  59.9655724  60.2631721
  67.9811249  59.8909569  59.6073723  66.7976608  59.1469040  60.1876984
  31.5908623  26.7174816  27.4187660  32.2506065  27.1130562  27.9884033
  31.9950485  25.9059410  27.1117363  36.3453140   5.0038486  19.0930367
  36.5109558   5.7152505  19.7116661  35.4016266   4.8533635  19.1481705
  59.2491684   0.9367692  16.8363361  59.6390495   0.0664565  16.7540016
  59.0672989   1.0302542  17.7714386  58.6538506  62.1319122  78.5386429
  58.6919212  61.7803001  79.4281082  58.6696510  61.3587341  77.9745712
  53.7943840  13.7102165  44.1270256  54.2903938  13.7602863  43.3098946
  54.2257080  14.3370066  44.7078209  56.1131210   6.3344445  65.3392715
  56.4735909   6.9979029  65.9275818  55.7168503   5.6870608  65.9224472
  82.9734573  37.1999397   0.9740032  82.9306107  38.1221161   0.7210499
  82.4666519  36.7435570   0.3023689  52.1480331  61.6928711  49.2398186
  52.8385887  61.8673744  49.8792839  51.9138145  62.5560112  48.8986931
  79.3760376   0.7590989  54.1761551  78.7194824   0.4168264  54.7827988
  79.3554001   1.7066011  54.3104897  32.3716431  66.9420319  36.3676796
  31.5850029  67.4464645  36.1603661  33.0930328  67.5559235  36.2299767
  78.3188934  12.7474346  84.6885376  78.8351822  12.5363607  85.4664383
  77.4232025  12.8396168  85.0132904  50.8437347   9.8284245  88.8032684
  50.2690468  10.5697489  88.9940567  50.3031921   9.2340450  88.2829208
  48.9903946  70.8596039  38.6111755  48.8025665  70.3267136  37.8385315
  49.9134369  71.0961914  38.5203323  79.2932587  60.2871056  85.4266663
  80.1690674  59.9340439  85.2700348  78.8282242  60.1489677  84.6015015
  83.5539398  34.0334244  36.7860718  83.8372345  33.8655052  35.8873100
  83.0691833  33.2465935  37.0353661  48.1577034  65.8054123  77.2169266
  47.7354660  65.9662781  76.3730850  48.9323349  66.3676376  77.2081909
  43.4713478  22.9532242  78.0762253  43.1360283  22.0726585  77.9077148
  42.7626762  23.5357418  77.8029327  68.7843933   6.8910995  39.0094490
  69.4516602   6.9426212  39.6938019  68.0821533   6.3697472  39.3983955
  71.8079376  43.1794586  11.8792810  72.7298889  43.2013283  12.1357250
  71.7585144  43.7524223  11.1140995  83.2584686  50.7741432  48.0345078
  82.9359207  51.1845284  47.2321510  83.9130325  51.3865242  48.3703232
  66.2401428  22.9839096   3.2636249  66.9829102  22.6896248   3.7908144
  66.1583328  22.3236408   2.5754499  17.4685802  50.1545410  50.7126541
  16.9090538  49.4958649  50.3011894  17.2581749  50.0990448  51.6447906
  59.5961418  36.6621513  55.8070984  59.7515602  36.6497803  56.7515144
  59.0096283  35.9219322  55.6511688  85.8618698  15.0001869  45.1164818
  85.2883453  15.5076895  44.5422401  86.1332016  14.2525101  44.5839462
  74.0784531  33.2488861  42.6589508  73.2683640  33.4469719  42.1891022
  74.7740479  33.5515671  42.0751991  44.5299950  23.7315273  86.2381897
  44.6032944  23.7836914  85.2852249  45.2303200  23.1338024  86.4999161
  19.1263790  23.2086639  63.2774200  18.3413105  22.6859646  63.4407768
  18.9190617  24.0711002  63.6372185  43.2148705  17.6903915   9.7132511
  42.6117210  17.0866528  10.1467705  42.7708282  18.5377064   9.7466297
  26.3143406  52.0580597  64.4675903  25.8277893  52.8587685  64.2717133
  25.7703819  51.3545647  64.1134186  81.4882278  13.1470747  23.9608917
  82.2818298  13.0838451  24.4923344  81.7530212  13.6559486  23.1946259
  65.1155319  54.2873764  12.0578098  65.7568817  53.6580772  12.3877878
  64.5516663  54.4710121  12.8091822  10.9644985   5.5493779  87.7033005
  11.3961611   6.0805964  87.0341873  11.4661942   5.7154021  88.5014038
  78.3583984  64.4497604  35.0819778  78.6185455  65.3693619  35.1356964
  78.8749008  64.0966568  34.3575630  27.1098232   5.9914722  43.1092567
  27.8532047   5.4667916  42.8120613  26.3401947   5.5088310  42.8076591
  70.8370895  63.3448410  69.9324036  70.7149200  64.2934875  69.9695892
  70.9350967  63.0799408  70.8469849  15.6186066  27.8184204  77.6194763
  16.3858471  27.2942581  77.3896332  15.3195114  27.4529247  78.4520569
  39.1460114  69.2262115  21.6044102  40.0543213  68.9530411  21.7331772
  39.2000351  69.9520721  20.9827652  72.6576614  49.0045929  80.0271606
  71.7741547  49.3188591  79.8350906  72.7562180  49.1290779  80.9710999
   9.9701061  14.9202881  48.8480911  10.3957844  15.2933168  48.0761604
   9.0504656  14.8348970  48.5966911  72.8824921  46.5926361  53.9548721
  72.7603531  46.1110458  53.1367111  73.0278091  45.9132347  54.6133041
  65.4685669  63.2608032  63.8078308  66.3650665  63.5961914  63.8128433
  65.5558853  62.3479385  63.5334473  60.7457619   8.5963650  66.0462265
  61.5589142   8.1025991  66.1520767  60.9175110   9.1861515  65.3121414
  66.3918915  16.1925087  58.1213760  66.4782944  15.5039616  58.7806702
  66.6386871  16.9956055  58.5800285  13.4551439  52.2836304  52.3839149
  13.0834274  53.1588783  52.2743645  13.2424984  52.0442886  53.2859840
  44.5163765  10.0800371  43.9823799  45.4723625  10.0750360  44.0303078
  44.3095665   9.4847279  43.2619171  51.4220009  46.8248825  66.3024521
  51.4073753  46.3022728  65.5006409  52.3485298  46.8779678  66.5368805
  67.1315994  47.7939758  73.8277969  66.3375092  48.3179550  73.9331741
  66.8528366  46.8969612  74.0118942  68.7655411  58.6079216  54.3096924
  69.1745224  58.4103432  53.4671211  69.4352264  58.3899651  54.9579620
  26.0533619  67.0410233  13.2663240  26.1971493  66.5645676  14.0839720
  25.5948944  66.4174118  12.7031679  49.8319359  15.6608315  17.9947128
  49.5410194  15.8120012  18.8940163  49.0416031  15.3849735  17.5304852
  32.3109093  40.1328964  21.8498688  32.9391708  39.4218636  21.7235699
  32.1953468  40.1846924  22.7986546   2.8124123  31.9422913  21.9792614
   3.7055767  31.6014862  22.0276375   2.2928352  31.2071400  21.6539574
  47.8249435   8.6022511  88.2488251  47.0472031   8.8648205  87.7564850
  48.0870819   9.3921604  88.7216492  54.8708344  14.3012285  16.4236069
  55.3096466  14.4609261  17.2591743  54.9454994  15.1305561  15.9515133
  50.0519981  11.9944124  68.7739410  49.8026352  12.9016151  68.5977783
  49.4081573  11.4718742  68.2957611  84.3370819  54.2702599  39.5655136
  83.6890793  53.6585159  39.9149246  84.4878387  54.8920059  40.2775040
  37.0471840  21.5136967  79.6226501  36.2276115  22.0010109  79.7066879
  37.2562332  21.2407761  80.5159836  58.3851967  31.6455688   4.6453099
  57.5283661  31.3650913   4.3237472  58.6645737  30.9402714   5.2290349
  86.2563171  21.7264767  17.6597290  86.3240967  20.9626160  17.0868816
  85.3453217  22.0082359  17.5764313  11.5481501  11.3499584  69.6666031
  11.2811909  10.5778065  69.1678619  12.4985905  11.3874950  69.5594330
  79.9445114  66.6461411  75.3981247  79.2463303  66.3895721  74.7956696
  79.4866257  66.9179077  76.1935577  66.0455246   9.9785643  58.0509377
  66.9789658  10.1232567  57.8960915  65.6642532  10.8565493  58.0535431
   2.3844082  50.8307419  14.9550905   1.7193172  50.1715889  15.1535883
   3.2149415  50.4038696  15.1653872  66.4104462  51.3953056  83.2028503
  66.0425873  52.2535248  83.4134903  67.2158127  51.5909157  82.7239456
  13.5740728  11.5950413  86.9100189  13.0755634  12.1529341  87.5070724
  14.4876261  11.8359518  87.0636902  15.3047304  46.0008812  33.3960037
  15.4850559  46.1331558  34.3267136  14.6633854  46.6771240  33.1778259
  46.3579330   9.6431799  10.9940987  46.3169060   9.1808472  10.1569624
  45.4424782   9.7941418  11.2294512  78.5178299  33.3691444  18.0477314
  78.3653488  33.0360641  17.1634007  79.0383072  32.6880875  18.4737530
   9.0641413  21.5452156  26.3641224   9.7999611  21.0427151  26.7138271
   9.3251963  22.4596462  26.4732170  11.6461811  62.0072975  30.1968803
  11.2071581  61.2879028  29.7430534  12.2796793  61.5770836  30.7711868
  38.4121552  42.0801849   4.3536763  38.1291885  41.1759644   4.4898477
  38.4073753  42.4670715   5.2291913   7.8901854  40.9071159  86.2257767
   7.4263477  40.3000336  86.8024368   7.4664464  41.7520180  86.3768463
  76.8519516  41.0738335  74.0178375  76.0564728  40.6629829  73.6792450
  76.7149429  42.0110397  73.8796082   7.4024978  45.5391617  12.6671772
   6.9491334  45.5725517  13.5095415   8.3221588  45.4035492  12.8953552
  40.5297127  56.2828026  81.2849197  41.2193146  55.6194725  81.2589874
  39.8594360  55.9092331  81.8571091  83.1285706  31.4117432  37.9994354
  83.8094101  30.7556953  38.1487274  82.6426926  31.4444847  38.8235016
  31.7546711  12.7932730  40.4981308  31.7067986  12.8452187  41.4527206
  31.2474728  12.0127649  40.2750015  45.4770813  64.9481888  10.0172749
  45.2064323  64.0788040   9.7220545  44.7306290  65.5125961   9.8160658
   6.5191665   0.6645693  74.1606369   5.7771659   0.1538529  73.8368530
   7.1519289   0.0086507  74.4532318  77.3579941  11.7748919  60.1028175
  77.2051468  11.1455173  59.3980103  77.5943680  11.2361746  60.8578987
  75.8062668  25.3824844  47.2796860  76.1230316  26.2023907  47.6586914
  75.7379150  25.5626812  46.3420906  13.0382109  54.3142815  84.5417099
  13.1212406  53.4524193  84.9497986  12.5943451  54.8491440  85.1998444
   8.7484827  11.9411449  34.2128677   7.9193974  11.8509359  34.6826668
   8.8176889  11.1402636  33.6932220  39.5806694  66.4540100  16.2951660
  38.9561348  65.7398911  16.4225178  40.1748848  66.3886948  17.0427456
  61.1076012  68.8668060  74.1082458  61.5650597  68.2337112  74.6615601
  60.2149506  68.5273666  74.0435257  24.0115280  21.1902103  27.5677757
  24.9604626  21.1850567  27.6931992  23.6573563  20.8974590  28.4074726
  20.9156609  59.8645859  87.9453354  20.2973995  60.2581406  88.5610428
  21.7778606  60.0879135  88.2960052   3.7438369  29.0916500  45.2046356
   4.3690476  28.3866844  45.0362053   4.0934525  29.5434189  45.9726906
  49.4545288  49.1815376  15.1478376  49.7806702  48.3650475  14.7694082
  48.6588821  49.3743858  14.6518631  55.5183411  53.9201508  36.5626564
  54.6250648  53.6203575  36.3941078  55.8998260  53.2377052  37.1149025
  30.0466461  18.6999760  19.4368954  29.5776691  18.0649395  18.8955803
  30.4919624  18.1691666  20.0973244  32.1806068  42.9562492  81.9713593
  32.6750526  43.4646187  82.6142578  32.4637871  43.3008842  81.1244431
  17.7970047   5.6702538  45.4884605  18.0638676   5.9182220  46.3736343
  18.5745125   5.8244419  44.9518623  34.0185013  71.3347397  24.8005199
  34.4365005  70.6348038  24.2989159  34.7471809  71.8563004  25.1370201
  56.0050316  56.2402954  70.1760635  55.3481979  56.2876930  70.8707199
  56.8373489  56.1466026  70.6394196  17.2309227   5.5060797  14.2083817
  16.5286560   5.7793131  14.7986336  16.9530544   5.8153658  13.3461971
  80.3941345  13.6728115  39.5589180  80.4089203  12.9774332  38.9012985
  79.6046371  13.5005102  40.0719833   6.7692747  66.3613510  40.9358788
   6.0068288  66.1865005  40.3842125   6.7661266  67.3111343  41.0547791
  84.3432007   3.8703494  18.1458168  85.1716690   4.1989746  18.4949360
  83.7009277   4.5389481  18.3839111  86.3939133  21.1861477  38.6016121
  86.2963562  20.2448902  38.7456436  86.4972687  21.5533428  39.4795151
  51.3275833  58.2082291  79.0150681  51.3754807  57.7064781  79.8288116
  52.1846352  58.6281395  78.9418030  82.7183762  55.3242531  69.1351929
  83.2508926  56.0804901  69.3816757  82.0434952  55.6839523  68.5595322
  58.0659676   8.5325785  69.4838333  57.7263222   8.7545319  70.3507919
  57.3633537   8.7771034  68.8815308  40.7957230  69.5206680  83.9845047
  41.6286163  69.0491638  83.9988480  40.2566185  69.0744629  84.6375732
  39.2679939  55.3835602  53.8981056  40.1809616  55.4190636  53.6126938
  38.9639435  54.5191879  53.6212654  65.3536682  59.0475693  76.1942596
  66.1834717  59.4839706  76.0013657  65.4836960  58.1455650  75.9014816
  65.6654739  18.0596581  66.3679886  66.0698013  18.4617710  67.1367950
  65.7605133  17.1181736  66.5122375  77.1927567  50.0040588  13.1457453
  77.1697693  50.3529968  14.0367813  76.6126785  49.2430878  13.1714869
  11.9055023  33.4558334  82.8333435  11.1972342  33.1572266  82.2628860
  11.4804058  34.0495377  83.4522476  61.6398239  63.9845123  43.6903458
  62.5318260  64.0960007  43.3615074  61.1858635  64.7852020  43.4275856
   5.9873967  63.9748840   1.7211188   6.5690331  64.4308701   1.1128337
   6.4846244  63.2045326   1.9959872  22.2445698  57.7004967  52.0450478
  21.8386707  58.5100555  52.3550339  23.1523819  57.9425621  51.8619804
  25.4775066   3.8509986  80.8795013  25.0536041   4.0764732  80.0514297
  26.3868294   3.6700032  80.6415863  84.3753662  10.9206781  77.2701874
  84.5748978  11.8078146  77.5691986  84.2368469  11.0111723  76.3274002
  19.2933140  19.9915142  28.8956604  19.6153851  19.8311253  28.0086555
  19.7317791  19.3315182  29.4326744  74.8601913  56.8614120  50.3917198
  74.4891129  56.0145264  50.1440926  74.3036041  57.5044403  49.9524498
  58.5069122   1.6805066  68.3165741  57.6283607   1.7527616  67.9435272
  58.9096603   2.5322549  68.1476059  45.5334244  34.7154465  74.8173141
  45.8764763  33.8261948  74.7291489  46.1811714  35.1697273  75.3560944
  79.4771118  16.6736183  52.4260445  79.6422653  16.1311989  53.1972351
  78.5544205  16.5231571  52.2205391  15.4793644  67.3173828  83.8402557
  16.2512722  66.9883270  84.3008194  15.5772123  66.9914246  82.9456024
  40.1537590   0.7303731  35.8053055  40.6323509   1.0527767  36.5690041
  39.4877510   1.3978817  35.6406822  78.0501022  60.5340080  33.8331375
  78.7493286  60.0230141  34.2408066  78.4660492  61.3629723  33.5964127
  35.8407516  10.7630625  33.0136414  36.6554222  10.9170647  32.5352859
  36.0580139  10.9572077  33.9254189  25.0612297  58.4728394  60.7715416
  24.3722954  58.4358864  60.1080399  24.5945435  58.4119148  61.6050415
  64.6341858  20.5062981  83.4780426  64.7187500  20.2491646  82.5599136
  63.6912537  20.5002785  83.6425858  69.2838287  37.3146973  55.5789604
  68.8753128  37.0202370  54.7649345  69.7557602  38.1111374  55.3356590
  24.6965237  65.9561386  53.1403885  25.2265072  65.1809387  53.3259087
  25.2841682  66.5383987  52.6588554  51.9953461  56.9884644  81.8496704
  52.1636009  56.3575096  82.5495453  52.6931229  57.6375198  81.9394836
  36.7244339  49.5761986  20.5761566  35.8088188  49.7896805  20.3964138
  36.7699699  48.6240768  20.4888344  78.1312256  44.6973763  58.1296654
  78.3971405  45.6114540  58.2295876  78.1789932  44.5356712  57.1874352
  27.0970039  61.0213928  41.0447235  28.0314407  60.8809395  40.8919792
  27.0525551  61.8615723  41.5011826  63.9127312  31.7748775  61.2271080
  64.8649139  31.8219910  61.1412964  63.7687683  31.2394543  62.0073814
  10.9943008  57.5935974  78.4816208  11.0287905  56.8446617  77.8865280
  11.0410194  57.2070503  79.3560486  20.5791397   8.8134499  57.8655396
  20.7778397   9.4382696  58.5629272  20.7899151   9.2813501  57.0575333
  46.0830345  62.1687622  45.0818748  46.6485481  62.3571854  45.8308220
  45.4460831  61.5370026  45.4156494  24.4319668  32.3323669  78.9089661
  24.6835842  31.4110126  78.8455124  23.4749908  32.3210487  78.8916092
  31.1360111  24.8081341  80.0521164  30.4693260  24.5517368  79.4149094
  30.6830711  25.4085579  80.6442032  47.1094208  15.4159174  48.9416542
  47.1590157  14.8679428  49.7249146  46.1812477  15.6356840  48.8614769
   9.5531540  39.2195778  61.5527077   9.5029955  39.4947128  60.6372719
  10.4803476  39.2999496  61.7765007  50.5787926  58.3210831  20.8011169
  49.8970070  58.1276627  20.1576977  51.3273087  57.7932816  20.5229435
  65.8128128  56.3129807  76.1533432  65.5235672  55.4535866  75.8467255
  66.5777130  56.1279068  76.6982269  84.0217133  66.2778625  34.9247208
  84.6405487  65.7711334  35.4505539  83.3498840  66.5558777  35.5472870
  29.4317589   4.7336059  78.8168488  28.7369843   5.3890309  78.7540970
  29.0973034   4.0889788  79.4404068  24.7041759  41.9383736  67.6002350
  24.8473721  42.0609665  68.5386887  23.8104897  41.6015244  67.5363083
  27.0975094   7.2759395   2.1385100  27.1776657   7.5308943   3.0576425
  26.4009266   6.6194630   2.1319251  79.3814926  38.2041435  76.3249283
  78.7501526  38.9147758  76.2124863  78.8542633  37.4585266  76.6118469
  83.7846375  69.2207184  13.3734703  83.7916641  68.9982529  12.4425058
  84.3572693  68.5699997  13.7795439  12.0364952  69.6442947  19.2245369
  12.8738890  69.1837692  19.2786026  12.2140541  70.5085602  19.5956860
  76.1118240  20.0068111   7.7303591  75.9600372  20.9518986   7.7314963
  75.3281097  19.6378689   8.1376762  19.6738014  63.4793854  15.5103111
  19.7875481  62.7091560  16.0671253  20.0065937  64.2065048  16.0364037
   8.7872353  29.1614170  37.8818932   8.3378191  29.8792191  38.3280067
   8.0820227  28.5940151  37.5705070  49.9060516  41.2972679  31.4629593
  50.7482948  41.5506401  31.0852566  49.9837303  40.3547668  31.6109104
   1.5612369   8.6312151  39.0093307   1.1533765   9.4965267  38.9758949
   0.8264886   8.0230751  39.0902138   0.2987396  23.9087429   6.9902706
   0.2266922  24.0963306   7.9261403   0.3739475  24.7695866   6.5785403
  49.8310738  50.1641312  19.5650616  50.6213989  50.5271530  19.9648590
  49.8079147  50.5482483  18.6886196  63.6431732  50.0594177  20.2854176
  64.1974792  49.7886429  21.0173054  63.6501617  51.0159378  20.3207645
  42.4425964   0.4803173   1.2575843  42.5647621   0.4204822   0.3101000
  41.7920303   1.1730813   1.3719194  54.4672623  70.8183899   8.0056171
  53.9484177  71.3334427   7.3877578  54.8073502  70.0909348   7.4846725
  14.3861856  36.3110352  86.6147995  14.3501253  35.5766678  86.0019150
  14.8876362  35.9776306  87.3588562   7.9894109   1.4703574  54.6136589
   8.5358763   1.1820787  53.8825607   8.0697193   0.7715265  55.2628250
   6.7409644  23.8257008  40.1406517   7.6819367  23.6905365  40.2526093
   6.6605682  24.7415848  39.8743362  82.6236191  64.6668701  11.2065887
  82.2273483  63.7977867  11.2689838  81.8862305  65.2723770  11.2830706
  43.8900948  46.8933144  24.6398888  43.7272148  46.9963074  25.5774879
  43.3434906  47.5618629  24.2269745  60.5162392  25.2108822  84.6802216
  60.1378746  26.0654678  84.4734497  61.3780937  25.2234764  84.2639542
  17.1519756  28.6963291  83.9165802  16.9852734  28.7429733  82.9751663
  16.2824059  28.6272182  84.3106689   4.1276073   5.6854625  78.4877625
   5.0535002   5.9239917  78.4423904   3.6615968   6.4898038  78.2595139
  22.2681274  55.1319580  59.1428185  21.7345695  55.8501434  59.4830475
  22.5359077  55.4243965  58.2716103  82.3633041  63.3613968  51.3790894
  82.1006241  63.0788803  52.2551117  83.0736465  62.7665977  51.1385574
  63.1000404  26.4017925  84.1130829  63.4293251  27.0209827  83.4616165
  63.8458557  26.2439365  84.6919403  67.6176300  28.3253784  48.5932770
  67.1440506  28.1152153  49.3981285  67.1873703  27.8005714  47.9182281
  27.8637333   3.9586604  64.3132629  27.3791275   4.5309811  63.7184219
  28.1945133   4.5452104  64.9935379  23.6283245   1.5383507  61.1393433
  22.6890316   1.3649309  61.2016983  23.9545746   1.4137268  62.0305595
  25.6087875  13.2751245  26.6196537  24.8924522  13.8180065  26.9488583
  25.9553757  12.8383474  27.3976841  11.8817053  61.9443016  40.4798431
  12.1898651  62.6210899  39.8771591  12.0980072  61.1196022  40.0447388
  65.5630035   6.8299479  29.1713333  66.1797714   6.9168115  29.8981667
  65.2934265   7.7276888  28.9773788  54.7600975   3.3852546  46.0662079
  54.9151688   3.1086137  45.1630707  54.4032631   2.6083815  46.4967537
  53.9948044  69.1252060  28.3944359  54.8305969  69.5917664  28.3971825
  53.4771538  69.5651016  27.7200756   4.3123193  56.4225197   6.3371458
   5.1337614  56.3746758   6.8262019   4.5192819  56.9611740   5.5734372
   6.4245734  22.5889816  56.7919655   6.5211649  23.4471970  57.2047195
   6.7808094  21.9735699  57.4327431  31.3785782  52.7403488   0.9424221
  31.9418449  52.8653488   1.7061882  30.4974251  52.9381409   1.2597173
  78.6789932  32.9161263  32.0216141  78.9109573  33.6257591  32.6206512
  79.3062820  32.2207870  32.2197113  72.5440369  30.2353668  55.1092262
  72.2299652  31.1390362  55.0780029  71.7472153  29.7050838  55.1194954
  76.3159409  43.8361435  10.5108471  76.4104309  44.2949257  11.3456059
  76.8966827  44.3059120   9.9122801  77.5328217  55.3371048  29.5602512
  78.4471893  55.4637337  29.3070126  77.0303497  55.6531410  28.8093338
  39.6024284  62.4436302  77.5346146  39.4112930  62.4548416  76.5967636
  40.0717239  63.2626762  77.6932144  70.9736862  42.7402267  81.2791748
  70.0964737  42.8084946  81.6560898  70.9695587  43.3593521  80.5491714
  79.9908371  61.8675537  20.9805317  80.8941574  61.8409195  20.6650429
  79.6146698  61.0330696  20.7005978  37.9278908   8.1041679  46.9109459
  37.9016914   8.7851658  47.5830956  37.2368927   8.3485794  46.2952995
  38.3108330  35.2439003  34.0024948  39.0244179  34.9728661  34.5800476
  38.5425072  34.8794250  33.1482620  55.5735168  71.2538910  78.0620880
  54.7254677  71.2016754  77.6212692  55.9013824  72.1273270  77.8479462
  49.6569786   6.2118669   5.1345701  50.5921173   6.0737071   5.2850962
  49.2315712   5.8264017   5.9005203  33.5344810  27.5360184  29.5424099
  34.3302803  27.5786991  29.0122051  33.7624588  27.9902325  30.3535480
  19.9435921  52.2679138   8.8196440  19.4653072  53.0846977   8.9622536
  19.2674656  51.5903778   8.8249779   0.4234733  47.9228783  87.8695221
   1.2396412  48.4228668  87.8587723   0.3743841  47.5257874  86.9999542
  67.0676041  11.7400808  87.9516525  66.8976822  10.9070091  88.3913651
  66.2270966  12.1976233  87.9723053  50.3481331  55.2135887  84.5615158
  50.0173988  54.5191917  83.9917297  50.8181381  54.7507401  85.2551346
  59.0874634  67.9328003  31.8792725  58.4763260  68.5380478  32.2992973
  59.7130432  68.4991913  31.4275131  29.2811737  10.9439363  36.8709602
  29.6302891  11.7830601  36.5705948  30.0122433  10.3331528  36.7776299
   1.1730243   4.9383693  14.5920191   1.0441558   5.8231926  14.9336510
   1.0269374   5.0218129  13.6497192  51.9278374  61.0487251  32.3336105
  51.6394310  60.5856667  31.5470772  52.8805618  61.0905342  32.2511292
  62.2999992   4.1087503  84.9558792  62.0800629   4.3335524  84.0518188
  62.2952690   3.1517086  84.9726410  73.4826279  64.9275436  64.3576813
  73.1471558  65.7184296  64.7798080  74.4023590  64.8878403  64.6198807
  22.7233124  46.7574539  63.3008995  23.2031517  47.2645073  63.9557915
  21.8097305  46.8063622  63.5823402  71.2137909  31.9311504  86.1981354
  71.7379761  32.2345161  85.4569092  70.5523453  31.3609066  85.8062897
  83.5473633  49.1588211  10.5826769  83.2715454  48.2439651  10.5261717
  83.9083023  49.2461090  11.4649105  15.5550022  48.9882088  49.3994560
  14.9250097  49.7062912  49.3386536  15.0157042  48.1977196  49.4221039
  71.8443604   7.7757998  83.1475906  71.4472427   8.3731146  83.7814255
  71.1441345   7.1621428  82.9254684  14.9810324  52.7005157  50.1651840
  15.0857573  53.6271133  50.3812561  14.5019207  52.3339424  50.9083595
  76.2520294  39.7477531  20.7491741  77.0548096  40.2678452  20.7134151
  75.6649628  40.2518501  21.3126202  28.1686344  17.7727242  86.4456329
  28.0404301  18.1093197  85.5587845  28.9118671  18.2708664  86.7857666
  36.3567734  19.8770008   5.6347690  36.9036636  19.3271217   5.0737195
  35.4887161  19.8404694   5.2330527  83.2958450  65.8277893  67.1742172
  82.9153061  66.0860977  68.0136795  82.6460190  66.0951843  66.5242538
  26.4379539   5.2077937  58.1099548  26.5432243   4.8855186  57.2148094
  25.4957504   5.1610060  58.2721100   0.5379214  71.2063217  64.2154541
   0.9991450  72.0157852  63.9957428   0.1350136  71.3833847  65.0654755
  30.5543594   7.3294349  25.1145287  29.8197136   7.9323640  25.2285633
  30.7659245   7.0391641  26.0017796  31.5149212  54.6254234  21.1899853
  32.3715286  54.4516029  21.5801620  31.5402393  54.1745949  20.3459816
  74.2591705  70.4647217  54.9412994  73.4063263  70.0335159  54.9955215
  74.3189468  70.9793854  55.7461472  34.3458862  16.3951664  71.4872818
  34.9402962  15.9963388  70.8517990  33.4709358  16.2068977  71.1478043
   5.6571240  24.7957993  78.3298721   6.6086702  24.7964554  78.2259903
   5.4053721  23.8782749  78.2249756  61.3315163  67.5571365  33.7420311
  61.1990356  68.4847031  33.9377441  60.8163147  67.4034805  32.9500771
   3.9770963   1.1784283   2.4547386   3.9027290   2.0796511   2.1408935
   4.4870410   0.7309672   1.7794853  73.6287003  44.1550941  55.2769051
  73.3675385  44.0422401  56.1908455  74.5850449  44.1189766  55.2948723
  30.6275959  36.5932121  12.8541279  30.6957397  35.6951027  13.1781435
  31.5339108  36.8650589  12.7094641  57.9097748  47.0899658  48.9169388
  57.4711876  46.6002350  48.2212105  58.8169518  47.1658897  48.6211357
   2.2516434  17.9712448  52.7049942   1.7941585  17.4104576  52.0785294
   1.6220341  18.1015244  53.4141121  72.9035568  61.9085159  35.2020760
  72.2876663  61.3701744  35.6991730  72.8749771  62.7635384  35.6314354
  39.4788361  30.9351254  19.6485424  38.5510712  30.8903751  19.4172745
  39.7593422  30.0209560  19.6914711   3.5002744  62.9799767  38.9521599
   3.0534787  62.2219009  39.3288918   3.3913429  62.8768005  38.0067940
  30.3000183  41.9849243  79.5835266  29.4054947  42.0636597  79.2520752
  30.6195564  42.8861694  79.6269379  62.6368561  37.9241905  40.6081619
  62.7662086  37.9224815  41.5565796  62.3816681  38.8236122  40.4028549
  80.9645081  50.3515320  64.9211426  81.8535614  50.6695290  65.0782852
  80.7060623  50.7611313  64.0955124  65.2365494  38.6860809  14.2052383
  65.8422089  37.9991035  13.9269104  64.5919418  38.2317200  14.7477074
  72.6884079  53.1721916  25.4280167  71.8957367  52.6398964  25.3603935
  73.3751755  52.6293793  25.0408134  60.7459412  47.0328484  39.6403999
  61.6373711  46.9947815  39.2937965  60.8538322  47.3167534  40.5481415
  26.3291931  34.0673447  83.6900482  25.7717743  33.8237381  84.4290848
  26.5383224  33.2362823  83.2636261  70.0175400  22.5385323  44.7480965
  69.6571960  23.2389507  45.2919693  69.4245529  22.4882870  43.9983826
  31.5186710  60.7770348  11.4143448  32.1686211  61.3715134  11.7890348
  31.9519272  60.4004898  10.6483564  14.0343037  19.2474442  88.8265991
  13.0954762  19.4136581  88.7416992  14.2258244  19.4206886  89.7482986
  26.0487118  52.4378967   4.4697757  25.6742802  53.2625885   4.1600718
  25.3009529  51.9499397   4.8147206  83.6695251  48.5660286  72.8610611
  83.6077728  48.3853912  71.9230957  84.2985687  47.9228363  73.1879425
  45.4271736  63.3466949   6.8971782  45.4404182  62.4962654   6.4580584
  44.5037804  63.4975967   7.0991745  55.5141983   8.7142515   6.8673377
  56.1520767   9.1162519   7.4570308  55.1212425   8.0103798   7.3834605
  64.1276169   6.6456637  14.2683744  64.8280411   7.1292148  14.7063408
  64.1291580   6.9812503  13.3719311  85.7713394   9.8395958  83.7407532
  84.9225082   9.4048967  83.8229218  86.2019119   9.3889141  83.0143051
  83.4486923  23.3118515  75.4865570  83.9922867  22.5886173  75.7990799
  83.3157425  23.1271458  74.5568008  70.3580322  45.5258827  77.1320419
  69.7779694  45.4050293  76.3802719  70.8901978  46.2880898  76.9038467
  79.4761124  36.4559937  43.4585609  78.6877747  36.0854912  43.8553925
  80.1862335  35.8920288  43.7650032  35.7829475  66.9012604  77.3248367
  36.2290611  67.4103165  78.0016556  35.5516891  67.5444870  76.6547546
  71.9939880  36.5971413  37.2023621  71.8097916  36.9190674  36.3199425
  71.4608536  35.8064651  37.2849998   9.6366911  68.3839111  40.6535721
   8.8083801  68.8545914  40.7462921  10.2151480  69.0026474  40.2077141
   1.8451192  35.0516930  69.7858505   2.3951967  35.5434799  69.1761017
   1.0609025  34.8366127  69.2808990  60.2858849  35.8006821  58.5017929
  61.2363701  35.7075615  58.4374695  60.0383797  35.2324829  59.2312584
  48.3000183  33.9032097  55.1263885  48.4440651  34.7028046  54.6202965
  48.1727562  33.2216911  54.4664078  36.1748657  47.6563263  -0.1209583
  36.9565163  47.2053833   0.1982697  35.4446106  47.1353111   0.2129609
   3.5807607  39.7151833  67.4025497   2.6936412  39.9555664  67.6698837
   4.1492205  40.1608086  68.0306473  26.8176270   1.2778676  70.5055923
  27.5250416   1.2424713  69.8617401  26.6374397   2.2118740  70.6123428
  68.9278488  30.5162449  61.1752243  69.3110275  30.1565495  61.9752350
  69.5299911  30.2498512  60.4804688  39.4512634  47.4580650  30.4382534
  40.1759033  47.9300270  30.8485947  39.4125557  47.8062210  29.5474567
  29.7660046   1.9741588  85.9560623  29.7714119   2.9143801  86.1354675
  28.8966961   1.8045908  85.5930481  54.2864914   0.1828005  71.7917709
  54.8877029   0.3662481  72.5136566  54.1267929   1.0368669  71.3901520
  30.6437855  13.1604042  43.3385811  30.0997620  13.2060804  44.1248283
  31.5237598  13.3822565  43.6429787  39.2115097  10.4539394  56.6838684
  38.5734634  11.0914850  56.3634529  40.0538406  10.7760973  56.3630486
  86.6951141  35.7161293  25.1841297  86.1033020  35.2087555  25.7396145
  87.3133087  35.0710144  24.8407860  43.4482460  15.6253414  16.4583149
  42.8200417  16.2798347  16.1529789  43.3086777  15.5824232  17.4043121
  42.1458588  17.2175522  86.6570969  41.5591316  17.7971077  87.1429977
  42.4914055  17.7637482  85.9510574  39.1546898  53.7560616  17.6732578
  39.6939774  53.1570625  17.1569233  38.2909164  53.7148972  17.2628536
  19.9087677   4.1425309  61.9297600  20.4267464   4.8032265  62.3895569
  19.2078018   4.6390109  61.5074043  32.9869614  63.0807838  45.6210136
  32.7446480  62.7541389  46.4875107  32.8406258  62.3378639  45.0354462
  54.8537979  29.3711567  15.9937143  55.7323151  29.6708145  15.7599535
  54.3515968  29.4453545  15.1822205  24.5300140  50.2520790   7.2980781
  24.6561069  49.3992004   6.8822317  23.9855690  50.0672607   8.0633583
  81.5535202  33.8517647  13.3876047  82.1366348  33.3141022  12.8517637
  81.2928848  34.5700531  12.8110971  58.1080627   0.3902654  49.7509575
  58.2774048  -0.1292357  50.5368805  57.7729378   1.2234521  50.0821991
  71.2519836  58.2119064  46.1614914  71.6811676  57.7038574  45.4730682
  71.6787567  59.0680771  46.1287270  69.5397873  46.2083435  81.8735962
  70.3785782  46.2394028  81.4134750  69.7520599  46.4499893  82.7751389
  21.1369190  64.0163727  42.9736481  20.4474373  63.7181587  43.5668716
  20.7112789  64.0666885  42.1177711  15.4392061  26.2582512   8.8409996
  14.5050097  26.4155064   8.7039566  15.8208323  26.3034744   7.9643307
  53.5157509  62.5739555  65.8062439  53.7652168  62.7442360  66.7145386
  54.3480492  62.4843597  65.3420410  -0.2688367  49.7668076  43.8476830
  -0.1239421  48.8933105  43.4840240   0.5991406  50.0561333  44.1289978
  79.5141754  67.5277023  53.3283234  79.8262405  67.7612305  54.2025719
  79.5661697  68.3431244  52.8297081   2.8627515  40.5549469  73.9918976
   2.5578527  41.1773643  74.6520920   3.5428500  40.0485992  74.4360962
  50.7880936  18.6745682  22.3362656  51.6393433  18.4972477  22.7364655
  50.9916077  19.2034798  21.5648594   0.9277153  60.6526833  75.4555893
   0.0539499  61.0350266  75.3744736   0.7950223  59.8601723  75.9757385
  22.6694889  10.7257652  65.3511429  22.1683426  11.0738335  66.0886612
  23.4431648  11.2871466  65.3010635  34.6574249  11.9772263  81.0704346
  35.3252563  11.3195715  80.8762054  33.8276749  11.5065832  80.9914093
  47.0814819  59.2666054  54.0561485  47.9150848  58.8765907  53.7930374
  47.0344124  60.0860519  53.5636826  27.4196796  59.7496376  68.0801315
  27.9010277  59.1818008  67.4783859  26.9192371  60.3333549  67.5099869
  57.5354233  19.7372093  56.8203316  57.4988060  20.1758709  57.6703110
  56.6402969  19.7891369  56.4852409  33.5201263  62.8848763  18.7388821
  33.3935280  62.1385536  18.1530476  32.7486153  63.4336205  18.5978699
  37.5984535   8.2232103  70.5830307  37.5119514   7.5964408  69.8647614
  37.8952408   7.6971002  71.3255615  23.1749535  33.0837173   4.4973741
  22.4763184  32.9410172   5.1359496  22.8237228  32.7379417   3.6768210
  36.5683479   3.7530544  53.6801453  36.3479576   4.2388291  54.4749298
  35.8367805   3.1478257  53.5587463  35.7045746  33.8047104   7.2149549
  36.1706390  33.8193932   6.3790107  34.8014793  34.0280418   6.9896307
  84.7851639  44.6829109  10.2578802  85.5420227  44.4872055   9.7055235
  84.6026154  43.8613510  10.7138882  10.6924038  19.0736732  48.2110863
  11.2310028  19.5770226  47.6005287  10.3606663  18.3419666  47.6907158
  29.3213215   4.8117399   6.8339448  29.4969997   3.9516580   6.4523325
  29.1510410   5.3776188   6.0809388   7.0796013  60.5993118  53.8358612
   6.1858459  60.6792793  53.5026398   7.0387278  60.9623184  54.7206154
  77.1425400  25.3899403  23.9594173  77.6442261  25.4982090  24.7673893
  76.6702118  24.5660763  24.0793495  45.4832458  27.8379307  84.7485199
  45.3366127  28.5713215  84.1511383  46.4352188  27.7444935  84.7839127
  80.0696487  20.0566540  52.1206741  79.1636353  19.7478447  52.1196671
  80.1853180  20.4568996  52.9824486  12.7826824   8.9973440   6.1022048
  12.7445507   9.6515799   5.4045272  13.1721878   8.2275124   5.6876249
  35.4491844  59.5166702  20.7847042  34.5234642  59.7501450  20.7157001
  35.8497009  60.2573013  21.2399883  80.2071609  71.0561142  76.4883804
  80.0278473  71.8686523  76.0152435  80.9844131  70.6965256  76.0608215
  61.7979050  64.1858826   1.9343961  61.7487450  63.2300034   1.9451568
  62.4040489  64.4025269   2.6428370  38.9387856  13.9000053  81.0865555
  38.0250511  14.0096111  80.8233032  38.9310532  13.1393633  81.6675873
  86.0931168  51.0318451  23.1663170  86.9445419  51.4316940  22.9890747
  86.2385330  50.0939026  23.0424080  72.5422745  31.4304085  76.0237961
  72.5789795  32.0581131  76.7455139  73.2508621  30.8134174  76.2067184
   8.5202417  36.5695839  88.0755463   8.1644077  36.6758842  88.9577713
   7.8218231  36.1346512  87.5863876  27.5645504  41.6734085  87.3997574
  27.7212887  41.2599831  86.5507889  28.4391289  41.8173485  87.7611771
  40.6017265  38.0241890  11.8573494  40.7040405  38.6689301  11.1572981
  40.4789772  37.1920509  11.4005051  61.0162849  49.7296944   0.9160388
  60.1763420  49.3294220   0.6912936  60.7931976  50.6222725   1.1801757
  56.8884087  53.3858833  12.3006735  56.0245781  53.0701485  12.0354538
  57.4611015  53.1611290  11.5673666   4.4586163  20.7077656  40.0727463
   3.8836343  21.3354568  39.6349869   4.0476861  19.8574219  39.9169159
  69.3889389  26.1877022   1.0510975  69.4632797  26.8541946   0.3680941
  68.7611313  25.5553989   0.7014127  75.3954315  43.9943886  29.5756798
  76.1995468  44.3515854  29.9525661  74.7264709  44.6498222  29.7734776
   3.7054758  60.0591965  34.1643906   3.8588285  60.0654945  33.2195740
   4.4220262  59.5334206  34.5198402  44.7131805  66.4489975  27.5769882
  44.2260704  65.8065491  27.0610256  45.5964890  66.0856094  27.6398735
  16.7863789  58.0823936   6.7186213  17.3687897  58.8305931   6.8498735
  17.3316326  57.4282036   6.2816219  84.9260254  46.8567924   2.6905382
  85.1250076  47.5829887   2.0995414  85.6224442  46.2199364   2.5304003
  15.4134922  59.2538300  60.1193085  14.8752489  58.4653168  60.0501862
  15.4715300  59.4225235  61.0597382  25.1031246  21.8379517  89.2047729
  26.0252266  21.6473122  89.0326767  24.8669529  22.4920006  88.5469894
  73.6696167  61.1818695  88.1581116  74.2278442  60.5737991  88.6427460
  73.1652145  60.6239624  87.5660400  39.4784813   4.2023826  15.1702232
  39.5137901   5.0384803  15.6349020  40.1218491   4.2917585  14.4671450
  79.7971954  69.8924561  65.4057617  78.9835815  70.3782425  65.2705688
  80.1209793  69.7169342  64.5222473  36.8346252  13.8557835  48.6152077
  37.2053032  13.7914906  49.4953728  36.4766464  14.7423840  48.5702553
  62.2614288  21.2874470  78.6030197  62.5451736  21.8318901  79.3373947
  62.8192558  20.5110664  78.6508865   7.8685179  44.7848473  62.0881920
   7.2282085  45.3722420  62.4896965   7.7166557  44.8722267  61.1471634
  22.3486977  56.1010056  74.9899292  21.6225605  55.5211945  74.7601929
  22.8593254  55.6037560  75.6288605  78.2467041  30.0734177  11.6811590
  77.7874985  29.8968525  10.8600721  77.6442184  30.6266098  12.1783705
  69.9459229  65.9916229  66.9893112  70.4081802  65.2833176  66.5411377
  70.3436050  66.0243225  67.8593674  36.8035965  60.7967453  76.0098419
  36.8237534  60.9726067  75.0691528  37.3576393  61.4770088  76.3926086
  84.6932755  31.2612476  78.6210632  84.1867218  30.4548283  78.5245209
  85.4695206  30.9987144  79.1157913  41.5383224  58.3301811  21.6836605
  41.4152298  58.3202782  20.7344589  40.8970718  58.9656868  22.0017185
  75.4818039  69.9546509  40.7093544  75.9001083  70.7867279  40.4882240
  75.7578964  69.3559189  40.0154381  -0.1699034   4.7263188  19.3711452
   0.4665868   5.4393106  19.4236317  -0.1607082   4.3323474  20.2434597
   7.5561714   2.1136560  25.2372169   6.7386580   1.7508488  25.5782089
   7.6120195   1.7786226  24.3423061   9.1637297  47.6002274  77.7344055
   9.4816523  48.0439415  76.9480972   8.2164965  47.5414314  77.6098022
  49.3735275  51.8915749  72.5463486  48.8103409  51.6444473  71.8128738
  49.7787590  52.7138023  72.2707291  78.3603668  16.4759350  83.0524063
  78.9126892  15.7515068  83.3462982  78.0172882  16.8584671  83.8599930
   8.7141199  50.8844185  27.9309177   8.9264317  49.9716187  27.7361050
   9.3992996  51.1655235  28.5373325  56.8804474  19.0514164  18.8453884
  57.4878426  19.3862476  18.1856956  57.1191254  18.1298084  18.9449005
  75.5495834  18.5456333  80.5900497  75.7380676  18.8679905  81.4714050
  75.2024612  17.6640987  80.7265854  61.4293213  25.8034210  79.2624054
  60.8842354  26.1412926  78.5518036  61.7622871  26.5859680  79.7017059
  31.1561413  67.9198990  60.7817993  31.8679180  67.8953629  60.1422653
  31.0976181  67.0224762  61.1095734  78.0821457   9.2506199  61.5874367
  77.1443634   9.1127043  61.7207603  78.5022049   8.6708899  62.2228088
  26.7955360  33.0317192  71.5192032  27.5617886  32.7055168  71.9910965
  26.9920521  33.9533730  71.3513794   4.5700164  37.2350311  31.5438271
   4.3744173  36.4212532  32.0083008   5.3122950  37.6092186  32.0184174
   8.4652414  20.0898056  32.5301704   7.9987917  20.8405018  32.1625938
   9.3223028  20.4376011  32.7765770  31.3782043  36.9945068  25.5608196
  30.8959141  37.3686905  26.2981224  32.2219200  37.4464378  25.5724144
   4.6789155  28.7707958  18.8560333   4.4329314  28.7486057  19.7808208
   5.4067397  28.1529560  18.7868958  77.5095673   9.9965544  47.4528542
  76.6185913   9.8443098  47.1378822  77.8807373  10.6206017  46.8291359
  12.0471506  27.7937164  35.9783859  11.4325476  27.6987553  35.2507362
  12.7282906  28.3761349  35.6421318  58.0161133  48.0762901  78.1636047
  58.4583740  48.3345451  77.3549347  57.5606766  47.2649193  77.9389114
  14.4869680  20.9265404  56.4606743  14.1199179  21.7905788  56.2737389
  15.3724585  21.1057854  56.7769127   3.0688260  34.1839409  60.4882660
   2.8953714  35.1106148  60.6538696   3.9907744  34.1548119  60.2325401
  46.2388077   0.2974234  80.8452072  45.7928276   0.5663116  81.6483459
  46.6433640   1.0999236  80.5157242  67.4343414  63.2983742   9.7223911
  68.1857834  63.6407242   9.2382860  66.7031403  63.8550606   9.4546537
  23.1441326  62.7761612  30.2513275  22.6904907  62.5405426  31.0606003
  22.9441299  62.0607681  29.6476364  72.4438477  12.1309214  43.4788628
  73.3061447  11.8616400  43.1623650  72.4953461  13.0852823  43.5315399
  72.4774399  24.4293213  80.4685593  73.0154724  24.4607487  81.2596130
  71.6044083  24.1929913  80.7819290  48.7700577  43.0517235   9.8924103
  49.1918716  42.1939888   9.9433365  49.4823723  43.6771927  10.0251703
   1.7261461  38.3773880  76.5829010   2.0895019  38.9302902  77.2746353
   0.9734943  37.9482536  76.9898300  65.7603302  52.6417427  18.2508411
  66.3864594  51.9454575  18.4492798  66.1653061  53.1310959  17.5347672
  69.5594940   5.6585808  49.6840858  69.3196945   6.0737433  50.5125580
  70.2823868   6.1898808  49.3503532  38.6819763  26.8593426  20.2583675
  39.3134880  27.5736217  20.3434086  37.8399086  27.2563725  20.4808960
   6.0970583   5.5401850  56.8364334   6.2775488   5.0465441  56.0364494
   5.1688089   5.3838482  57.0100555  31.0711174  39.8793335  86.1936340
  30.9793816  39.9808998  87.1409988  30.1872292  40.0135841  85.8516541
  45.2427368  62.3687210  34.2539215  44.4323883  62.0461845  34.6483078
  45.3489838  63.2501411  34.6117554  31.4705524  66.4715424  39.0582848
  31.3304596  65.5391235  39.2232170  31.7625942  66.5124588  38.1476440
  23.5957165  26.6791630  80.5043945  23.9119282  25.8401928  80.1691742
  23.9675064  27.3302956  79.9093933  36.1235085  47.2948875  65.9888077
  35.2087288  47.5052948  65.8013458  36.1152611  46.9723206  66.8899765
  34.9763680  36.4636803   5.6046762  35.7224960  36.8305054   6.0789824
  34.2137222  36.7184219   6.1240129  16.5102005  65.4565353  29.1485939
  16.8151493  64.5550461  29.2512817  15.9239435  65.5972214  29.8920593
  23.1495762  19.6730194  18.5096111  24.0109005  19.4099197  18.8338509
  23.3040276  20.5098038  18.0712395  55.1296463  44.4673920  26.4457417
  54.3394127  44.5886765  25.9193821  54.8144493  44.0924492  27.2681160
  42.9328804  64.9804077  26.0622063  42.0506020  64.7488480  25.7720413
  43.5076866  64.3886032  25.5768204  65.3173370  61.4470901  29.3663960
  64.8103409  60.7707672  28.9172077  66.1330109  61.0109673  29.6127872
  39.6161842  37.5932961  84.2965698  39.8935127  38.1080589  83.5387115
  38.8575325  38.0642509  84.6413498  21.9928551   6.4644790   5.5277510
  21.4582500   6.0686712   4.8394432  22.8941612   6.2609992   5.2778020
   5.8087029  15.1146994  18.7774487   5.2617221  15.8999062  18.7552204
   5.6306539  14.6751566  17.9459839  30.1202049  63.3774567  67.9035034
  29.4655952  63.3254471  67.2070694  29.9384804  62.6201935  68.4600601
   6.8191881  67.7000809  13.3576698   6.9813485  68.5968781  13.0649490
   7.4106212  67.5800095  14.1006508  25.2873192  70.0513382  44.4088669
  25.8039265  69.2464828  44.4483032  25.4559250  70.4853821  45.2451744
  19.3656483  17.3940277  56.1485405  19.4685860  17.0678272  57.0425377
  19.5657063  18.3280754  56.2098732  16.8385773  50.5766029  32.9874077
  16.5309811  51.0626030  32.2222824  17.7457695  50.8595924  33.1020889
  19.1179962  31.5663853  54.7839737  19.3921757  30.6897335  54.5146446
  19.3697853  31.6234760  55.7056999  37.1472778  55.9411125  19.0788193
  37.9326401  56.0960922  19.6036301  37.4762230  55.5750847  18.2578125
   9.5510893  36.9557190  56.3801613   9.9136477  36.2852097  55.8011932
   8.6113873  36.7743797  56.3976974  74.5662918  40.2035599  77.0185928
  74.0427246  41.0044937  76.9939194  73.9426804  39.5036888  76.8249054
   2.2327268  66.0494461  72.5154648   1.7620109  65.4293900  71.9585114
   2.0332844  66.9073105  72.1405945  50.0843925  71.3276520  66.7847900
  49.7925491  71.9776611  67.4239655  49.4005585  71.3265381  66.1150131
  16.0069160  53.1825218  54.7761536  16.4174805  52.3242874  54.8815308
  16.3301659  53.6952515  55.5169983  78.4366684   1.0212562  62.8181572
  78.1118622   0.6452396  63.6362915  77.6603928   1.3959527  62.4019547
  80.0834961  24.1311550  33.5078278  80.5429306  23.7325191  32.7687492
  79.6761627  24.9160690  33.1414604   9.5046072  20.4218559  36.2919769
   9.9655848  20.8549004  35.5735054  10.1050529  20.4855347  37.0347023
  25.9565773   0.5571968  59.5836143  25.1505184   0.5198603  60.0985031
  25.7271824   1.0829901  58.8173561  28.6059666  19.4146233  78.4717102
  28.6897545  20.1511860  79.0772629  28.5229206  18.6473217  79.0379105
  13.7460613  26.3105068  87.5245285  12.8239298  26.2351246  87.2791290
  13.7810431  27.0817432  88.0903931   8.1391296  64.1975861  34.5205612
   8.7554998  63.9324951  33.8378868   8.6493683  64.7678223  35.0956421
  23.2900524  44.4774818  20.4017067  23.7472935  43.9758301  19.7267933
  23.9848099  44.9478340  20.8624783  69.4769592  64.9489136  84.5228043
  69.2681503  64.1659317  84.0133209  68.8244019  64.9601440  85.2229919
  77.2009659  20.6586151  46.2184410  76.5940094  20.6814537  45.4786301
  77.9548187  20.1655865  45.8946304  31.5016308   8.5212727  10.7518673
  32.3409843   8.2344484  11.1116543  31.2886467   7.8650346  10.0883751
  76.4491501  63.3633461  25.3255196  76.9601974  64.1564713  25.4868259
  75.6392136  63.4959946  25.8181000  56.7157440   9.7337732  27.7332497
  57.3247910   9.0093899  27.5898533  56.4249878   9.9796467  26.8550472
  16.2233925   2.1883326  46.1609764  15.3082314   2.3692918  45.9465828
  16.4406090   1.4107375  45.6467857  85.5780258  69.7599945  66.6305847
  84.8998871  69.3115997  67.1358643  86.3031082  69.8682251  67.2460327
  82.7873917  18.4391308  78.4320755  82.2102280  19.1861420  78.2736664
  82.6489334  18.2206821  79.3536682  45.8680267   5.4519954  70.7125320
  45.6932030   5.4272418  71.6533051  45.2437897   6.0915275  70.3696594
  60.5305367  39.8506165  21.6712513  59.7881775  40.3223076  22.0489368
  60.7032166  39.1409492  22.2899494  76.3794937  66.1375275  68.8022537
  76.6884995  65.2880936  69.1172409  77.0683365  66.7519684  69.0556259
  57.9490852  32.1607971  17.3637142  57.1452980  32.4160309  16.9109325
  58.1138077  32.8744926  17.9799461  55.8698959  61.4578171  30.2648773
  56.0781097  61.2759666  31.1812897  55.4640808  60.6513290  29.9468746
   4.4785409  71.2910614  82.7575607   4.7850881  70.4367523  82.4535446
   4.5100799  71.8476334  81.9794464  10.0670862  36.8724899  39.8778076
   9.6337681  37.7258530  39.8623047  10.9728165  37.0592575  39.6308212
   6.3965054  40.4895973  41.0800591   7.1917272  40.0438232  40.7882767
   5.7203326  39.8124619  41.0574532  84.5238342  14.7244320  28.0753651
  84.2619476  13.8231802  27.8872356  84.3008423  14.8511076  28.9975681
  27.0137653  24.5247784  79.3772583  26.4824200  24.1911106  80.1001511
  26.5545082  24.2352543  78.5889130  32.3068123   0.3039979  62.9602394
  32.4275856  -0.6454951  62.9497795  31.7900333   0.4883654  62.1759071
  33.9933701  37.7903595  52.9967384  34.0705719  38.1577873  53.8772316
  34.7602196  38.1229744  52.5303268  20.2236691  19.9327145  22.3340435
  20.8562222  20.5804977  22.0234241  19.6960144  19.7243576  21.5630703
   2.4612737  32.6923141  33.8213196   1.7130617  33.0920258  34.2647591
   2.2484820  31.7597389  33.7858849  13.8878202  53.1482010  66.5166168
  14.1378717  53.9517250  66.0604858  12.9793110  52.9974480  66.2556305
   2.1677802  67.2387695  45.5628853   2.6151099  67.4677353  44.7482071
   2.0128152  68.0785828  45.9952431  71.5146484  32.4392815  22.6539936
  71.3710403  32.9025688  23.4792042  70.6413727  32.1557693  22.3833694
  11.6417351  54.9581299  17.1212845  10.8653555  55.1569710  17.6446667
  12.2231426  54.4926414  17.7225475  24.8934574  30.3318920  13.7479744
  25.5315723  30.4310856  14.4545155  24.8264523  29.3860931  13.6167936
  47.2120857  32.2490921  75.8519440  48.0875015  32.5539818  75.6133575
  47.3560143  31.6689224  76.5995560  39.2388916  12.1087856   9.2039280
  39.2575455  12.5411692   8.3501549  38.8098259  11.2693844   9.0379744
   5.1409187  66.6668167  84.9001236   5.9715290  66.4178085  84.4947662
   4.4752636  66.3973160  84.2672653  66.6293716   2.2960439  79.5422287
  67.2571869   3.0185714  79.5482483  66.1412659   2.3960533  80.3595276
  41.9597626  69.5671005  12.5834818  42.7275200  69.0806198  12.2832994
  42.3185539  70.3652115  12.9714489  81.1259918  31.0914612  74.9210510
  81.2510452  30.2261372  74.5314255  82.0056839  31.3679047  75.1778488
  12.0161209  16.7030010  57.1965065  12.1735935  16.3421040  58.0689697
  11.3517513  16.1284943  56.8159981  54.2100487  39.8300972   6.3465896
  53.8524170  40.2923737   5.5885439  54.5215225  38.9965858   5.9937820
  65.8913498  47.2769852  31.5464993  65.2768555  46.7826118  32.0889130
  66.4037628  47.7896957  32.1716385  46.7536316  56.4365997  16.1588001
  46.1325073  57.1571541  16.0527916  46.2574730  55.7581062  16.6167336
  44.0576401  30.4839134  19.9186058  43.7628174  30.8906479  20.7333927
  43.2936134  30.5193748  19.3430729  77.6780548  41.2885818  55.8509979
  78.2189026  41.5145493  56.6077347  77.9980621  40.4294357  55.5758705
  83.1872025  42.3072510  66.8607025  82.4828644  42.9547501  66.8904648
  83.3892288  42.2157402  65.9295502  20.4570732  16.4644127  71.1483688
  20.5169106  16.4473038  72.1035461  20.7499809  17.3428001  70.9057388
  48.3801231  66.3354721  15.6713085  49.0959015  65.8443909  15.2679043
  48.2544632  65.9188232  16.5238609  41.2929611   4.8953476  52.5113258
  40.7134628   4.2007651  52.8243217  41.7710533   4.4984412  51.7832298
  50.3506393  54.3908348  24.9753666  49.6430855  53.9704704  24.4865952
  50.9998398  54.6176682  24.3095455  30.4722919  21.1767349  10.5691328
  29.8995399  21.4700432  11.2777634  30.1177483  20.3258400  10.3112411
   4.9357405  49.1047058  41.7688828   4.1416359  48.6983604  41.4217300
   5.6284413  48.4691620  41.5886497  61.7626877   5.2855015  78.4273148
  61.2664948   4.5516186  78.7898636  62.6640320   4.9664145  78.3826447
  55.1415558   4.1274261  25.4246578  56.0586433   3.9950852  25.6648006
  55.0303192   3.6247046  24.6177311  56.8612175  56.4977303  81.9867325
  56.1182404  55.9027519  81.8856506  56.6620522  56.9972267  82.7786102
  57.7587929  56.1689796  74.5942459  56.9443626  56.6256828  74.8048630
  58.0366707  55.7800636  75.4235535  63.1733246  57.1231728   7.9360223
  63.6525497  57.8734627   8.2876444  62.2654953  57.2740860   8.1992826
  46.7587624  14.6998777  -0.2014611  46.9668541  15.6006670   0.0465485
  46.4719505  14.2873125   0.6132541  78.2969208  22.2729950   0.6020779
  79.1146164  21.8206940   0.3946643  78.3172531  22.3805656   1.5529968
  80.7668533  25.5240383  56.5359726  80.9291153  24.9394760  55.7955742
  80.3795242  26.3062725  56.1431389  23.5649452   3.0015500  16.3665619
  23.5926971   3.8619335  16.7851334  23.8880882   3.1564691  15.4789753
  19.1027699  37.0107002  86.3337402  18.9374180  37.6294861  85.6224136
  20.0242157  37.1427689  86.5567322  69.9100952  20.7229633  17.1856422
  69.1174927  21.1374855  16.8447876  69.5901642  19.9858341  17.7057552
  77.3548050  39.0186310  88.6731339  76.4790955  39.2665176  88.9696350
  77.2021866  38.4972038  87.8850708  51.2494736   5.3050199  70.2030106
  50.5311203   5.7009993  69.7096558  50.8348846   4.9581256  70.9929504
  62.4364815   4.1130648  18.6932144  62.7801361   4.4051619  19.5374966
  62.6552544   4.8212962  18.0875931  37.8673248  61.4526596   4.3818521
  38.1118088  61.7260437   3.4977031  38.4948807  60.7641602   4.6017966
  17.5510406  11.8375330  18.7561321  16.9263611  12.4975433  18.4554768
  18.4093742  12.2310295  18.5991077   4.9311810  49.5641289  54.1097488
   4.3033986  50.2865562  54.0950203   5.7737556  49.9750214  53.9161911
  39.9655838  70.8137054  81.4672470  40.4141884  70.4022980  82.2059784
  39.6011353  71.6218338  81.8282700  67.9222107  49.3599625  57.2326927
  67.0347977  49.1215973  57.5008736  68.0188217  50.2716599  57.5078392
  55.7038651  49.0710564  10.7480040  55.8838615  48.8697052  11.6663132
  54.8639069  48.6478653  10.5702000  64.5084915  56.1612930  33.1544418
  64.9721680  56.8757095  32.7175827  63.8225975  55.9078369  32.5367546
  67.6975250  58.3932991  17.1983261  68.1086960  57.8571548  17.8763523
  67.8601074  57.9163780  16.3844795  48.0507812  65.1606827  22.2054653
  48.4949799  64.4811096  21.6984177  47.7200623  65.7725449  21.5478344
  25.9099007  62.2338753  11.4015284  26.2042789  61.4113121  11.7926359
  24.9674091  62.1180077  11.2810507  85.6485519  29.1551132   7.3121920
  86.2787170  29.8616142   7.1708722  85.2340622  29.0295715   6.4585700
   8.1070738  14.7366390  68.2548141   8.9419003  14.2867079  68.3846512
   8.3233757  15.4883013  67.7030411  22.9522724  60.2323265  28.7461605
  23.6734047  59.6090927  28.8343353  22.1864738  59.7603836  29.0733528
  64.2643661   4.9360518   7.4805059  63.3443909   5.1864052   7.5654135
  64.3820419   4.2352386   8.1217899  47.0894585  42.4239998  87.9690781
  47.4081612  43.3155708  88.1096649  46.8253174  42.1241264  88.8388748
  13.8869362  35.3803177  14.6806860  14.6633596  34.9134369  14.9895878
  14.2335787  36.0903854  14.1404352  64.0829926   5.6897616  73.5166016
  63.7834320   4.9690323  74.0707169  64.9879608   5.8412933  73.7891846
  17.3388023  56.4806480  80.4274292  16.9933891  56.8459053  79.6128693
  18.2864132  56.5974503  80.3594284  75.0162811  39.6625671   5.9838510
  75.9417877  39.7659416   5.7625551  74.6118698  39.3407440   5.1781740
  10.8478098  45.8824120  23.6910362  10.4983139  45.2109985  23.1051254
  10.0728674  46.3231659  24.0395069  25.3195477  57.4134102   4.3819304
  24.9587154  58.2990227   4.3403459  26.2553253  57.5430450   4.5360317
  75.3067780  38.1881027  11.1927357  75.4894409  38.7479782  10.4381475
  75.9321747  37.4678001  11.1135101  34.3187866  63.8076630  21.6923313
  34.3503990  62.9201012  21.3353081  33.7880058  64.2992020  21.0655174
  38.7501907  22.8181686  74.2191010  37.7958221  22.7446022  74.2199554
  38.9337463  23.5599899  74.7955017  32.7395325  70.9906998   6.9429388
  33.6491890  71.0554886   7.2337298  32.5229950  70.0632324   7.0385590
   3.5476189  16.8454170  42.9140053   4.2104034  16.1821194  42.7216911
   4.0489821  17.6094570  43.1988029   9.8193445  61.6266365  74.7404327
   9.3021383  61.1535759  75.3923111  10.4758358  62.0990105  75.2524033
  13.8202906  33.4613571  36.5476685  13.9936218  34.2795029  36.0820236
  13.7091007  33.7246323  37.4612083  31.4855804  27.4011135   6.1469288
  32.1470413  27.4074039   6.8387823  31.4233761  28.3142662   5.8667278
  69.5983276  26.4403248  47.7902412  70.4091339  26.7069874  48.2234917
  68.9231644  26.9922638  48.1848946  25.4738846  21.1427402  79.9730911
  26.1608906  20.5286713  80.2322693  25.5510864  21.2005081  79.0207596
  43.6371613  13.1859236  60.5762901  43.9306488  12.9207411  61.4479408
  43.9304848  14.0930223  60.4904747  84.2058182  63.9284592  54.2220154
  84.5034866  64.3696823  53.4264336  83.6223145  64.5602493  54.6422462
  12.2670517  68.6441650  68.0167389  12.8925505  68.9322128  68.6815796
  12.2981815  67.6883087  68.0567551   0.5700697  17.5053501  34.5885963
   0.2527589  16.6313591  34.3612518   0.9798474  17.3956871  35.4466705
  50.6702385  67.6548386  54.1539459  50.0725060  67.3301620  54.8273964
  51.4584122  67.1213303  54.2558708  57.1189232  12.0267048   6.8851881
  57.4231644  11.8879414   5.9882975  56.1796646  11.8455830   6.8502126
  77.6490021  22.9876289  57.8168678  78.3284836  22.4315624  57.4356461
  77.8207626  22.9644184  58.7582436  19.8699665  48.5772972  22.8792667
  20.4253159  47.9265594  22.4498920  19.1412392  48.7080231  22.2725563
  22.6165829  50.8147964  61.4025726  21.6873035  50.7539024  61.1812897
  23.0529270  50.2551460  60.7602119  56.7302780  70.1952820  59.4530067
  56.3659973  69.3573761  59.7383919  57.1622047  69.9980392  58.6218834
  78.3667603  11.2622938  39.1610413  77.8235016  10.6878767  39.7006226
  77.7399826  11.8075275  38.6855392  20.4806194  50.7890015  49.9642868
  20.8728867  51.3441887  50.6381760  20.9955959  50.9673500  49.1773796
  30.6364422  24.1290646  23.3515129  30.3786621  25.0496502  23.3035355
  31.5427608  24.1498241  23.6587410   4.3572974  46.4968719  10.1147261
   4.1589212  46.0400887   9.2972746   4.9087396  45.8855171  10.6029797
  69.5454636  42.0750656  69.3789215  70.2676926  41.4934044  69.6161575
  69.3296204  42.5326309  70.1914978  61.5225792  56.6482086  85.1681061
  60.8383179  57.1877289  85.5642548  61.9957466  56.2766953  85.9126358
  48.6029816  69.0482483  22.6733875  49.4999008  69.2001724  22.3755894
  48.6096497  68.1504593  23.0053024   4.1566463  41.6737747  16.7345810
   3.7071052  41.0131149  17.2615261   3.7454891  42.5008812  16.9857330
  57.3128815  41.7045631  10.6379652  56.6657066  41.0751228  10.9560900
  57.9558754  41.1714134  10.1704798  34.6624489  68.7633438  35.4795723
  34.6690979  69.3320389  34.7096558  35.5826569  68.5410385  35.6210899
  25.5939121  36.8975525  81.0931091  24.7485638  36.7686729  80.6629791
  26.2396564  36.6518936  80.4306183  42.7091331  49.9132080  28.0267735
  42.0629883  50.6105728  28.1381531  42.9563370  49.6709633  28.9192104
   6.3549457   1.5664339  12.3003054   6.9283385   1.9745415  12.9490728
   6.8431273   1.6244057  11.4789953  82.2591705  30.2104359  35.6478958
  82.3349762  30.4895725  36.5603485  82.2775421  31.0252075  35.1458588
  17.5688210  24.7919502  32.9765472  17.6842403  25.3446312  32.2035942
  17.4137573  23.9158325  32.6235504  78.1324005  60.3495064  18.1333351
  78.2798691  59.4228592  18.3225784  77.1915054  60.4137383  17.9695683
  61.9890862  20.3134937  84.9519577  61.1736984  19.8318863  84.8125687
  62.4184227  19.8538151  85.6734772  78.9880829  15.3756781  17.6583652
  78.0893936  15.6549253  17.4834175  79.5035095  16.1805382  17.6057949
  29.4694576  53.3071899  45.0968513  28.6738853  53.7219467  44.7632751
  29.9004841  52.9549255  44.3181610  50.4592476  60.5868454  47.5370674
  51.2018661  60.7546692  48.1172256  50.8497810  60.1977539  46.7545547
  85.2995911  62.3415260  11.2504063  85.2926559  62.3676453  10.2935877
  85.3097916  63.2613602  11.5150471  16.4491787  49.6992493  83.4201431
  17.3056870  49.4174576  83.0988693  16.6043549  50.5716057  83.7822876
  57.5705185  12.3462744  56.7542191  57.5405998  12.9086456  57.5282211
  58.0967102  11.5939245  57.0249977  85.1342773  63.1362648  79.5606461
  84.5019531  63.0084114  78.8535080  85.7644806  62.4243393  79.4500504
  42.7578659  65.6746216  82.1099014  42.0910645  64.9982910  81.9907913
  43.5885696  65.2179794  81.9770660  34.4845047  66.1087646  23.4500217
  34.9256630  66.5444260  22.7207661  34.3497963  65.2109909  23.1465721
  43.3124962   2.9234884  76.9336014  44.1148224   2.5130677  76.6110229
  43.6129761   3.7053487  77.3968964   0.5410448   9.4012690  46.1762123
   1.3978779   9.3050938  46.5919304   0.3822539  10.3451881  46.1703911
  64.3090744  44.3805275  42.1491051  63.6820450  43.7976303  41.7209740
  64.9392014  43.7913475  42.5638924  37.5409393  14.9332190  74.5245590
  37.8303757  15.7848206  74.1970901  37.0982094  14.5277939  73.7789993
  22.3327827  68.3528595  38.8081207  23.0250187  68.3022232  39.4672661
  22.3823147  67.5171280  38.3440819  65.4936752  54.1067123  83.5946960
  64.7422333  54.1359062  83.0024872  65.1077728  54.0835533  84.4703522
  72.7100220  40.1485367  63.9271889  71.9560699  39.7056122  64.3165588
  73.4484177  39.5662003  64.1057434   9.7722950   9.2949753  39.0701752
  10.7237768   9.2463417  38.9777107   9.4769125   9.7401228  38.2759323
  48.9163475  55.6899490  53.3456802  49.2561760  54.8285179  53.5879364
  48.1885605  55.8387489  53.9493484  84.3617325   3.8972063   8.3116055
  83.9887009   3.7087479   9.1727467  83.8640747   4.6509829   7.9947629
  64.7291870  47.7502823  66.9950562  65.1674347  46.9828644  67.3628082
  65.0939789  47.8352318  66.1141815   6.9787765  46.5263939  75.7614822
   6.4041533  46.4163055  75.0039139   6.4068666  46.8696289  76.4480286
  36.7008209  47.2646599  83.4468613  36.7711678  46.9511719  84.3485260
  36.3052673  48.1327744  83.5252762  25.2353497  52.5229530  67.8855286
  25.5353489  51.7668762  67.3809738  24.4163303  52.2330933  68.2873001
  10.7436247  68.0941544  73.4480667  10.6640539  67.3829880  74.0837936
  10.7645979  68.8896713  73.9799881   3.9764595  41.0385742  27.0286827
   3.5553010  40.9627876  26.1724606   3.5594091  40.3615227  27.5615063
   0.1660007  43.3226471  85.9630737  -0.0889423  42.6175880  85.3679886
   0.2628707  42.8947487  86.8138046  49.1039619  38.1006165  27.2782326
  48.4940681  38.1291313  28.0154228  49.9526100  37.9078140  27.6768036
  71.3344574  64.5750275   0.5675699  71.7077179  63.7050514   0.7091849
  71.9363022  65.1696472   1.0152785  32.6730423  54.2737427  84.0173340
  32.9784851  54.4522667  83.1279144  32.8482628  55.0829277  84.4976959
  67.5334015  61.3507347  56.7670517  68.1352386  61.3381958  56.0228271
  67.9347992  61.9571037  57.3894882  20.8660259  13.4358311   3.7981694
  19.9826660  13.5379934   4.1523900  20.7994976  12.6918259   3.1996195
  82.0546494  59.3852959  86.3307190  82.5101929  58.9310074  85.6219635
  81.4476471  58.7336922  86.6817017  83.7533798  44.7883644  63.2450752
  83.6261520  43.8484306  63.1163597  82.8762131  45.1262817  63.4256668
  29.8783092  38.5401421  27.8877277  29.7600842  37.6010208  27.7452450
  29.5434265  38.6923485  28.7714233  13.0081902   7.5892410  72.6015930
  12.3028364   7.0860267  72.1948013  12.9141846   8.4699745  72.2386856
   8.7866526  70.8598175  62.3834343   8.0620718  70.3685379  62.7705498
   9.5725231  70.3995361  62.6780090  63.0312996  49.9779434  63.9384995
  63.2811699  49.4765701  63.1623421  62.1889496  49.6074753  64.2020111
  82.9092560  58.5269928  40.0969086  82.2454834  57.8417702  40.0187912
  82.4131470  59.3451653  40.0704918  74.7770920   3.2469344  47.7937508
  75.4415207   3.0247252  47.1415291  74.1422272   3.7811723  47.3164978
  51.9838257  39.7299004  64.7575455  51.2711678  39.8559761  65.3840103
  52.5786057  40.4618759  64.9208908  69.8430252  50.1394730  42.2606583
  70.4378586  49.6620750  41.6823044  69.0168457  50.1743660  41.7785378
   8.2170162  65.8646317   8.9009991   8.2796412  66.5734787   8.2608070
   7.6982522  66.2329330   9.6161680  58.4392090  12.4450016  49.7926636
  58.8726616  12.3355694  48.9462738  58.5025291  13.3825903  49.9747353
  82.6473541  39.8900528  62.3740425  82.6523666  39.4127579  63.2037392
  81.8974991  40.4810638  62.4422417  79.1004028  39.2989006  24.8107109
  79.7922363  39.4703255  24.1717911  79.3086777  39.8717461  25.5487518
  81.0798950  25.9195518  27.3778553  80.6813354  26.3507423  28.1338043
  81.6315079  25.2347469  27.7560120   5.8344169  70.5804520   5.0795531
   6.4301434  70.2863388   4.3904676   6.3417363  71.2217636   5.5771179
  67.5190659  12.3707447  15.9496088  67.4325027  11.5106688  15.5385056
  67.4191742  12.1997328  16.8860950  85.5688095  54.3410873  77.3581924
  85.3698807  53.7558403  78.0890503  85.1878433  53.9082146  76.5941772
  22.4806786   8.3508549  11.5628567  22.0139351   9.0247421  11.0686321
  23.2462578   8.8019142  11.9187584  63.4981728  46.8686943  42.6899490
  64.2812500  47.4188538  42.7085915  63.8279724  45.9887199  42.5079803
  56.1087265  34.7530899   5.1528230  56.1214218  33.7967415   5.1911511
  55.2735939  34.9650192   4.7358460  54.5568275  36.6753120  60.3308525
  55.2110329  36.5209465  61.0123367  55.0506439  37.0626945  59.6081390
  40.1366386  49.3613548  74.4411545  40.4002495  48.4422531  74.3965378
  39.8446541  49.4831924  75.3445511  23.4044533  58.6628914  63.2589722
  23.5084534  58.0562134  63.9920158  22.5476780  59.0654106  63.4009018
  40.9753609   6.2512803  71.0256348  41.6795845   6.6387405  71.5454178
  40.1997643   6.3228626  71.5820160  39.1543808  23.1465569  70.6782684
  39.8956795  22.5922737  70.4343872  38.4765091  22.5309238  70.9570465
  27.4277439  39.7922668  71.6361847  28.2790565  40.2297058  71.6241379
  27.2046661  39.7278748  72.5647964  74.3261414  63.7003899  27.3067207
  73.7421799  62.9513512  27.4257374  73.7416382  64.4288406  27.0970783
  75.9446945   5.8253613  53.0136223  76.3248138   5.0458770  53.4187775
  76.3614120   5.8755441  52.1533508  18.9561672  39.5745888  32.0853233
  19.2686272  38.8059006  32.5625229  18.0023899  39.4954147  32.1018715
  25.0043297   1.1481773  86.7354736  25.5963898   0.5658798  87.2115326
  24.6174316   1.7025324  87.4131393   4.1754251   9.5107832  37.2841682
   4.5725131  10.1795235  37.8421478   3.8560519   9.9936333  36.5218773
  66.0683441  14.3834696  18.9718151  66.6542892  13.6293287  18.9072247
  66.4876328  15.0589056  18.4386959  35.8293266  43.4257011   5.8279872
  35.5701675  42.5067596   5.7600708  35.6587181  43.7875671   4.9584012
  44.8842316  59.7702713  40.1590919  44.8728447  60.7262840  40.2053528
  43.9609871  59.5216560  40.1138573  39.1766777  15.2830420  71.0590210
  38.6967697  14.4808693  70.8530121  40.0985870  15.0357304  70.9872513
  31.9611492   5.2086430  77.4731522  32.0856667   5.1341434  76.5270157
  31.0543232   4.9382954  77.6174088  72.5689697   5.4329820  29.4362621
  73.4581833   5.5980468  29.1227589  72.6792297   4.8033686  30.1487675
  21.9926605   3.2805007   1.8802750  22.3091335   2.5806706   2.4515152
  21.1844540   2.9339862   1.5021738  75.4666748  42.9841423  85.4057236
  74.5314102  43.1199913  85.2538986  75.5650864  43.0365372  86.3564072
  70.4121399  65.7311249  28.3858376  70.1641464  64.9515305  28.8827934
  71.2113571  66.0420303  28.8110695  51.1873093  22.4352283   3.7016003
  50.9520111  21.5264378   3.8885930  52.1398506  22.4216671   3.6082704
  53.1378250   5.9499068  65.1401215  53.4884644   6.7463431  64.7414093
  53.6067467   5.8715086  65.9709015   8.5024319  30.6392632  54.1857948
   8.2410383  31.5193996  53.9151192   8.4796562  30.6661949  55.1423454
  32.6503181  13.4240007  71.9407196  31.8669968  12.9951801  72.2853241
  32.3163605  14.0614939  71.3096085  77.8623428  28.2683868  66.3363266
  77.0058975  27.8623123  66.2027969  78.3026581  28.1823463  65.4907761
  69.7570801  16.0948772  49.9572334  70.4346008  16.6099663  50.3952751
  68.9469757  16.5787907  50.1178169  12.4758348  69.2610931  24.0848751
  13.1183977  68.8998489  23.4742622  12.3541946  70.1658554  23.7970657
   7.1704063  54.3431664  21.9699841   7.7087159  53.5724106  22.1499538
   6.5377026  54.0460320  21.3160496   4.7681713  50.5692940  30.7671986
   3.9280605  50.4118881  30.3363056   4.5349517  50.9367752  31.6197224
  12.6246910   9.3072281  88.4845734  12.8464651   8.5481110  87.9453278
  13.0341806  10.0472641  88.0363617   4.9712453  36.1001358   9.2475367
   4.8413725  36.1258850  10.1955357   4.3459191  36.7375526   8.9027195
  59.8779030   4.0542946  41.1317215  58.9908562   4.2186542  41.4516678
  59.8337021   3.1816306  40.7409058   1.2602586   5.4476123  70.9292984
   0.3670838   5.7909245  70.9539413   1.1524848   4.4970698  70.9622421
   1.2061691  56.5759888  20.3238907   1.6949742  55.8974266  19.8582115
   1.0330087  57.2442017  19.6607647  82.2402267   5.7544770   7.4260221
  82.1058426   5.4528270   6.5275903  81.8207016   6.6143460   7.4552498
   2.1285598  25.8201370  15.5709715   2.6021450  26.0435276  16.3722496
   1.3532451  25.3480530  15.8747063  30.8912468   1.5236828  80.1715622
  31.0538731   0.6080108  79.9449997  31.7637978   1.9075807  80.2582245
  16.0405064   7.4037056  54.9855957  15.1634302   7.7008290  54.7433434
  16.0848103   6.5024586  54.6661873   6.8039050   2.4483786  38.4383812
   6.9385896   2.7418375  37.5372849   7.0360670   3.2066422  38.9744492
  21.1274185  27.4021206  10.2211571  21.0647011  28.2156544   9.7206964
  21.4469051  27.6741829  11.0814734  33.7525253   5.1970649  28.7329464
  34.1585312   5.6255074  27.9794025  33.9721336   5.7597990  29.4754658
  45.8495331  27.3831501   2.2112451  45.6885948  27.4967594   1.2745363
  45.0626221  26.9472351   2.5383277   8.2492485  40.7433014  31.5788822
   8.8567677  41.3634033  31.1756115   7.8597426  40.2749977  30.8405018
  60.8239136  67.4921112  21.3064766  61.1857491  66.6307220  21.0983524
  61.0749893  67.6435776  22.2176590  76.2389908  31.6022701  12.9898424
  75.4366455  31.1897888  12.6699419  75.9565277  32.4587517  13.3105965
  22.7675018  25.9002953  75.0860825  22.3478508  26.5261250  75.6763916
  22.2062225  25.1256657  75.1199341  75.0196304   3.9741642  64.0744476
  74.5416489   3.3133435  64.5755310  75.3902206   4.5561357  64.7379303
  64.8934250  31.5782261  19.8020554  64.8719940  30.6276226  19.9121590
  65.5797272  31.7286301  19.1519756  75.3564301  63.3609238  87.1926193
  75.8273163  62.9485397  86.4684372  74.9382095  62.6326866  87.6519547
  80.5742950   7.0350580  15.8773251  81.1229095   7.3161111  15.1450272
  81.1798401   6.9585190  16.6146774  71.1588669   2.8830459  33.0330429
  71.0745544   3.8327487  32.9482651  71.7136993   2.7596533  33.8032188
  21.3535881  19.2055473   8.3347502  21.7221661  18.5386524   7.7554116
  22.1102161  19.7142105   8.6263094  60.8142815  16.7621040  44.4427338
  60.1125526  16.7718353  45.0936661  60.5522194  17.4194603  43.7981873
  74.0817413  70.4619904  12.5747566  73.3449097  71.0218048  12.3299942
  74.8493042  71.0285187  12.4965229  71.8772125  57.4617882  13.7903032
  72.6197891  56.9769821  13.4300518  72.1187515  57.6274719  14.7015886
  50.2578354  70.9999466  19.5027828  50.2065773  71.9310532  19.2867889
  49.3552589  70.7498856  19.7004223  62.0062904  57.6899643  20.2010231
  62.4627419  57.6461639  21.0412426  62.1138573  56.8166542  19.8242035
   9.9900742  59.2908669  85.3568573   9.3492022  58.9241028  85.9659576
   9.9205389  60.2378769  85.4775391  36.7590599   0.1154275  82.3166046
  36.5195656  -0.2944042  83.1478119  37.3038673   0.8619515  82.5658340
  26.3526630   4.0391383  70.8262482  26.7988033   4.5080905  71.5314255
  25.6679020   4.6408458  70.5342178  80.4728928  18.1981983  70.1995239
  80.0551910  18.7118664  70.8908234  80.5466919  17.3174095  70.5669403
  19.3430748  25.3402748  12.1492243  18.8133621  25.2319603  12.9391012
  18.8848877  26.0117016  11.6437731  29.6499138   5.1022429  34.1498222
  29.9428120   5.6917062  34.8447876  30.4328632   4.9472327  33.6214333
  41.9698944  19.1000462  24.5733871  42.5291176  19.8018055  24.2401676
  41.9946213  19.2052498  25.5244656  40.4843445   7.6517019  28.6282597
  40.9174576   8.0930815  29.3588943  40.7934151   8.1163511  27.8505650
  75.0777664  30.8084450  18.4545212  74.7205353  31.1306248  17.6269836
  74.7021179  29.9335709  18.5531082  56.8185005  60.8248291   7.7659001
  56.4502983  60.7388611   8.6452560  57.6778069  61.2232895   7.9039483
   6.7858348  66.8448105  17.8925972   6.8295918  67.5844879  18.4985600
   6.1381927  66.2559052  18.2798748  19.8410416  13.9436245  52.4359779
  20.3325920  14.6063356  52.9211807  19.9111385  13.1534729  52.9716797
   9.7865915  54.6802788   8.5454769   9.5699167  55.0094490   9.4177895
   9.6380711  55.4261971   7.9642897  10.3305550  26.8809414   7.1677284
  10.0419836  27.2925873   6.3531694   9.5250645  26.7484760   7.6675982
  59.6721458  16.6914444  24.1208363  59.1358261  16.0465202  24.5819950
  59.0488586  17.1823273  23.5853176   3.3789082  17.8049488  76.1278839
   4.1634855  17.5812664  75.6272430   3.1976650  17.0239258  76.6507416
  54.9255104  49.9607544  58.6770821  54.2152138  49.7181473  58.0830688
  54.5898781  50.7194824  59.1544876  22.5947304  54.6939735  65.1518860
  21.8996868  54.9144707  64.5317841  22.3522377  53.8305206  65.4863663
  24.4815350  60.2304344  73.4145126  23.8240719  59.5798912  73.6610260
  24.9681950  59.8201218  72.6996460   4.4484582  54.8632393  57.0645370
   5.2426205  55.3959808  57.1060982   4.6630220  54.1609421  56.4505615
  85.5550995  46.7403526  73.5138931  86.4572525  46.8748436  73.8041916
  85.5560455  45.8649178  73.1267929  33.2657318  33.4500122  14.6323767
  33.1565132  32.8098373  13.9291859  32.5148811  33.3041115  15.2078505
  10.4931221  17.3539429  73.7788315   9.7372503  17.9388638  73.8313522
  10.2743492  16.7424068  73.0757065   3.5550387  59.8215218  70.4924850
   4.3383188  60.2731400  70.8067169   3.6666741  58.9168968  70.7847672
  40.9833755  38.7466812  73.7599640  40.3967361  38.1699219  74.2492905
  41.5359802  38.1519127  73.2529068  79.7391281  69.9080429  49.6322899
  80.1478577  70.2551956  48.8394127  80.1811295  69.0725708  49.7834854
  46.8094826  16.8674812   5.7130475  47.1865959  17.3731537   4.9931083
  46.0816574  16.3900185   5.3148870  63.0859680   5.8258114  16.8194809
  63.0259705   6.3939595  16.0514717  63.9289093   6.0467210  17.2155647
  74.5198975  50.5876770  22.4311619  74.0737076  50.5918770  23.2779942
  75.3554611  50.1533966  22.6028423  71.7663956  33.9291878  67.6211624
  71.5383453  34.8586578  67.6386871  71.9714584  33.7501450  66.7034912
  46.8664284   7.8353496  15.8459740  46.9074364   6.9083972  16.0811539
  47.3299828   8.2827902  16.5538902  39.2007637  25.5683784  72.6308670
  39.1484909  24.8220940  72.0337448  39.0998611  25.1854000  73.5022888
  48.8565140  13.9980497  66.5575714  48.9900665  14.7364016  67.1519012
  47.9871559  14.1448078  66.1848602  28.3895283  66.8345871  75.0585785
  27.8134861  67.0768356  74.3335114  29.2330704  67.2285843  74.8362427
  82.7173691   4.0932226  24.7546902  81.8080139   4.2700825  24.5137920
  82.8914566   4.6868997  25.4850826  49.8722878   9.1279421  30.9301300
  50.6893158   8.9655037  31.4016304  50.1057167   9.0330038  30.0066967
  70.3968048  54.3175926  20.2127438  70.6732941  54.6104164  21.0811005
  69.5670319  53.8654823  20.3653870  48.7834854  11.9328203   4.6462502
  49.4305229  12.2538404   4.0181403  49.0347252  11.0229301   4.8050265
  24.3080807  69.3065796  41.4907799  24.7006989  68.4338455  41.5111694
  24.6306877  69.7329483  42.2847328  57.4051361  38.9091263   9.6637440
  56.8208122  38.3857880   9.1151867  58.2508621  38.4647141   9.6047869
  45.2161179   9.1259785  87.4754257  44.9856033   9.0116434  86.5534592
  44.9039917   8.3274984  87.9011536  39.5545883   3.2307839  84.9120102
  38.6791496   3.1930201  85.2972488  40.1305885   2.8803895  85.5914764
  45.0294151  14.7152014  25.4283676  44.8505516  14.3759794  24.5513458
  45.3889847  15.5895081  25.2782707  36.3512115  54.6445541  52.5133324
  36.8114128  53.8053360  52.5260277  36.9070435  55.2303123  53.0273056
  31.6271725  68.6515579  16.4387856  31.4112682  69.1368256  15.6424656
  32.1944962  69.2430191  16.9333038  45.8184814  18.5454731  10.2729101
  46.2301331  18.0390339   9.5727005  44.8788261  18.4434166  10.1217175
   6.6889353   9.9303751  76.5044479   6.3093038   9.3849325  75.8155289
   6.1625581   9.7372084  77.2802353  12.2232275  36.9328041  32.0686226
  12.3847885  37.1032219  32.9965706  11.5583544  36.2442169  32.0637779
  49.1235199   3.8387103  21.0584049  49.3628998   3.4825964  21.9140396
  48.2409210   4.1877298  21.1826496  75.8273773   7.2949367  25.6155853
  75.9000931   6.9695315  24.7183361  76.6113663   7.8296671  25.7407093
  45.2874756   4.5620012  79.3770523  44.5135460   4.4854193  79.9350815
  45.3563995   5.4982719  79.1902924  82.1311951  36.2512550  49.4793854
  81.4478760  35.6767235  49.8246727  82.3373108  36.8409996  50.2046089
   3.4674644  48.6275711  73.4242554   4.3006177  48.5897331  72.9545135
   3.3584721  47.7496223  73.7897186  57.7132301  34.5099411  55.9042435
  57.6118050  34.2826118  56.8285103  57.7532806  33.6666374  55.4531746
  16.2864227  19.8709030  23.2316742  16.9746132  19.2059383  23.2527752
  16.7456722  20.6959457  23.3886013  14.6211443  22.1678467  75.8208160
  13.7389355  22.5390816  75.8096771  14.4824820  21.2207451  75.8201141
  56.1835861  68.3420258   7.9294200  56.9857025  67.8578568   8.1254482
  55.4831810  67.6983795   8.0361128   1.1168935  21.5845718  41.1833954
   1.7505481  22.2517948  40.9197159   1.4867798  21.2046185  41.9802971
  60.0689583   1.2144066  34.6127815  59.7681084   2.1173434  34.7148933
  59.4050865   0.8017885  34.0602837  84.8556900   3.7061524  85.0575790
  84.4426575   2.8560147  85.2089081  84.1731567   4.2335620  84.6425934
   5.2794232   5.1477232  51.5355911   5.7684278   5.8059464  51.0417786
   4.8525987   5.6416931  52.2356224  68.7245865  34.2030449  70.0867310
  68.2413101  33.9488983  70.8729095  68.0488510  34.3300323  69.4207764
  73.5242233  12.5705452  67.9764252  73.4469299  11.9684715  67.2363205
  72.7810974  12.3543415  68.5396805  19.6653175  61.4295311  37.8442917
  19.9678230  62.2913513  37.5579605  20.4636879  60.9058838  37.9123421
  39.8945312  19.4334564  16.5145550  40.6886063  19.3341141  17.0397263
  40.1212883  20.0941658  15.8601265  31.0842266  64.8991165   0.1973295
  30.5015411  64.3240738  -0.2986948  31.7706356  64.3186340   0.5261417
  73.2970505  71.0640182  15.2696695  73.4025192  70.1496887  15.5325480
  73.8736649  71.1634750  14.5121355  15.6551809  43.8721466  31.6877422
  15.3264618  44.4273224  32.3948174  16.2974873  43.3017235  32.1099930
  67.1554794  11.8605299  35.2330971  67.4725266  11.0992632  35.7190895
  66.2294617  11.6758642  35.0761948  81.5989151  13.9571486  63.8123055
  81.2600174  13.3282938  64.4494247  81.1141129  14.7631187  63.9901085
  22.1437187  32.8789444  22.0630627  23.0885162  32.9915771  22.1674728
  21.8807201  33.5905991  21.4794445  13.7978392  65.2247162   6.6982975
  14.3543978  65.7169647   7.3017612  14.2893362  64.4231644   6.5189238
  50.8163834  70.4360733  26.8350182  51.5698395  70.9718018  27.0830746
  50.6246872  69.9163055  27.6156082  64.8618317  39.9724655  18.4736633
  64.1722794  39.5756569  19.0059147  65.3284912  39.2285156  18.0928650
  54.8564224  47.5116692  84.1608734  54.2226830  47.8691406  83.5389252
  55.7037926  47.6223145  83.7296524  26.5223751  39.4457474  83.7263794
  25.8605671  39.4867935  84.4167099  26.8086472  38.5323639  83.7230301
   1.6978058  14.1087132  84.5294876   1.7363023  15.0277576  84.7942657
   1.4881476  14.1369934  83.5959549  34.1539803  70.4418793  77.5630035
  34.8012123  69.9321518  77.0756607  34.6189117  70.7315063  78.3479767
  14.2313757  71.1549988  47.3243065  13.9496107  72.0661697  47.2429810
  13.4712458  70.6435852  47.0470276  61.5050812  62.5370674  88.1296539
  62.0916519  63.2363930  88.4179459  61.1661873  62.1589775  88.9410934
  37.3990555  70.2373047   6.3857841  36.8424530  69.6256104   5.9038482
  37.6088676  70.9217758   5.7504096  51.0546455  67.4139633  58.4391594
  51.9082451  67.2912979  58.0237656  51.2509613  67.8610306  59.2624588
  32.4730186  40.2345963  24.6810665  32.8446732  39.5745850  25.2662926
  31.8640232  40.7270164  25.2314110  43.3146286  29.4897327  77.0419617
  42.3629951  29.5724316  76.9804306  43.4553261  28.6274090  77.4329071
  20.4373341  37.3517799  36.2677155  19.6955910  36.7555237  36.3703346
  20.3279190  37.7216187  35.3916550  12.8969984   8.9291248  45.1101875
  13.5030880   9.4997492  44.6376686  12.6642942   9.4246988  45.8953552
  31.9804325  63.7194099  42.7299118  31.2266979  63.9774551  42.1993217
  32.5740280  64.4688721  42.6832581  63.2831955  34.9232979  69.8836060
  63.2815247  34.8251419  68.9314575  62.3569489  34.9355774  70.1247482
  79.3356400  57.6749992  73.9393082  79.1268387  56.8763084  74.4237976
  79.5438385  57.3715935  73.0556641   2.2149661  57.3992615  68.4816971
   1.8576474  57.6592827  69.3307877   2.1305978  56.4458847  68.4681396
   8.9943485   2.2503631  34.7209854   8.6569519   3.1350102  34.8616753
   8.2308617   1.6830143  34.8279190  83.8591919  16.8351440  67.4708252
  83.2754898  17.4686775  67.0534973  84.3391266  16.4370651  66.7445831
  43.0620155  67.2917709  50.2141609  42.4983177  67.8083115  49.6382561
  43.4151764  67.9273834  50.8366623  76.4241257  38.1752167  16.3461895
  76.4665375  38.6724625  15.5293779  77.2542725  38.3628731  16.7842140
  55.2707291  11.6214399   9.6787338  56.1399498  11.2217836   9.7097273
  54.7016258  10.9309587   9.3387508  78.0565948  13.7353525  11.6617451
  77.6674194  12.8609810  11.6459532  77.4124908  14.2759790  12.1190023
  67.1561050  19.3040104  75.4817657  66.8262711  18.5682182  74.9659576
  67.6915283  19.8062096  74.8674774  15.4275360   2.0209219  25.7287502
  15.9960747   1.2733957  25.5438175  14.8071833   1.6945429  26.3805733
  61.5746727  61.1060448  12.0741129  60.6607780  61.0446396  11.7961512
  61.5894699  61.8402824  12.6880407  67.5613098   9.8525972  63.2290688
  67.7730560   8.9391165  63.4212914  66.6141434   9.8549423  63.0908928
  79.8504410  26.4928036  10.3032484  80.0979385  25.9841423   9.5310831
  80.4733276  27.2193851  10.3211727  34.6208992  63.0044556  49.0572243
  33.8641319  62.4249611  48.9693604  35.2042923  62.5464745  49.6623192
   3.8375783   4.9399271  88.4626541   3.9289894   5.8196130  88.8287506
   3.0278573   4.6036263  88.8466949  41.1230583  22.7561302   7.2665739
  40.9376602  21.8557606   6.9997520  41.8794441  23.0115128   6.7384696
  78.1011734  53.0706139  37.6974602  77.4058533  52.7372818  38.2646103
  77.7070999  53.8196220  37.2503242  69.6694489  46.3727570  15.7304277
  69.4180908  45.4862137  15.4714155  69.3183670  46.4723663  16.6153278
  84.9786835  34.4797630  84.9209518  85.0559769  35.1409836  85.6087341
  85.8269882  34.4948311  84.4777985  81.7345886  28.6648979  49.5673790
  82.6437912  28.4919891  49.3230705  81.5450211  28.0247726  50.2533340
  60.9626427  70.2617493  17.1448231  61.6298561  69.9775696  16.5200787
  61.0029335  69.6147614  17.8491116   8.3370981  12.8914919  84.9343262
   7.7483082  13.0067644  85.6801682   8.1646814  12.0010157  84.6284561
  51.8690300  20.6958447  55.7434845  51.0999603  20.9431171  56.2569237
  51.6878891  19.8007584  55.4567108   4.0024939  28.8518353  60.4207344
   4.5986485  28.8860550  61.1688385   3.1763294  28.5364227  60.7870674
  63.0741920  44.9658546  49.8263741  63.0267868  45.3090630  50.7186699
  63.6067200  45.6043968  49.3521233  41.9599533   5.8844104   0.8727105
  41.2908058   6.5678282   0.8350848  42.3483887   5.9771657   1.7426217
  34.0353966  54.4974136  81.7641296  33.9027061  55.4451866  81.7830048
  33.8733139  54.2509651  80.8535156  21.0147400  57.0485802  60.6806335
  21.6070824  57.7665672  60.4573441  20.1754799  57.4753227  60.8531609
  53.0527344   3.7982845  40.3954468  52.6780090   3.5637164  41.2444420
  52.7347107   4.6858726  40.2302742  36.9828262  55.5811615  70.2429428
  36.7978668  54.7851562  69.7445450  36.2422218  55.6652451  70.8434982
  43.6262054  58.6641350  25.6263943  43.0105171  58.1414299  25.1126404
  44.3944054  58.1015549  25.7244034  57.7113876  57.6342621  59.7413025
  58.2467041  57.7613678  58.9580345  57.3035393  56.7773819  59.6162109
  56.5838623  54.7533913  20.9509640  56.8977089  53.9182167  20.6042423
  57.3443985  55.3327866  20.9049778  46.9741364  14.8292217  38.9370918
  47.6339951  14.5589170  39.5756493  46.1495438  14.8119869  39.4228668
  68.9142151   5.1391015   5.4876924  68.0093536   5.4495826   5.5202355
  69.4426041   5.9277635   5.6103692  73.2839050  44.9874611  51.3607330
  73.2548447  44.0317497  51.3159981  73.7294083  45.2514801  50.5557137
  85.3677216  45.8120232  65.2844925  84.8897476  45.4471588  64.5397415
  85.2068329  45.1946220  65.9980545   2.0981121  19.9287167  43.2955246
   3.0267010  19.7062187  43.2288170   1.6836581  19.1308937  43.6240654
  27.3606682  64.7351379  31.3990078  26.8146801  64.3014984  32.0548172
  26.7818260  64.8537598  30.6459465  29.6072559  10.5877571  55.9388161
  29.5184727  10.7066698  54.9931870  28.7099991  10.6247978  56.2701569
  72.3026657  60.6061516  82.0769043  72.1320724  60.7937393  81.1539001
  73.2234116  60.8360329  82.2018280  74.4991531  21.2264519   4.6368704
  74.2228546  21.3083458   3.7240820  74.1481400  22.0076408   5.0643764
  11.8341503  13.8096437  51.6512299  11.4518242  13.3183346  52.3783302
  12.6886005  13.4020405  51.5097885  64.5451355  19.6965904  25.2336807
  64.5505905  20.2337627  24.4414368  65.4334488  19.7740517  25.5817051
  65.7539291  20.1127872  57.3560562  66.5829773  20.4090710  56.9803848
  65.3656921  20.9026089  57.7324638  13.6860504  50.4465752   5.7326002
  13.8288250  49.6174393   5.2761068  13.1987858  50.9833183   5.1075315
  84.5373535  65.5379333   3.3532631  85.4362183  65.5798416   3.0268965
  84.0716248  66.2130051   2.8597054   4.2361903   1.3954443  39.4484024
   5.1416626   1.6646516  39.6029320   3.8581052   2.1098409  38.9356461
  50.8872719  46.1502647  33.4272308  49.9380684  46.2186203  33.5300598
  51.1813278  47.0537949  33.3114777  52.0354195  50.5494461  36.8189011
  51.8981895  49.6561661  37.1342659  52.9866905  50.6405869  36.7640305
  40.8507614  42.3609009  78.9984283  40.7410240  42.4362793  78.0505295
  40.7930374  41.4213905  79.1722641  38.3395576  49.2226219  85.9856567
  37.6500397  49.5248795  86.5767899  38.1057549  48.3154984  85.7889404
  62.4678955   1.2277994  45.8479919  62.4116974   0.6434017  46.6040039
  61.8472862   0.8633724  45.2169075   7.0797858  15.4528408  82.2123337
   6.1953607  15.7609854  82.0146713   7.3497787  15.9703827  82.9709396
  20.2153187  60.3112450  73.6664124  20.9146023  59.7239037  73.9532318
  20.5248795  60.6624336  72.8315048  14.7614603  38.8005524  73.8749924
  14.1683073  39.1066170  73.1888962  15.0098619  39.5944519  74.3485489
  50.4103928  65.9448395  72.3404236  50.1385612  65.1141815  72.7307434
  50.9645233  65.6924438  71.6018600   4.0780058   9.1384983  31.6910400
   4.7536488   8.6835766  32.1938171   4.3689814  10.0501308  31.6688938
  57.2377586   9.0817223  72.0105057  56.2854958   9.1637907  72.0623474
  57.4269943   8.2322340  72.4089966  11.2459784   5.5779214  66.4077454
  10.9247227   4.6767597  66.4383163  11.0715961   5.9241800  67.2829208
  54.7136383  16.7498856  38.0435410  54.7113113  15.9833517  38.6168213
  55.6212730  16.8261147  37.7492371  75.0584259  22.3003578  72.5723343
  75.6560593  22.3129559  71.8247299  74.7870178  23.2122402  72.6773987
  54.5192719   4.9763122  37.6145325  54.1215973   5.2891026  38.4270897
  55.0654984   5.7048011  37.3192863  69.2090683  45.3525887  12.2591696
  70.0733566  45.7298775  12.0951929  68.6111374  46.0992050  12.2235622
  80.5013275  18.1434517  75.2033920  80.4540024  17.2137260  74.9806747
  81.3736115  18.4142456  74.9169846  16.7372303  25.0341587  57.1691475
  17.0952435  25.0037098  58.0563507  16.5639439  25.9624233  57.0125237
  34.3921013  31.5844860  17.7170048  33.6233177  31.0534229  17.9247875
  34.0474434  32.4700012  17.6016579  54.2337189  36.2184486  12.4173765
  53.3061790  36.4026680  12.5655804  54.6732826  36.5610619  13.1956005
   1.3296367  51.6998634  76.8085251   1.4401505  50.8063698  77.1336212
   1.6452821  52.2549477  77.5215988  43.5813408  26.2005959  74.5444794
  44.3072052  26.4481297  73.9716949  43.9576607  26.2074032  75.4245758
  48.7894936  68.6205444  25.7489071  48.8336411  67.7819595  26.2083206
  49.6807556  68.9665070  25.7957363   4.4195819  71.1057205  72.7814407
   4.9696183  71.5838089  72.1608582   4.5111566  70.1880493  72.5250702
  80.7932587  29.4688568   6.9874578  80.2379532  28.6897888   7.0177631
  80.7036362  29.7921391   6.0909705  61.9453468  58.4311638  30.6853580
  61.1051598  58.4144821  30.2270565  62.5956154  58.5297318  29.9898987
  10.8924913  13.3530254   8.8062458  11.0201082  13.6736145   9.6990881
  11.2227440  14.0578899   8.2491722  25.6779575   0.9100324  38.4466934
  25.9857578   0.8521909  39.3512077  24.9351540   0.3075896  38.4074783
  34.6338654  50.0350342  24.7366734  34.3502846  50.9342079  24.5714378
  34.7461205  49.9899597  25.6861992  26.7854939  54.5771942  33.2070122
  25.8858967  54.2535019  33.1603165  27.3187103  53.8498154  32.8863411
   9.8979626  60.6812325  21.7627754   9.7178345  59.8809509  21.2694874
   9.6572304  61.3897858  21.1659241  43.7306786  30.4607391  72.3538132
  43.4938278  29.8450794  73.0474243  44.4621735  30.9603329  72.7165146
  10.6629267   1.4635254  56.9324646  10.1901159   1.9286612  57.6226311
   9.9831638   0.9875658  56.4553719  13.8906765  48.2672310  40.4735832
  13.4757280  48.8514481  41.1082001  14.3376446  48.8544655  39.8639832
  69.6557312  11.4240179  61.9653244  70.5448151  11.0725307  61.9183426
  69.1707077  10.7803764  62.4817657  40.3439865   2.3847711  10.0430994
  40.6627579   1.6874621   9.4700584  39.4963074   2.0689042  10.3559971
  46.1939964  34.2623367  70.2480850  46.1161842  34.8335609  69.4839630
  45.6131363  34.6542053  70.9002151  85.6553955  16.1502190  31.9813309
  84.9383545  15.9016132  31.3979893  86.0098801  15.3176537  32.2934341
  58.4467163  36.8533707  61.5449486  58.5782089  36.0594711  61.0266190
  57.6748314  36.6656456  62.0789719  78.3214188  67.0758667  80.2646255
  78.4746017  66.3651886  79.6419678  79.1205444  67.6015854  80.2294006
  53.2535820  21.5944309   0.4100784  52.3126831  21.4754009   0.2805848
  53.5248871  20.8273659   0.9142994  14.3028736  45.6759529  40.6856079
  13.8518419  45.3789940  39.8952827  14.3234663  46.6295815  40.6056213
  28.5991039  35.9635849   7.8835893  29.3640537  35.9171257   8.4571104
  28.2843151  35.0611801   7.8306050  49.9418755  30.9990635  57.8157806
  50.8672142  31.1763401  57.6468086  49.8750839  30.0442581  57.8050766
  65.8217850  35.5173683  83.5832901  65.6416321  36.3819084  83.2140350
  66.6826782  35.6062241  83.9921875  59.0264397  57.7495728  12.0847025
  58.5041733  58.0604477  12.8241787  59.6226692  57.1054268  12.4665670
  81.5381622  40.8819580  20.0810986  81.9391251  41.2300415  19.2846680
  81.7328644  39.9450684  20.0575123  78.5719528  25.7573948   2.7417428
  79.3432922  26.1519718   2.3348341  77.8783646  25.8602734   2.0901449
   3.3613551  64.2459641  63.9063950   2.5716803  64.1934204  64.4448013
   3.3933160  65.1576309  63.6164322  49.1438255  36.4855080  54.2927742
  49.7167969  37.2331009  54.1223488  48.3405037  36.8735924  54.6396065
   4.4769197   6.4492159  44.9420586   4.6872468   6.7186804  45.8361435
   3.5270662   6.5493283  44.8789139  58.6785927  61.7699242  11.6739740
  58.5569916  61.4932175  12.5822020  57.8493538  62.1852074  11.4370441
  81.4854126  55.2017860  14.7142220  81.2280960  54.4728317  15.2787075
  81.2148361  55.9840546  15.1949282  73.1545715  46.6690979  25.9352970
  73.9912720  46.7061539  26.3987598  72.5059052  46.5213318  26.6234989
  14.2288446  30.2241859  32.2586746  14.4497833  30.7886620  31.5178757
  15.0746937  29.9266510  32.5937042  37.3944588  35.6540184  83.7533264
  37.3311157  35.3481560  82.8485260  38.1973190  36.1747818  83.7744598
  80.5455246  60.0964088  66.9075089  81.4754105  59.9532623  66.7312622
  80.1352844  60.0978241  66.0426788  71.7176514  31.9840298  82.6630936
  70.8077927  31.8990517  82.9480057  71.7009811  32.6885414  82.0153122
  83.9610443   5.3840151  72.6294556  84.6054611   5.4139366  71.9223022
  83.2665176   5.9785414  72.3459015  47.6966705   6.1129055  47.6251869
  47.2815056   6.8093495  48.1339455  47.4942627   6.3281527  46.7147331
   9.4436817  65.2817841  72.2623444   9.8491259  65.2392807  73.1283951
   8.5426826  65.5562744  72.4328995  18.5904427  45.0826340  83.5071640
  19.3463173  44.8487511  84.0458527  17.8770657  44.5433044  83.8484116
  65.2547989  69.0908813  81.9140549  65.0923843  69.3335266  82.8256378
  66.1915894  68.8970642  81.8810501  81.0811462  35.7916794  88.0486755
  80.7884445  36.2887993  87.2848434  80.3992386  35.9367828  88.7045593
  16.0663738   4.8185153  53.7293320  16.9291248   4.4922247  53.4735413
  15.5920095   4.9142890  52.9034767  76.8390350  53.6386757  25.6399689
  77.3421478  53.0474815  25.0799694  76.3569489  53.0582657  26.2289886
  65.0499573   3.6747386  55.8473701  64.8199539   4.5457621  56.1708641
  64.2096252   3.2285452  55.7425880  23.6317062   9.2848768  20.3684082
  22.9880638   9.5098124  21.0402412  23.8251266  10.1157522  19.9342804
  51.1445122  38.6795044   3.3233330  50.3781929  39.1813736   3.6010277
  50.8933144  38.3067398   2.4782407  14.1940441  63.4715309  55.9564972
  13.2802725  63.3131828  56.1935158  14.3005323  63.0376892  55.1099319
  54.2920761  10.5709467  77.5429001  53.3432503  10.5671997  77.4166031
  54.5706100   9.6902781  77.2917557  35.5555992  49.8250847  84.5561829
  35.8025742  49.7328911  85.4763641  34.9256477  50.5457268  84.5483170
  69.9503479   2.7381647  36.0129395  69.7769318   2.8971426  35.0851021
  70.2630997   3.5794027  36.3457146  46.0358086   2.4816766   2.3710747
  46.4119759   1.6852471   2.7458141  45.7674599   2.2273576   1.4881574
  86.3074722  62.9650536  26.3559017  85.6921768  62.8461494  25.6323662
  87.1487503  63.1301727  25.9302025  70.2059860  12.3505907  86.6707230
  69.6452026  12.4026499  87.4446945  69.7046509  12.7869778  85.9819107
   1.4501415  59.2969322  38.7766533   2.0728219  58.9971161  38.1143761
   1.9802970  59.8034096  39.3919983  21.0851383  61.8799248  45.3777046
  20.3310127  62.3278656  45.7609482  20.8760796  60.9491272  45.4560509
  11.6021061  19.9838314  78.2680740  12.3085175  19.6612759  78.8276901
  11.8177547  20.9040356  78.1165771  18.8267365  11.1304598  28.8705482
  18.6637192  12.0724106  28.8216934  19.4131126  10.9504385  28.1357098
  10.4424934  68.8822327  66.0633469   9.6153383  68.8280411  66.5420074
  11.1109924  68.9392395  66.7460556  51.0519180   5.9889822  57.7075233
  50.4667473   5.2425857  57.8367462  51.9199638   5.6546783  57.9332848
  26.0116997  10.8254995  45.7104492  26.8144417  10.8812256  46.2288399
  26.3060760  10.9084692  44.8034248   6.8894029  57.5766106  83.4872360
   5.9950438  57.2489395  83.5820312   7.3851776  57.1196480  84.1666641
   9.2667198  17.4587898  33.7523270   9.3339643  17.2570744  32.8190384
   8.9651108  18.3668079  33.7799873  11.7897930   2.0602493  88.9775772
  11.9038887   1.3322600  88.3666382  11.1568537   2.6360390  88.5485229
  56.8169441  11.9669371  31.6540089  56.1586151  12.4073219  31.1165180
  57.1411438  11.2560701  31.1010227  39.0970764  13.0541553  77.9766617
  38.3577728  12.4463568  77.9609528  39.0942230  13.4118795  78.8645020
  51.5276146  19.1018314  58.7128220  52.2155762  18.7359428  59.2687569
  51.7562370  20.0273228  58.6266289  14.1612024  14.0264359  28.0773106
  14.6289434  14.6055040  27.4755383  13.2424488  14.1061249  27.8208485
  53.2688255   8.1725721  16.4133549  53.0343781   7.3054056  16.0827656
  52.5382767   8.4180374  16.9810543  83.4945679  41.1431770   9.6112900
  83.0873032  40.2805138   9.6898861  82.7924423  41.7115707   9.2947760
  78.9587173  43.5495377  21.6895580  79.0256958  44.3635597  22.1886749
  78.2700806  43.7187805  21.0466194  22.0170708  60.3892593  39.2782516
  21.2526073  59.8326721  39.4267006  22.5050144  60.3503761  40.1008263
  54.9230995  46.6688957  45.8006935  54.0984077  46.7930565  46.2704849
  55.3566589  47.5209312  45.8485985  49.0843201  19.3305912  31.0133343
  48.6019821  19.6698723  30.2593651  49.6623039  20.0488186  31.2708492
  32.2459984  16.0342751  17.6761589  32.3365784  15.9483833  16.7271328
  32.4758224  15.1701889  18.0178738  38.2950592  59.3497200  59.2656441
  38.2854576  59.3364067  60.2227058  37.4985580  59.8227501  59.0246887
  52.7654495  60.5442009  51.9001961  52.4861183  60.9076347  52.7405090
  53.6700287  60.8406754  51.7998390  83.0500412  67.6626129  32.3692551
  83.5565186  67.3192825  33.1053505  83.5993881  67.4977570  31.6029205
  32.9960632  65.7825470  20.3696938  32.8064194  66.5798874  20.8641796
  32.1501694  65.5180664  20.0081024  69.6601715  23.8340626  32.7637253
  69.6005020  24.5720482  33.3703957  69.6716232  23.0607243  33.3276825
  22.3178635  52.9394798  68.2913437  22.1624413  52.1056137  68.7349014
  22.4677658  52.6999931  67.3767853  22.9625721  50.9150887  75.1784439
  22.5959282  50.7763100  74.3052063  23.6893597  50.2947044  75.2344284
  28.0830555  71.2469101  17.8033733  27.9836712  71.4073486  18.7417831
  27.4345379  70.5711365  17.6059246  48.2826576   3.6812289  70.3340836
  48.4861107   3.4963109  71.2509460  47.7183647   4.4537854  70.3650665
  60.3928795  67.4269714  59.2211304  60.8092804  66.6727982  58.8039169
  61.1142578  68.0300140  59.4005241  45.7631035   4.4993100   6.2777548
  46.0200920   5.4067616   6.1142945  46.1340179   4.2963123   7.1365023
  32.6356010  45.0805931  72.6498032  32.0293617  45.0785370  71.9090576
  32.0782471  44.9435081  73.4158325  39.3858871  66.2158127  13.4634695
  40.3159485  65.9896088  13.4563866  39.1571121  66.2596283  14.3918953
  45.8442650   8.1662226  23.6416492  45.3881569   8.7325878  23.0192127
  45.5557518   7.2817259  23.4165726  77.3837509  42.5783424  13.9253759
  77.5994644  42.9559937  14.7780666  77.9112473  43.0776405  13.3019304
  84.5081482  60.9344025  67.7984467  84.7287140  60.0164261  67.9562607
  84.0237122  60.9258308  66.9729309  21.1714077  55.0639458  14.0040865
  21.4214764  54.7205353  14.8618546  21.4576168  55.9772339  14.0190105
  65.8015671  14.4278164   3.0786161  66.2418671  14.0600214   3.8448379
  66.4936066  14.5135880   2.4229064  47.8985138   9.1793013   6.9514475
  47.3243599   9.9428892   6.8921776  48.6544800   9.4054213   6.4095802
  64.2301559  66.1826706   7.3168364  64.3885880  67.1185913   7.1935935
  63.4536705  65.9995041   6.7879167   5.7515497  66.1277313  71.3845367
   5.4994864  65.2082443  71.2994766   6.3203759  66.2907410  70.6321411
  40.4600716  54.9474258  62.9651985  41.2732315  54.7570190  63.4328957
  39.9398346  54.1489105  63.0544243  70.9921417   8.9703598  65.0644760
  70.3981476   8.2877045  64.7524185  70.8795776   8.9696150  66.0150375
  50.4863586  14.6306143   5.4210467  50.9461937  15.4445257   5.6267977
  50.1582832  14.7592659   4.5310760  27.4787216  57.4313698  54.6400261
  27.6359253  57.0547333  53.7741928  26.6971493  57.9724121  54.5275536
  61.4095688  46.8911209  84.6228943  61.1275787  47.2941551  83.8017502
  62.3104630  46.6137161  84.4565659   6.2381082  46.6682243  49.9732132
   7.1297593  46.4184151  50.2156715   5.8356605  45.8546143  49.6693954
  48.2201729  60.8538704  14.9647293  47.7743759  60.7707443  15.8076935
  49.1302681  61.0434952  15.1927576  25.3764858  18.2266350  19.9982548
  25.1454449  17.2997704  19.9368248  25.0819855  18.4896049  20.8702335
  55.0276909  30.2228584  81.2301025  55.8211784  30.1649055  81.7623062
  54.4238472  29.5980263  81.6315842  19.6016617   4.9199972  88.8414230
  19.2566948   5.7421222  88.4930801  18.8975410   4.5794945  89.3932419
  50.2175484  31.0328255  15.2609062  49.8259277  31.0098763  16.1340256
  50.7937355  30.2688522  15.2366867  76.1402893  63.9347801   0.9063597
  77.0492630  63.8338966   1.1888859  76.1101379  63.5205040   0.0439792
  74.6373138  13.9119902  24.3152046  74.0818710  14.3612547  24.9522877
  74.2498245  13.0406981  24.2319355  15.3301582  24.6275959  20.3269062
  15.8672056  23.8358841  20.2952385  15.8871861  25.2779121  20.7547379
  28.7434635  62.2904510  65.9682007  28.9141006  62.4957466  65.0489731
  27.7894039  62.2438507  66.0300903   4.0806179  59.9010544  31.3901463
   4.2006106  60.6431885  30.7976360   4.7885237  59.2975578  31.1645451
   4.0918498  30.1609802  78.2085876   4.7730083  30.0203552  78.8662186
   3.4729257  29.4441853  78.3477631  70.1785126  34.1642685   9.8885031
  69.9211273  33.9007721   9.0050125  69.4107056  34.6177559  10.2364302
  73.5332260   4.0077295  31.6280651  74.0259323   4.1930318  32.4275208
  73.2378922   3.1032920  31.7329464  70.0212326  29.4225216  58.7249260
  69.7704773  28.5333252  58.9752960  70.9710007  29.3810959  58.6133385
  25.1700420  16.4073009  72.2725067  25.0173702  15.4722176  72.4086685
  26.0822086  16.5410404  72.5299835   6.4438715  55.4894180  18.8259106
   5.6736941  54.9739189  19.0653210   6.0877833  56.2640724  18.3907700
  19.8991280  53.8442001  48.6013756  19.0332355  53.4595757  48.7374763
  20.1277218  53.6075668  47.7024994  83.6970291  11.4128380  62.0266113
  84.0948181  10.9438448  61.2930984  82.7587814  11.2456837  61.9372177
  68.6698608  52.2039070  20.6729698  67.9661560  52.0232239  20.0497665
  69.3634949  51.5882759  20.4361000  40.9048767  61.7794495   7.2654161
  40.2193069  61.4408226   7.8412247  41.1274834  61.0412636   6.6981783
  48.7912941  53.8006554  13.5913324  47.9408379  54.2372704  13.6395197
  48.6307678  53.0216560  13.0587702  28.2293377  65.9184570  87.5405350
  29.1080780  66.2863159  87.4471283  27.6899261  66.6561050  87.8253860
  31.2120686  40.0412178  -0.2029605  31.6375484  39.2148247   0.0256822
  30.4076538  40.0480003   0.3157912  39.2263260  59.5523491  23.0404072
  39.7944565  59.7212334  23.7920303  38.9083443  58.6597939  23.1762905
  47.4992599  62.9343109  39.3312836  48.2463341  62.8351097  38.7411385
  47.6480560  62.2837601  40.0174828  24.6582794  41.6684341  20.6397877
  24.3890724  41.7127037  19.7222919  24.1381989  40.9540672  21.0077953
   1.8071473  27.8972511  61.5695190   1.3659534  27.4641914  62.3002968
   1.1012020  28.3186493  61.0793152  56.6246109  44.7411842  10.5973711
  57.2436638  44.0180626  10.6978579  56.1585197  44.7752991  11.4327326
  13.5919247  41.3279762  33.7823792  13.5996914  41.6858139  32.8946152
  13.0139399  40.5668640  33.7287788  82.4094543  61.3597794  19.1665668
  82.0404968  60.8950081  18.4155045  82.9840698  62.0208206  18.7804756
  49.6389389  11.6576910  62.2907295  48.7811432  11.2402630  62.2121658
  49.5805359  12.1758442  63.0934372  54.3739548  17.1640472  33.4400253
  54.2831955  17.1861744  34.3926544  54.2786713  16.2393570  33.2117653
  80.4025497  46.7619896   2.4164472  80.6336060  47.5097389   1.8653470
  79.5910187  46.4258423   2.0361013   3.0551741  15.6712112  16.7867279
   2.9698877  15.6830626  15.8334093   3.8834324  16.1191521  16.9586849
  76.0277176  22.5782604  19.7968731  75.1245728  22.2650013  19.8461266
  75.9904404  23.4714069  20.1391201  69.3906174  38.4961472  68.6319885
  69.0933914  39.0769234  67.9315643  68.5898972  38.2503967  69.0953217
  26.5992374  18.5962906  28.9462662  26.8526344  19.5102177  28.8168106
  26.3379822  18.2946339  28.0762196  66.6050491  37.4107246  21.7837849
  66.9308014  36.8328400  22.4738312  66.1671143  38.1208611  22.2529907
   0.5018774  13.5836849  52.5480499   0.0287495  13.0540361  53.1898079
   1.4230430  13.3656425  52.6899757  46.9815559  68.3580170  82.8907700
  46.3691025  68.2481918  82.1633987  47.8420029  68.1889954  82.5069733
  34.5134850  15.5790176  42.4062729  34.6990013  15.6900158  43.3387413
  33.5605507  15.6427841  42.3424034  81.4602280   4.5658092  88.9691391
  81.6493835   4.4520683  88.0377350  82.3170547   4.7059131  89.3721848
  67.6476059   4.0258236  53.5509682  68.3482590   3.5414364  53.1142960
  67.6958313   3.7450705  54.4647980   5.6334558  66.5863266  36.8913612
   5.2438684  65.7364197  36.6861496   5.7478685  66.5741882  37.8416176
  24.2161179   5.5972552  69.6938705  24.6702843   5.6265841  68.8517838
  23.5610905   4.9072318  69.5888062  81.6039124  63.0483856  55.9567261
  81.6734467  63.9017487  55.5287437  80.8260803  62.6481895  55.5680695
  79.8417664  29.2178116  67.9390182  80.1676636  28.3662930  68.2304611
  79.1975708  29.0089684  67.2625351  85.6313934  50.5918503  36.9927025
  84.9655457  50.3831139  37.6479149  86.0088959  51.4196434  37.2901535
  53.7367592  16.2871151  25.6269073  53.2935982  16.9047489  26.2086010
  54.5092010  16.0074615  26.1181927  71.1219101   7.0842533  40.5966187
  71.6759720   6.6593800  39.9418449  71.4391251   6.7466483  41.4342537
  14.9409456   6.6301804   6.3624859  15.4733295   7.4198303   6.2662950
  15.0493174   6.3785048   7.2796264  12.4105816  63.0839844  72.7063293
  12.6745768  63.9541893  73.0051270  12.9907455  62.4837189  73.1746521
  58.9709435  14.4104614  19.2830811  59.9045258  14.4709005  19.4855728
  58.9048882  13.6739788  18.6752472  39.3902016  68.9892426  58.4574051
  39.8288536  68.1499176  58.3182945  39.7059669  69.2859573  59.3109169
  19.6560745  58.2576141   8.4986763  20.2075214  57.4983177   8.3099747
  19.7950172  58.4289818   9.4301043  64.2791748  16.0019836  82.7673492
  65.0684052  16.5068130  82.5711441  64.5753403  15.0919390  82.7856445
  84.7099228  62.5537682   8.3859358  84.9232025  62.6325912   7.4561348
  84.5475998  63.4528503   8.6714878  79.9205551   2.3491485  75.6799316
  80.4820862   1.9790106  74.9988174  79.5523987   3.1389430  75.2838058
  48.7613182   8.7232199  35.9962730  48.5489159   7.8951054  36.4267921
  48.5308685   9.3935757  36.6395073   5.9553699  21.8301907  14.7922688
   5.3301549  21.9741421  14.0819054   5.4142532  21.7737331  15.5798206
  40.8970184  41.1419525  32.3669777  41.6812248  41.5777664  32.0333328
  40.5139885  41.7722321  32.9771194  51.5768738  10.3972054   6.4076915
  51.5615425   9.4992266   6.7387977  51.7931709  10.3066320   5.4796591
  56.8761215  19.3088112   7.1089244  56.1487465  18.6865921   7.1101575
  57.5652809  18.8726349   7.6099658  40.5262146  66.7918472   5.7597513
  40.6703224  66.1721344   6.4748836  40.1957016  67.5807571   6.1894207
  41.9957809   2.5676844  12.6247311  41.0683441   2.6347125  12.3975849
  42.4533577   2.6400473  11.7871037  44.6512375  71.6548386  65.3216248
  44.7584610  70.7075577  65.2356567  44.4900436  71.7939148  66.2548523
  54.3236313  44.3851776  84.7818985  54.5812912  45.2896461  84.9601669
  54.8029366  43.8676300  85.4289246   1.0012553  43.5096283  41.4158096
   1.7258056  42.8882332  41.3441963   0.2177869  42.9608917  41.4518318
  64.6251144  33.0091362  10.2521353  65.1087875  33.8118896  10.0574884
  65.3024368  32.3668709  10.4641924  24.3407001   4.5214324  86.3119736
  24.4899864   4.4029851  85.3739395  23.4244175   4.2767038  86.4414597
  60.4947052   3.1953404  79.9216690  59.6803360   2.6938405  79.9608078
  61.1160736   2.6097088  79.4890442  63.0331078  22.8739529  61.3899384
  63.9529724  22.6830616  61.2065315  62.5526733  22.1560669  60.9775581
  13.1458797  16.8847542  74.9170380  13.7418385  16.1433582  74.8102798
  12.5330057  16.8066101  74.1859360  57.0845642  35.8892517  34.4292603
  57.7284012  36.5498428  34.1736641  57.3526802  35.6209221  35.3080940
  31.6706982   0.6305797  25.0126266  32.4706879   0.1538910  24.7912254
  31.5298233   1.2194397  24.2712574  47.0688515  10.3273897  44.8378868
  47.9823647  10.0484667  44.7752533  46.8894691  10.3507729  45.7778358
  85.7648697  65.8331528  68.7163849  85.2716751  66.5730515  68.3620758
  85.2164078  65.0702286  68.5336990  25.5588531  59.4083328  53.7868652
  25.4541950  60.3388100  53.5881577  24.9919968  58.9636078  53.1566849
  35.9611397   2.3438158  83.9788818  36.3694763   3.0511115  84.4781036
  35.7539978   2.7374864  83.1313248  78.4002762  44.4849472  74.2118988
  78.2324829  44.9176178  73.3747177  77.5328064  44.2362289  74.5310669
  43.1682701  48.1622810  19.1032715  43.5669708  48.9693031  19.4288235
  42.7301064  47.7866211  19.8668957   1.4023144  54.3329811  30.3093185
   1.5198659  54.3840027  29.3607349   1.6095623  55.2128944  30.6240177
  37.6847687  30.4268913  85.3678360  38.1600418  31.1227112  84.9137650
  38.2002258  29.6374550  85.2025223  16.0283604  54.0308800  23.8909721
  15.6855612  53.3273849  23.3397770  16.0626259  53.6519012  24.7692852
  73.6161041  52.4193954  32.4051323  74.0500412  52.5104904  33.2534409
  73.2601852  53.2892113  32.2235336  68.3087845  12.6600637  19.6149063
  69.0400238  13.2754040  19.6685390  68.2697678  12.2582169  20.4827938
  79.5759201   2.8039219  58.0641785  78.9009781   2.1511452  58.2501106
  79.2641678   3.6000497  58.4945564   2.4209189  29.6983204  30.3836327
   3.0268950  29.1510162  30.8831139   2.2698634  29.2108917  29.5738010
  66.5586777  28.4769516  82.9515686  65.6300201  28.7055702  82.9120941
  66.9918365  29.1410770  82.4153366  10.4012318  44.5927811   6.5376840
   9.9134626  43.7698364   6.5048833   9.8198709  45.2323418   6.1263289
  31.9306107  12.8998680   4.0662498  32.6807938  12.6487637   3.5273564
  31.9724064  13.8553848   4.1046233  72.6529617  42.5800056  77.0755386
  73.4237518  43.0917664  76.8301544  71.9376526  42.9675369  76.5711670
  81.0908127  47.6421623  52.0280914  81.4409180  46.9700775  52.6128654
  80.6997986  48.2898216  52.6145020  80.3349304  20.1072865   0.9896445
  79.8278503  19.6742287   1.6763469  80.8974457  20.7229862   1.4594502
   0.8485065  52.7426834   0.2988011   0.8946580  52.2490883   1.1176199
   0.9672289  52.0836449  -0.3851598  84.0077438  59.4663315  31.7842503
  84.0827484  58.8619881  31.0457573  83.0786285  59.6946259  31.8135071
  78.4367447  51.6233406  52.3319283  78.8893661  51.2835312  51.5599861
  77.6224060  51.9916916  51.9892883  34.4606934   9.3949356   6.8177691
  34.0560112   9.7199497   6.0135112  34.2611961   8.4587822   6.8248930
  51.8940468  55.3685760  13.8294134  50.9847870  55.4106712  13.5332603
  52.3921814  55.1469650  13.0426569  47.7373276  61.8746109  83.3742981
  47.1530418  61.1880035  83.0527267  48.5119629  61.8109779  82.8156204
  71.7144012  45.6545067  28.5151215  71.5789719  44.7608299  28.2001190
  71.3749924  45.6470184  29.4100933  12.0810490  42.9086494  61.4811707
  11.8733730  43.8199425  61.2746468  13.0372734  42.8704262  61.4610405
  67.2851715   4.2919712   1.4150549  66.8365173   3.4506505   1.4994463
  68.2150574   4.0661998   1.3912473   4.0999227   5.8262138  70.9636765
   3.1548245   5.9628110  70.8976212   4.3987207   5.7761526  70.0556870
  82.7569427   7.9429941  32.4966202  82.7585907   7.0962701  32.9430389
  81.8620605   8.2665863  32.6001396  70.8423996  62.2892799  22.1322079
  70.6357117  62.1373177  21.2100258  70.8114700  61.4196815  22.5310421
   5.9485559  69.1016998  81.8887482   5.2118206  68.5857620  81.5612411
   6.7151098  68.5497513  81.7338943   2.9629405  36.8139534  74.7025604
   2.5751085  37.5657730  75.1504288   2.4327645  36.7058868  73.9129639
  45.8160896  44.5595169  85.5607605  45.9148674  43.8637543  86.2106781
  45.7283478  45.3599701  86.0782623  79.3543930  32.9980469   6.3410239
  78.8517685  33.6691132   5.8792048  79.7836456  32.4994545   5.6457720
  34.5786476   0.8645595  38.2566338  34.1400108   0.9299448  37.4083672
  35.5057755   0.7661199  38.0399017  67.1505127  25.1377754  52.8011322
  66.2616196  25.4925308  52.8171272  67.1405106  24.4985924  52.0886841
  42.6589012  46.1651764   6.5486660  43.0010223  46.6772804   5.8159084
  42.0798492  46.7692986   7.0133882  35.2968025  18.4260998   7.9727120
  36.0641556  18.6193714   8.5112772  35.5918274  18.5728455   7.0740132
  53.0311737  39.5339584  76.6480942  53.3168907  39.3981285  75.7446823
  52.4092140  38.8250046  76.8117523  14.1816397  43.1121254  70.2113724
  14.0080614  42.8060951  71.1015625  13.8856630  44.0224152  70.2090530
  70.8597717   3.2076621  70.8940735  71.0523834   3.8404117  71.5859985
  70.3736496   3.7091091  70.2394943   5.7887716  46.7356987   6.4334474
   6.4793477  46.2801361   6.9149008   5.3629746  46.0498810   5.9190698
  47.9955330  61.0159187  41.2778854  47.2894745  60.3696365  41.2720909
  48.1659164  61.1761932  42.2060623  81.9205246   9.2891846  35.4961624
  82.2389832   9.8828201  34.8161545  80.9680862   9.3797731  35.4663429
  39.4528999  25.4304409  27.7257175  39.1084747  26.2129059  28.1562462
  38.9779663  24.7051468  28.1314487  21.6319370   7.9089012  45.7390289
  22.3755169   7.3703079  45.4684067  21.7573795   8.0351877  46.6795311
  79.1588745   0.1630948  13.3642855  79.7817688   0.7909228  13.7304401
  78.7406006   0.6334803  12.6431646  43.8547592  69.1693726  62.4226913
  43.3097725  69.3057556  61.6476936  43.2310905  69.1073990  63.1461792
  15.1667070  65.2192535  49.6271019  14.3713980  65.4171448  50.1216278
  15.6573858  66.0411148  49.6237450  47.8812523  52.0399323  46.6188507
  48.0924835  51.8647232  45.7018356  47.7183609  51.1755867  46.9964828
  66.1562119  41.1476974  46.6032333  66.3435440  40.4032249  47.1749878
  65.3422852  41.5153313  46.9476318  54.9541550  36.0014381  16.6376209
  54.5031433  35.6257095  17.3936939  55.2591667  35.2431107  16.1394863
   5.2520418  39.5674019  82.7108078   5.0620928  40.2833214  83.3171158
   5.2877898  38.7875595  83.2647095  20.5875683  12.4768696  15.2955227
  19.7329979  12.8303795  15.5424538  20.9741039  12.1858454  16.1214314
  56.1869507  31.3170509  23.3488960  55.3738708  31.7402458  23.6246433
  55.9084206  30.4754868  22.9877567  54.1341743   8.0454206  63.5020561
  54.9337845   7.8679600  63.9973946  53.8953629   8.9398975  63.7451820
  46.6943169  55.8723717  45.5149269  45.9957542  55.6908760  44.8861961
  47.5013351  55.6723022  45.0406647  23.7942505  31.0978413  28.7647533
  23.7442856  30.1434879  28.7104702  24.1820736  31.3651600  27.9314671
  59.6587334  17.4242249  60.9380798  60.3892479  17.1161842  60.4017105
  58.9023857  17.3950539  60.3521461   2.1186712   3.9355547  44.6803551
   2.2887685   4.5610204  45.3846931   2.7275562   3.2159820  44.8468056
  11.0486584  48.6306190  42.6824760  10.5593376  49.3136482  42.2239227
  11.0914030  47.9063911  42.0580597   7.5903711  57.4425278   5.8588243
   7.1430831  58.2748718   6.0116892   8.3850803  57.4966698   6.3896141
  71.9661560  31.6473999  73.3096466  72.6682968  32.2675514  73.1130829
  72.2436981  31.2203579  74.1201019  57.4585190  48.6827049   7.0536528
  58.3013344  48.6906128   6.5999656  57.5651932  48.0301552   7.7457752
  20.7403603   1.9977044  15.5541477  20.1429024   2.4652922  14.9705067
  21.5122166   2.5612097  15.6082850   4.4050341  19.5757256  53.4398766
   3.7012036  18.9772873  53.1894226   5.0922952  19.4218235  52.7916336
  85.1840134  67.9234238  25.7524624  85.0122681  68.5043716  25.0113583
  85.0569382  68.4754868  26.5240231  34.8097191  51.5034142  82.1631012
  34.2183075  52.2232018  81.9431763  34.2449379  50.7313538  82.1974716
  65.3315353  19.3628998  32.6976738  65.6040726  20.1751366  33.1245537
  65.3729172  19.5587025  31.7616291  80.2758102  66.1568909  11.3242455
  79.9226837  66.8123245  10.7226257  79.6640930  65.4230576  11.2649031
  15.4498348  31.7425480   1.0825667  15.6962242  32.3554802   0.3898615
  15.0701342  32.2941322   1.7665362  50.3299599   0.7398757  24.8759651
  49.5241470   0.3630702  24.5225315  50.4806671   0.2613767  25.6911697
  26.6338253  45.2581940  15.1971855  27.5836658  45.1745186  15.2810507
  26.5049286  45.6869469  14.3511438  74.4971008  38.0514374  40.3197441
  73.7599258  37.5007782  40.5835228  74.6633835  38.6091995  41.0796700
  84.7522507  69.7216187   2.3482130  84.6894302  70.0840836   1.4645220
  85.3696136  70.2970886   2.7997971  43.4708633  56.0803108  14.7825499
  43.9070358  56.8691444  15.1046133  42.5504189  56.2039986  15.0143204
  21.9282627  14.4750490  10.0639305  22.6451435  13.9753904   9.6732216
  21.8611069  14.1387396  10.9575844  18.6431351  23.0387001  57.0157547
  18.3779602  22.6347466  56.1894760  18.0243130  23.7583199  57.1400032
  63.1198425  46.3768120  46.6659737  63.9279594  46.2250481  46.1759262
  63.1458397  47.3074341  46.8884659  58.5840988  45.0930862  39.4675636
  59.2893753  45.7381439  39.4154282  57.8235970  45.5390396  39.0947495
  11.4376602  56.6815224  85.2841949  10.8144550  56.2344055  84.7115479
  11.2000866  57.6066017  85.2208023  36.5464325  62.5705338  61.0670128
  36.2834816  61.8370857  60.5110092  37.0018234  63.1688690  60.4746933
  69.8894424  35.5367050  75.1953735  69.4591751  36.3867569  75.1031113
  70.7198868  35.6368408  74.7299957  70.0430984  43.8333054  47.9505653
  69.6411591  44.5119781  48.4928513  69.3101425  43.4395370  47.4773331
  19.1529198  28.7569523  59.3549957  19.0607014  28.4046059  58.4697952
  18.4451866  28.3458805  59.8513451  72.9821014  26.3622189  35.7543488
  72.5945358  26.4805965  36.6215363  73.9263763  26.3701458  35.9109116
   8.5515461  52.3957672   8.9607677   7.5999727  52.4891396   8.9158049
   8.8878269  53.2675858   8.7532043  56.9363747  46.0231476  80.9770660
  56.6401024  45.3928185  81.6336823  56.4847107  45.7628784  80.1742630
  30.8308010  36.2552528  10.0856609  30.5118179  36.5542984  10.9371614
  31.7761478  36.1619492  10.2033253  68.9327774   7.1521077  83.0392914
  68.2263031   7.6872711  82.6777344  68.7148361   7.0628023  83.9670639
   2.9935935   6.0977731  38.0799179   3.1617568   6.1532593  37.1392403
   2.3681552   6.8013272  38.2533302  57.9698601  32.3129158   8.4566660
  58.0312233  31.5617466   7.8665709  57.8645325  33.0661125   7.8754354
  12.1453896  25.6724834  12.1802797  12.6306725  26.4816055  12.0188627
  11.2483768  25.9608002  12.3490257  16.7158108  14.0664206  71.6621704
  16.2491398  14.0416031  72.4975357  17.5816002  13.7097893  71.8608017
  48.0137024   3.9731312  49.1518364  47.8838730   4.7867522  48.6646004
  47.2852440   3.4137168  48.8823242  31.4725132   6.2288284  35.8526993
  32.2838249   6.1906757  35.3461914  31.6026955   5.5986381  36.5613213
  70.3429871  28.0845947  15.6066990  70.5737457  27.1695385  15.4465208
  69.6081924  28.2530899  15.0168514   2.7124262  54.7689018  61.9165993
   3.0173628  55.3802528  62.5870438   2.9028010  55.2080154  61.0876465
  63.3936081  62.1305275  71.9453354  63.4728737  63.0779915  72.0560379
  63.0255356  62.0218086  71.0684433  47.6625023  34.2810593  12.6140394
  47.4615440  35.1119461  13.0447092  48.1692581  34.5285797  11.8406277
  26.8344345   0.7508373   2.9220383  26.2448940   0.8202865   3.6729395
  26.6356869  -0.1039023   2.5397398  27.6240253  64.2064743  18.7303486
  26.8681431  64.7853394  18.8292866  27.8232346  64.2305145  17.7944164
  71.0181046  35.4258156  50.3979492  71.4297485  36.1537209  49.9321861
  71.0717773  34.6901550  49.7879066  22.8828411  63.4903297  46.6909142
  22.4112053  63.2260399  47.4808121  22.3195648  63.2086067  45.9700928
  27.1585064  61.6835251  75.0024109  27.7976303  61.6771545  75.7149506
  26.6452808  60.8863144  75.1338730  52.9266281  41.1314240   4.2673135
  52.8044853  40.4083366   3.6521230  52.3438797  41.8197517   3.9466295
  42.6941109  52.1966209  30.8352890  43.1083298  52.8484116  30.2697639
  41.8080902  52.1041031  30.4850883  83.1153717  53.4846535   0.1104785
  82.8975830  53.6543922   1.0269873  83.9268799  53.9704361  -0.0367970
  22.3834076  52.8484497   7.5540481  21.8215237  52.4954681   8.2439194
  23.2380657  52.4477081   7.7127781  29.3099308  18.7225494   9.9342651
  28.4786987  18.8414516   9.4747562  29.2334404  17.8633766  10.3492384
   0.4352824   9.8228474  19.2688942   0.0368375   9.7669039  18.4003658
   0.5930282  10.7577744  19.4002705  44.5673523  10.0228004  76.0762024
  44.0081253   9.5216618  75.4826050  43.9753151  10.6509933  76.4898376
  41.8782997  66.1225204  70.5778732  41.0802612  66.3097916  70.0836105
  42.5799828  66.5125198  70.0565567  48.1874275  20.8971863  29.0868912
  47.5549049  20.5325031  28.4678974  47.8213806  21.7474575  29.3303719
  37.2935524  68.1310043  79.1346054  38.2190895  68.0180435  78.9181595
  37.2846794  68.2745132  80.0809479  71.5615540  30.6833382  15.7852106
  71.2617111  29.7745686  15.7635927  71.1310196  31.0594006  16.5529671
  60.6521072  53.9893303  42.5343399  60.2150345  53.1750565  42.2850189
  60.6162033  53.9972878  43.4908333   5.7646756  60.3804398  74.5116882
   4.8410435  60.5753860  74.3531647   5.7908878  59.4320984  74.6389542
  26.6966839  69.8331375  53.5412407  26.0337582  70.3607101  53.0957909
  27.4231415  70.4380951  53.6912804  32.4893723   9.5734940  81.3843155
  32.0920906   9.0711031  80.6729736  32.5801582   8.9445219  82.1001282
   2.6615386  39.3392677  18.1418877   2.0357316  39.9574547  18.5193024
   3.0491986  38.8990440  18.8982964  11.7290926  30.5262241  32.7907677
  12.6483803  30.4313927  32.5414734  11.7571583  30.8956127  33.6733780
  73.3496094  21.4227448  19.8705845  73.2116089  21.7232857  20.7688389
  73.6444397  20.5168591  19.9637451  14.2693958  43.9847717  65.8521729
  14.6316338  44.7773552  66.2481918  14.7971373  43.2732048  66.2146530
  75.1576767  16.9582405  42.9903297  74.8332977  17.2303524  42.1318626
  76.0500565  16.6545868  42.8239441  26.4113235   2.8179407   1.0174154
  26.3761692   2.1148295   0.3688550  26.5366421   2.3673668   1.8525863
  59.2932930  29.7352467  24.2646828  58.7953300  30.0147972  25.0328732
  59.0943375  30.3926773  23.5980263  40.6551437   9.5942202  11.0751619
  40.7482491   8.9314508  10.3908377  40.9569473  10.4051523  10.6658535
  75.7154312  22.5573082  89.1762619  75.5405807  22.0575256  88.3788452
  76.6675797  22.5316792  89.2710495  30.4142094  20.1653728  14.6661081
  30.5759335  20.4199982  15.5745373  30.8317928  19.3084183  14.5795937
  16.9572735  67.2535248  22.7466259  17.1360264  67.9154892  22.0787315
  17.3523293  66.4526978  22.4018974  59.8713493  52.9442902  52.9226418
  59.5858727  52.3281746  53.5972786  59.7202454  53.8076553  53.3073463
  64.7279510  36.6406746  86.1017303  65.5555038  36.2482262  86.3799057
  64.5293350  36.2148972  85.2677612  29.8315449  69.8115997  33.0704422
  29.8050175  70.4052582  33.8208427  29.7454510  70.3846207  32.3085594
  36.3822289  13.1131248  17.6139030  35.6600227  12.7663774  17.0900574
  36.0138054  13.2160645  18.4913425  69.8849564  45.9835396  26.3005962
  70.4888306  46.5238991  25.7911110  70.2992249  45.9066734  27.1600761
  62.6090393  70.0462570  32.2196083  63.4119759  69.6235123  32.5242538
  62.5667686  70.8646927  32.7141838   3.4564617  35.4227295  33.3384399
   2.9741082  34.5961685  33.3193283   3.4339471  35.6920052  34.2567062
  68.9912949  59.4472656  58.1826019  69.5954895  58.8651810  57.7217789
  68.5393295  59.9234505  57.4860344   8.9719715  21.6867733  45.8336220
   8.5559196  21.6679955  46.6954689   8.3267488  21.2912998  45.2475166
  49.3578606  16.6750164  20.4400673  48.9877396  17.5577393  20.4463959
  50.2677727  16.7948666  20.7119637  45.2357254  42.1245689  82.5977097
  45.3046875  42.2292519  81.6487579  44.3126717  41.9219627  82.7498779
  47.2964439  13.6649456   6.2067990  48.1349411  13.4126463   5.8201523
  47.4679260  14.5115652   6.6191835   8.0227776  24.5490856  29.2738495
   7.4171143  24.9268551  29.9115753   8.4168482  25.3059998  28.8402367
   0.9809962  34.2361946   7.9994483   1.4282459  33.4835625   8.3864155
   1.3284475  34.2895203   7.1091304  21.7957954  37.2501030  83.3687820
  21.6624050  36.7367096  84.1655655  22.2020683  36.6383095  82.7548676
  16.1064625  18.5951271  57.4947853  16.8640900  18.6860485  56.9168892
  15.4993191  18.0378895  57.0078621  65.6921310  64.3935242  67.4496231
  65.7735748  65.2979660  67.1470032  66.5866852  64.1328201  67.6688004
   9.8806429   0.4173721  72.4025269  10.3517399  -0.1810416  71.8227005
   8.9809408   0.0906244  72.4041595  78.2766876  40.3539619  46.1634483
  78.2097626  40.9279785  46.9265060  78.1140060  39.4762573  46.5089912
  17.7782669  44.4768715   3.3211465  18.5967770  44.4951744   3.8170669
  17.8749847  45.1749878   2.6734514   6.6977901  19.3444519  41.2550049
   6.0669985  19.7131882  40.6366463   7.2141647  20.0956783  41.5469704
  26.2527390  19.1749706   0.9059064  26.5685005  19.7587776   0.2161984
  26.6773872  19.4935703   1.7023993  26.3364639  52.4345016  13.6600504
  26.0238781  52.8238144  12.8433752  27.2232838  52.7789612  13.7655468
  75.1616898  53.3196831  40.9427032  75.5672455  53.8186989  41.6517487
  74.8527832  52.5162888  41.3614693  56.9816208  69.9838638  66.9859314
  57.0479622  70.5957565  67.7190170  57.8010406  69.4897690  67.0114517
  51.9427910  24.3621101  70.0017395  52.5801468  25.0724926  69.9284821
  52.3404541  23.6334496  69.5251389  35.6555824  67.3544159  82.2193909
  35.9890289  66.4853210  81.9963989  36.4140053  67.9317398  82.1315079
  71.9404068   2.3725476  57.8919563  71.6570892   1.6170812  58.4069633
  71.5418777   2.2391963  57.0319443  73.0676651  10.7374649  82.8729477
  72.3822708  11.3990841  82.7795258  72.8736877  10.3076172  83.7059097
  62.1733665  17.2188339  55.1809006  61.5478058  17.2529221  54.4571991
  62.6612358  18.0396996  55.1146431  69.1080246   7.1532655  42.6116867
  69.5254288   7.6131778  41.8833427  69.3453751   6.2349844  42.4826317
  40.4613571  45.6891098  69.9785614  40.4624634  44.9986267  69.3156433
  39.5388947  45.9247284  70.0774384  12.0035686  23.1062050  13.3419294
  12.3047523  24.0012417  13.1856327  11.0991192  23.0996971  13.0286226
  30.5733757  62.3098106  88.7469788  30.0218182  61.7322731  89.2746811
  31.4433193  62.2341919  89.1390457  80.4330978  46.8405113  60.3250084
  80.8598709  46.6134567  59.4988480  79.9562073  46.0487251  60.5737724
  79.1020737  51.1583862  72.3634338  79.9334869  50.9886665  72.8063507
  78.6031799  51.6881332  72.9852905  19.4978619  46.3563728  63.9326134
  18.6937847  45.8819771  63.7213326  19.2801857  46.8589745  64.7176208
  80.4860458  34.5481567  50.6889076  81.0835876  34.0073738  50.1724510
  80.6972427  34.3369675  51.5983162  85.4962616  19.4008465  13.2129402
  85.7897491  18.5321274  13.4875784  84.8322449  19.2293205  12.5451927
  38.2443314   9.1855421  49.2961388  38.7868004   9.8283062  49.7530975
  37.3930626   9.2384157  49.7306213  12.6048222   6.4206395  18.4024754
  12.7292471   5.4900799  18.2159061  12.1237478   6.7544947  17.6452847
  66.7552948  35.4459419   7.7679524  67.4036789  34.7908401   8.0261602
  67.2422562  36.0622559   7.2209077  55.3679008  60.0772057  47.6648216
  55.3519058  60.9941673  47.3906670  55.5652657  60.1104851  48.6008606
  41.2479095  64.5004578  78.7877731  40.9854088  65.4193573  78.8420029
  42.0864601  64.5177307  78.3264999  12.1861649  60.1234016  77.7679214
  13.0460796  59.8311729  77.4656296  11.7040386  59.3140182  77.9372864
  19.1032791  61.9139862  77.1114044  18.8067074  62.8154488  77.2364731
  19.5987473  61.7125320  77.9052277  19.6624508  49.9169235   6.9335833
  20.4870701  50.3924370   7.0341992  19.9210262  48.9965706   6.8854485
   7.2990551  31.2816582  82.2932281   6.3476167  31.2909679  82.1887741
   7.4539146  31.7412243  83.1184845  17.8246651  45.6254311  22.3564358
  16.9109135  45.6513214  22.6403694  18.1457272  46.5155067  22.5010681
   5.5540614   4.2224464   2.4169927   6.0713968   4.7430902   1.8025608
   6.0175567   4.3050961   3.2504032  53.6378250  54.1883049  67.3306427
  54.1630783  53.5132065  67.7602768  54.2238884  54.9422874  67.2652893
   3.5025320  33.0795593  81.9971924   2.6857712  32.9938622  81.5054703
   3.7913780  33.9762001  81.8273849  44.8103485  47.6041565  30.5209541
  44.3412933  46.8845596  30.0985756  45.5079956  47.1765060  31.0175743
  22.5214710  18.9815998  58.8765602  23.2498264  18.7324619  58.3076477
  21.8533287  19.3154716  58.2779350  27.6267147  69.7187729  79.4044495
  27.2226295  69.8221359  78.5429001  27.9561634  68.8200684  79.4082108
  70.8594437  61.1099663  26.1490307  71.8140793  61.1025848  26.0794067
  70.6879501  61.1074944  27.0907402  35.9972534  57.6134644  60.9717140
  35.8185921  58.5404205  60.8133888  35.8133888  57.4897499  61.9029045
  85.1992645  64.2918472  65.7311401  84.8101730  64.6990967  66.5050812
  84.5890427  63.5928841  65.4959259  25.5776825  67.1072159  38.1424103
  25.6012745  68.0600586  38.2305145  25.2972984  66.7940369  39.0023689
  69.0176849  46.7047424  35.4501114  69.5129623  46.7038383  36.2692184
  68.2220993  47.1972694  35.6518211   5.2622209  61.9188156  64.5290909
   4.9946613  61.6299858  63.6566086   4.5791893  62.5331573  64.7979431
  65.8815155  25.7881336  58.9637146  66.3803864  25.4703369  59.7162857
  66.5475616  26.0656929  58.3347702  21.6531258  71.5122681  77.2481995
  22.2581902  71.2954788  77.9575119  20.8007984  71.2066574  77.5586319
  10.3002148  41.3381615  66.8299713  10.0237865  41.3476562  65.9136047
  10.9944048  40.6799965  66.8639297  28.0599823  54.3051414  48.5221481
  28.2379704  55.1911201  48.8377266  28.5729103  53.7381897  49.0980873
  17.0534534  48.4606743  75.8563919  17.3699589  47.8261414  75.2134094
  17.5681973  48.2814140  76.6432419  55.2942238  22.5854130  72.0119934
  55.4023209  21.9141750  72.6857758  55.1989288  23.4026413  72.5011597
  51.4731865  20.6002102  31.0451145  51.6826439  20.5066013  30.1158161
  51.5910645  21.5330467  31.2244244  15.5443468   3.0637040  13.4942646
  16.3955021   3.0681288  13.9321556  14.9155369   2.8899465  14.1947203
   9.5634117   3.0483983  77.0779572   9.8366880   3.9413993  77.2879562
   9.7469397   2.9553421  76.1431351  76.2659836  23.1986885  52.2427750
  77.1797333  23.4833088  52.2258034  75.7616348  24.0067501  52.1484489
  60.5118713  14.1224909  16.2050533  60.3817024  15.0681419  16.2759972
  60.8699760  13.9952526  15.3265314  59.1536369  64.5880051   9.5091305
  58.4282570  63.9657135   9.5621500  59.4190445  64.7245331  10.4186087
  63.3134155  11.8065443  16.8539886  64.0416489  11.2921705  17.2023144
  63.2402725  12.5521488  17.4497700  43.3522835  50.3492279  59.7684059
  42.6204185  50.0405922  60.3025894  43.7615585  51.0349426  60.2961502
  39.8962784  60.5258522  86.6305237  40.4020462  60.9753265  85.9534760
  40.1459808  60.9619598  87.4451981  35.1659813  67.2943344  31.6077213
  34.6433258  68.0816498  31.7600174  35.3585320  67.3123016  30.6702595
  70.7278900  59.9023247  16.0417194  69.9946518  59.3047676  15.8950319
  70.5043716  60.6842003  15.5367985   9.6813946   3.8568399  30.6808605
  10.5975695   3.6814806  30.8955803   9.1932421   3.1701880  31.1352272
  34.8208961  22.0075588  88.1456451  35.7418900  22.2675362  88.1660461
  34.3923416  22.5950661  88.7680664  77.3470535  32.1659775  26.3290367
  77.9130478  31.4723778  26.6678562  76.6514511  32.2476082  26.9814987
  23.3174057  69.2293930  68.8956528  24.1367893  69.1126633  69.3764954
  23.5906086  69.3920441  67.9927979  18.7934895  29.3030720  67.9755249
  18.2973461  29.4344959  67.1675644  18.3027477  28.6332302  68.4516754
   2.8326483  53.6918182  47.0698395   2.8733287  53.4602356  47.9977112
   1.9394850  53.4700546  46.8065681  64.5888138  60.2887039  16.8191471
  65.2480850  60.7739639  16.3230495  64.0695496  60.9655533  17.2532845
   0.6455159  21.7823639  50.4558678   0.1617884  21.5185490  51.2385788
   1.3868607  21.1780758  50.4174461  24.9688263   8.2720718  58.1567726
  24.9346066   8.4006948  59.1046715  24.5006161   7.4502888  58.0095177
  23.0394993   1.5932455   3.3814328  23.2405186   2.0459788   4.2004905
  23.5700741   0.7971132   3.4113691  74.3072586  31.8603191  39.3399658
  74.0322113  32.7667046  39.2019615  74.6173401  31.5708275  38.4819031
  20.2672443  63.9768562  40.3125153  19.8646202  63.1445541  40.5603104
  20.3538151  63.9270058  39.3605423  59.2194939  21.0923843  85.4504852
  58.4105949  21.5091820  85.7474594  59.8398781  21.2373390  86.1648712
  31.0472240   0.6439967   9.0339756  30.6845417   1.4280356   8.6216936
  31.7631207   0.3790604   8.4564533   5.6505065   7.3699188  13.6675444
   5.8439455   6.9961843  14.5272741   6.3002110   6.9777141  13.0841990
   4.5418973  51.2101593  49.2155304   4.5113821  50.3319473  49.5950661
   5.3660583  51.2324104  48.7292213  35.8202629   2.1258807  24.3347778
  35.3164330   2.5648022  25.0201511  35.5906372   2.5936997  23.5318756
  61.8922806  11.5816584  34.0796928  61.5029755  10.9795408  33.4455566
  62.0675545  12.3776627  33.5778084  83.3237534  21.4272232  23.1489315
  82.5807343  20.8491707  22.9757099  83.7018127  21.5964737  22.2859974
  85.5736465  15.3863354  35.3324165  84.7971191  14.9641304  34.9650078
  86.1266327  14.6605539  35.6216927  35.4461937  65.0213013  59.4010086
  35.3891754  65.7763824  58.8154831  36.3457527  64.7092972  59.3026085
  69.3930817  38.4839096  81.8915558  69.4940567  37.6525269  82.3550568
  69.7883606  39.1324577  82.4741135  35.2097435   0.6254535  29.8332348
  34.2652283   0.5920631  29.6815662  35.4960289  -0.2851856  29.7624588
   5.5224681  39.5293465  87.1214981   5.4904323  39.7372131  88.0553055
   5.3703871  38.5851746  87.0809479  75.9489212  43.6814575  88.5548325
  76.1413498  42.8982620  89.0704041  75.3201599  44.1696320  89.0864105
  19.4327755  65.8735504  58.1220131  18.6782551  66.2055130  58.6085625
  19.6963406  66.6034012  57.5615768  67.9456787  11.9572439  27.4073391
  67.9694748  12.4275789  28.2406769  68.7757034  12.1772203  26.9843731
  35.3664246   9.3149529  46.4759216  35.0639420   8.6818724  47.1270332
  35.0991898  10.1648149  46.8259964  24.6361542  17.4420662  57.1186562
  24.3848114  16.7607365  57.7422333  24.0501633  17.3122768  56.3730011
  77.5868988   3.9801450  79.0483856  76.9506454   3.3191652  79.3213577
  77.2855835   4.2600889  78.1840515  83.4173050  10.6529121  11.6073236
  83.4209518  10.2381973  12.4700117  83.1425781  11.5541925  11.7760000
  57.7288818   5.9192748  86.2157745  57.2256775   5.5263448  85.5026016
  57.6093292   5.3194389  86.9520721  54.4498825   3.0085046  69.6204300
  55.0153465   3.5479064  70.1731796  53.6911049   2.8148544  70.1708755
  39.5979424  61.9801254  18.8187733  38.9123230  61.5354843  18.3203259
  39.4622078  61.6928444  19.7217007  70.4506302  53.6524200  55.9934578
  70.5040054  54.5604286  56.2916260  69.9636765  53.6987343  55.1706810
  33.4248047  18.7493095  86.4024353  33.1861153  18.3578548  85.5621872
  33.4925117  19.6864166  86.2194672  18.0178204  10.4171486  60.6720734
  18.6659832  11.0930128  60.8703804  17.3094578  10.8865414  60.2314796
   2.2612484  48.8609123  40.4252625   2.9009807  49.1484337  39.7738724
   1.9434390  49.6715355  40.8229027  60.2070961  68.0115891  78.4926987
  60.7087593  68.4644470  79.1705475  60.8702316  67.5983505  77.9397812
  45.8925743  57.7409058  80.4175797  46.2452202  57.2602921  79.6686554
  44.9818649  57.4528465  80.4797287  30.8385143   4.3052135  45.4494591
  30.7110386   3.3899071  45.6988487  30.9509258   4.7664952  46.2806091
   9.5391531  21.5634899  51.6714821  10.1792097  21.4338017  50.9716682
   9.9465666  21.1721897  52.4442215  56.8827744  20.7297382  20.9758244
  56.3086586  20.1530132  21.4798164  56.9408607  20.3165894  20.1143322
  19.5918293  70.8606644  79.1857910  18.8117504  70.3338242  79.3594284
  19.6367912  71.4716492  79.9212570  74.6502533   4.6387119  88.2326202
  74.4699097   3.7297163  88.4722748  75.5868073   4.6531134  88.0353851
  59.4499359  33.9303627  24.3358974  59.0211105  33.2184219  24.8107452
  59.9087410  33.4963074  23.6166439   7.1729584  56.5728645  71.5531006
   6.5547962  57.0224495  72.1292801   7.8338256  57.2342796  71.3481293
  58.3550110  49.3758392  15.3353634  57.9114494  49.9527512  15.9571829
  59.2311859  49.7503281  15.2442274  70.2841644  21.7058678  54.8429527
  69.3828506  21.3841534  54.8236847  70.7433319  21.0974140  55.4218979
  13.5717888  14.3356552  15.2760229  14.0355396  14.6534824  14.5013275
  12.6915522  14.7030392  15.1957531  31.8718987   6.8965731  83.1904221
  31.5253601   6.1901121  82.6453934  31.4512978   6.7711458  84.0410614
  13.8686123  51.6684570  60.0400658  14.0466404  51.9055939  59.1299515
  14.7344990  51.5818176  60.4387703  86.8470993  64.9402084  71.1730957
  86.6985168  65.3766174  70.3342285  85.9888840  64.9374847  71.5969925
   3.7661641  34.6360283  54.2304573   4.5606904  34.3252106  53.7964592
   3.3979862  35.2788696  53.6242943   7.5408678  54.8986816  67.9364471
   8.1282234  55.6294670  68.1293106   7.2107477  54.6244812  68.7920532
   8.7381725  48.1013222  27.3994389   8.3134909  47.2462616  27.3305378
   9.5790539  47.9180412  27.8184357  57.8957825  34.5118408  14.2124052
  58.1838722  34.5649529  15.1236763  58.3083801  35.2632866  13.7865858
  86.0137634  42.0957222  34.6688843  86.9243240  42.3846359  34.6085167
  85.5586548  42.5948410  33.9906616  72.4637680  63.6057205  19.3914299
  72.4417191  62.6895638  19.6678352  73.3395309  63.7239075  19.0235977
  12.3241491  67.2819595   2.2235923  12.1851797  66.7722702   3.0218041
  12.5667505  68.1538467   2.5353401  83.6642380  39.2141342  17.4399681
  83.3523560  40.1115494  17.5566082  83.0223465  38.6754532  17.9025974
  60.6543732  26.9490318  56.0453491  60.4544373  27.5923920  55.3653870
  61.0078201  27.4669228  56.7686043   2.4966571  12.4827642  86.5148392
   2.2448194  13.0794420  85.8100052   2.9123569  11.7456322  86.0675583
  51.7228737  28.5949516  14.8864594  51.8663063  27.8579102  15.4801188
  52.4854393  28.5884285  14.3079386  80.5964203  33.1197205  41.3112259
  80.6908951  34.0122185  40.9784355  81.3833237  32.9755211  41.8367958
  -0.0227495  15.3036518  77.8875504   0.9342648  15.2919626  77.8727493
  -0.2723113  15.5949287  77.0105591  53.5336304  54.6070671  73.7471619
  52.8726082  53.9965477  74.0735779  54.3692627  54.2006683  73.9769211
  79.8228455  36.2436790  53.5839424  79.4713745  36.1199379  54.4656410
  80.4180298  35.5047646  53.4574776  76.2829056  33.2603149  69.9121170
  76.1181259  32.5881004  70.5733337  76.5868378  32.7733917  69.1461105
  14.3619938  66.0016708  37.5390701  14.9875984  65.8744736  36.8258591
  13.5227051  66.1390839  37.0998192  40.0438385  42.9494133  16.1957970
  39.5756493  42.1533852  15.9440680  39.5290565  43.3122482  16.9166145
  17.2221508   4.7173047  39.4661903  17.3731461   5.6211267  39.7428474
  16.8640366   4.2859883  40.2420464  62.8080597  27.4272594  12.1722775
  62.6148491  28.3509350  12.0118856  63.0000000  27.0687370  11.3057604
  52.9445152  64.4210892  73.5480118  52.0730858  64.0490952  73.4121246
  53.0510864  64.4403000  74.4990692  15.6925678   1.8803724   7.7318583
  15.4729290   2.6191061   8.2995405  16.6344624   1.7584733   7.8510566
  49.6909714  24.5163441  24.5064678  50.3649750  24.8140411  23.8954601
  49.9496841  23.6227112  24.7316742  68.4981689   7.7822242  46.9919739
  67.7299118   7.9356589  46.4420013  68.2769241   8.1868324  47.8307686
  37.4483147   8.4242649   3.2900393  37.7971954   7.9633064   4.0529485
  37.9015465   9.2673597   3.2916718  24.2954254   8.6002550  65.4718018
  23.6377373   9.2931871  65.4124527  25.1026783   9.0560160  65.7102509
  82.4369278  68.6271896  63.8014526  83.3624649  68.5549316  63.5682259
  82.0264435  69.0232162  63.0327606  36.5814667  64.8484268   2.5331059
  36.1168747  65.4877243   1.9930254  36.1133728  64.8549728   3.3680172
  83.9649582   1.5371540   1.7681191  84.8696594   1.8432059   1.7043118
  83.9072113   0.8257890   1.1302657  22.8002472  68.7505951  58.2069550
  22.5202293  69.5333862  58.6813507  22.2152939  68.7068787  57.4505463
  13.3474016  28.4709511  16.2899666  13.5107784  29.0075054  17.0656281
  12.5925407  28.8822060  15.8689137  58.1515198  55.4521904  71.8833847
  57.6086655  54.6990509  72.1164551  58.3532524  55.8702507  72.7204971
  79.2812729  16.7349586  72.8106842  79.1257553  16.1448517  73.5481262
  78.4264069  17.1275101  72.6336441  76.7100983  25.0652790  54.9057541
  76.3599548  24.2892323  55.3432274  77.2215576  24.7179832  54.1749840
  29.2869205  64.1654129  82.3237076  28.3841801  64.1425781  82.6411514
  29.8209076  64.0940018  83.1149063  59.4660034  25.7130280  11.7154112
  58.8906555  25.6812077  10.9510841  60.3384933  25.5313454  11.3661575
  30.0483074  20.0885181  22.9381294  29.0935688  20.0865173  23.0067005
  30.2467117  19.3711262  22.3362865  61.5320702  29.4012413  15.2829924
  60.6521950  29.7404137  15.1186409  62.0432053  30.1715469  15.5311956
  50.1017532  59.4502563   6.1932621  50.2961464  60.3450394   5.9143171
  49.2889519  59.2289200   5.7387314  29.2091885  70.7955856  49.8724289
  28.7003117  70.0899811  50.2716751  29.8607445  71.0254440  50.5349045
  60.7217407   4.1587429  82.4840240  59.8801155   4.0796666  82.9330673
  60.5848503   3.7268445  81.6408463  75.6871109  54.7207260  62.1580811
  75.5547180  55.2350349  62.9544449  76.6249161  54.7919579  61.9800949
   5.1466050   1.7260901  84.2383118   5.1223407   1.4184113  85.1443939
   4.9639645   0.9454781  83.7153244   9.7930651  23.4698582  41.0919151
  10.6972637  23.1568851  41.0653648   9.8678532  24.4005775  41.3026276
  47.1575050  57.2793846  13.4494810  47.2002106  57.1280708  14.3936796
  46.7216644  56.5013618  13.1016998   5.2795067  58.6827965  20.5872402
   4.6445699  58.9112320  21.2661400   5.4961109  59.5172691  20.1713409
  41.9717674  52.4684715  69.2925644  41.1667366  52.2096214  69.7410736
  42.2423477  51.6845169  68.8146210  27.9333973  57.6286354  69.9037781
  27.7582569  58.3005447  69.2449188  28.5858040  58.0242538  70.4817734
  63.5796547  22.2470741  66.7927856  63.4944687  22.5660133  65.8943176
  63.4420166  21.3022060  66.7255936  11.7182693  16.1421719   3.9554474
  11.3880796  16.2790852   3.0674942  11.0176392  15.6656113   4.4006886
   7.4812112  20.9645901  48.0634346   7.5180526  21.0536537  49.0157700
   6.6298242  20.5615578  47.8933296  18.5658989   4.3726201   2.5102220
  18.1733208   3.5864234   2.8897066  17.9911938   5.0856290   2.7887237
  37.1420326  17.6937618  27.5747452  37.3830872  18.3648453  26.9361763
  37.7874107  17.7870865  28.2754669  79.3026428  69.9645767  46.7215881
  79.9868088  70.6197586  46.8590164  78.6447678  70.4130783  46.1902924
  53.6418457  19.6176300   5.8807249  53.1230507  20.1364651   6.4954538
  54.0902328  18.9740620   6.4293647   6.7957945  10.9712944  48.6336479
   6.8950062  11.3456278  49.5090103   7.3294625  10.1768579  48.6509857
  19.1106796  15.4928923  48.1397629  18.7101841  15.6227379  48.9993973
  19.4121723  14.5844803  48.1507416  32.5332298  44.4094429  10.4883747
  32.7908478  45.2251472  10.9179029  31.7141399  44.1613388  10.9170542
  15.3497715  35.6299477  75.5647354  15.7259045  35.0550346  76.2312393
  14.6488266  36.0971375  76.0193100   7.2935824  15.7769232  10.5529842
   7.3900719  14.8320160  10.4343576   6.4765587  15.8747272  11.0420027
  13.6780138  59.8457603  14.3305779  13.5575418  60.4317322  13.5833492
  14.2247562  60.3428268  14.9390430  12.6913414  30.9799767  83.4769897
  12.8479691  30.6862240  82.5795441  12.2496281  31.8235207  83.3792496
  62.7696266  14.1941471  57.5746803  63.3153915  14.7188606  56.9889793
  61.9820671  14.0064049  57.0640526  60.8302956   1.0416030  52.0437431
  61.5131683   0.4327634  51.7622566  60.0639648   0.7989069  51.5240669
  32.9195595  69.7924652  27.0762177  33.5609283  70.2370148  26.5219097
  32.3869858  69.2832718  26.4652233  31.9218140  60.4181976  69.2341232
  31.0505009  60.8044930  69.3225784  32.3310318  60.5519676  70.0890350
  72.3238907  35.3140335  73.0711594  71.8197021  35.5485306  72.2920380
  72.8723145  34.5816078  72.7900772  43.7848129  10.4055920  11.5490189
  43.3970184  10.9710217  10.8810835  43.0504112   9.8898821  11.8820763
   1.1632048  10.6660261  88.2277985   1.3681005  11.4052639  87.6552811
   0.5997856  11.0377007  88.9065094  83.7468338  63.5907326   1.6368626
  84.1759262  64.1014633   2.3233523  82.8410721  63.9002838   1.6387556
  56.5220642  24.8662739  66.4101028  57.3155861  24.4246216  66.7125854
  56.7723999  25.7875385  66.3405762  15.8092899  41.2765961  88.6080322
  15.3360262  42.0865517  88.4177017  15.2222958  40.5809479  88.3118134
   6.1036034  47.6879692  64.7042084   5.7700963  46.7989922  64.5828629
   7.0399022  47.5724869  64.8661957  63.6261330  30.4085045  30.4298878
  64.1832581  31.0697117  30.0192146  63.2749786  30.8410721  31.2082253
  82.1122742  48.9277458  61.3743248  83.0263824  48.6893044  61.5285568
  81.6278687  48.1112671  61.4965706  12.4754782   2.2016256  54.9481697
  13.1377945   2.7990391  55.2955399  11.8505678   2.0937667  55.6651688
  37.4785461  71.2054749  59.2557449  37.1790962  71.1581573  60.1636696
  36.7287292  70.9080505  58.7404327  63.1150894  14.5692167  41.1619911
  63.4350281  14.6975327  40.2690163  62.1622581  14.6171627  41.0842361
  19.3623543  28.9081459  74.4763565  18.4882870  28.9654217  74.8623047
  19.3011036  28.1862755  73.8507538  32.4695969  63.2544975  30.1816406
  33.0132942  63.6407967  30.8682251  32.7935181  63.6464691  29.3706760
  17.7588272  62.8290329  59.5236397  17.4515820  62.9140396  58.6210823
  17.8935452  61.8889389  59.6432495  71.0488586  56.2448616  81.2697601
  71.8796158  56.1753273  80.7994003  71.3008041  56.4236832  82.1757278
   5.2747669  24.3195114  72.8988190   5.1927700  24.4730759  73.8400574
   5.5488091  25.1641006  72.5413208  70.6508255  46.1262321  51.6282196
  71.2591019  45.3872147  51.6370773  71.2138977  46.9001160  51.6451759
  26.7005043  67.8128815  42.6019783  26.4439926  67.0264206  43.0835571
  26.9799328  67.4889221  41.7457085  35.9409332   3.9220614  81.6638565
  35.6494598   4.6996040  81.1877213  36.8820915   3.8768132  81.4953232
  86.7880859  31.6171417  86.0294495  85.8357773  31.7137585  86.0310822
  87.0423965  31.7662907  85.1187820  46.6925888  18.5875511  20.5228710
  47.1809502  19.1226864  21.1484642  46.0216522  19.1760216  20.1767807
   3.3789532  39.1154327  54.9382973   3.8930464  38.7083778  54.2409859
   3.1170623  39.9631615  54.5791359  57.5370636  10.0437002   9.3581896
  58.0059776   9.6899881  10.1139936  58.1907120  10.5667839   8.8941212
  70.2137222   0.6032380  11.8835087  69.3786087   1.0621929  11.9739513
  70.6711884   1.0734669  11.1864843  15.4479456  38.8404922  25.8291187
  16.3926601  38.9001083  25.9712124  15.0773697  38.7703781  26.7088871
  79.5915909  59.4347191  51.5096474  79.9075928  58.5656128  51.7566795
  79.9972763  59.6043510  50.6594276   7.6958652  51.1609116  79.8010483
   7.9956884  50.5297813  79.1468201   8.2191010  50.9666405  80.5786819
  14.1271696  61.8396301  12.3644238  14.9628162  61.9068680  11.9024668
  14.0247164  62.6864967  12.7986441  61.6771545  38.5326691  73.4958420
  61.4477005  39.4280472  73.2470856  62.6334419  38.5332985  73.5376587
  60.4475937  59.6881752  65.6374588  61.3390732  59.6049919  65.2989655
  60.5367432  60.2411880  66.4136429  74.6043625  27.4838772  69.0570374
  74.9616318  27.3590336  69.9362488  74.6468124  26.6158810  68.6557770
  32.8024216  57.4354439  60.3557396  32.1586266  58.1307335  60.4911423
  33.0795975  57.1904411  61.2385635   6.6755977  32.4603348  88.5550995
   6.5277200  31.8336277  87.8468628   7.4667511  32.1454086  88.9922867
  31.5557537  52.3524170  56.2147446  30.6794262  52.4830284  55.8524933
  31.6427212  51.4025383  56.2947464  15.3469095  23.7987976  64.4341278
  14.4633894  23.4404259  64.5189438  15.3905516  24.4878426  65.0971069
  86.6228714  35.2579803   0.2523882  87.2543030  34.7255859   0.7362152
  86.2004547  34.6428185  -0.3470878  56.0823479  67.2679901  49.9794540
  56.1588631  66.5595474  50.6185837  55.6320038  66.8705750  49.2341461
  13.2070856  66.6674042  54.2355194  12.3880405  66.3434982  54.6103325
  13.0386753  67.5922241  54.0550537  62.0088768  26.6166058  32.2105942
  61.6727867  27.4273491  32.5926514  61.9418602  26.7515011  31.2653179
  80.1736832  42.7066536  67.4391861  79.4279861  42.9571152  66.8938141
  79.9254761  41.8598442  67.8100433  29.5523453  65.9005661  58.8549156
  28.9233837  66.4729691  58.4156036  29.7487717  65.2209778  58.2100868
  68.0418091  16.2910843   5.1636004  67.8862610  17.1921253   5.4467278
  67.3500290  15.7837868   5.5882521  65.3025665  50.6160507  49.9869843
  64.7563858  50.2561073  50.6858101  65.5812378  51.4703560  50.3167458
   2.6616573  69.3474579  17.1851425   3.4695556  69.0612411  16.7589798
   2.9250407  69.5580673  18.0809669  35.1417313  20.1367416  83.9273682
  34.4266891  20.5467453  84.4140320  35.9218369  20.6244469  84.1915817
   4.4857802  59.3635254  14.4969902   5.0299640  59.2525749  13.7173843
   4.9350061  60.0361023  15.0089159  70.9838638  18.9097977  34.4018097
  71.1929550  18.5299778  33.5484352  70.0283356  18.9655018  34.4115486
  73.1813736  22.5622826   8.0609007  72.7541962  21.7070103   8.1083841
  73.1741867  22.8839798   8.9623947  40.7974548  68.4442902  53.3603821
  41.4340973  68.3069687  52.6589127  40.8621864  69.3774948  53.5632782
  36.8428879  52.2926979  13.9885273  36.4207039  52.2039948  13.1340542
  37.7378273  52.5655212  13.7863350  72.8627777   2.6419082   2.0186567
  73.2876968   1.8576999   2.3660662  73.4063721   2.8988488   1.2738622
   7.4887323   4.0586715  21.6747742   8.1926012   3.5800140  22.1125946
   7.6148796   4.9687386  21.9432812  23.6553535  45.1443596  13.8316336
  23.1948624  44.6448593  13.1573334  23.3543491  46.0448418  13.7101469
  49.1461296  66.2301788  67.7144623  48.7466164  65.3691940  67.5906906
  48.9527321  66.7025986  66.9047394  71.3998642  52.3238792  66.1028519
  70.4612656  52.3357925  65.9154358  71.8165359  52.3714638  65.2424164
  83.2282486  42.2092323  60.1173439  83.0726318  41.4087105  60.6185188
  82.3527679  42.5381584  59.9134369  15.1785326  31.1117306  84.5318146
  14.3678637  30.7348709  84.1897278  15.5207968  31.6390457  83.8099899
  83.2515030  60.1525955  12.0076809  83.9795685  60.6218948  12.4150076
  83.2575378  59.2916565  12.4259844   8.9995232   2.9735351   3.2706070
   9.6369305   3.4512653   2.7398372   8.6776295   2.2814209   2.6930301
  84.7293930  57.1216850  55.6461716  85.4566803  56.8446350  56.2034340
  85.1185837  57.2239075  54.7776604   5.7275271  55.4407921  62.6451912
   6.0702276  56.2317924  63.0612564   5.9981709  54.7287903  63.2248764
  34.3641434  18.2320843  13.0572891  33.4760017  18.2299652  13.4142656
  34.2546692  18.4978657  12.1442680   1.4103290  59.0431442  32.0999603
   1.0063503  59.7112083  31.5461349   2.3470228  59.1139183  31.9160404
  22.8324223  61.2265739   0.4520245  23.3371620  60.8286934   1.1613629
  23.4753761  61.3869705  -0.2387112  77.8290634  58.7529449  11.7650728
  77.4045334  58.4138680  10.9770155  78.2927170  59.5363274  11.4691544
  60.8026390  12.2420321  12.9548407  60.9439240  13.0696793  13.4144821
  59.9032555  12.2978563  12.6319981  83.6670380  52.6421242  42.3433762
  83.2919159  52.6465225  41.4627495  83.1793518  51.9620743  42.8080559
  71.6084824   0.3697412  60.6241722  71.2871094  -0.5089236  60.4219398
  72.5609055   0.2963914  60.5629845  66.4857407  44.3846169  78.6740494
  65.6767578  44.6099548  78.2147141  66.3609619  43.4756966  78.9470367
  60.2027702  65.1950760  11.9272127  59.4939041  64.8293228  12.4563265
  60.9956322  65.0170898  12.4331026  68.4723358  60.4506378  50.8249817
  67.8451996  61.1401634  51.0428810  68.5889664  60.5235710  49.8777161
   9.3394318  30.3001709  46.0270004   9.8624125  29.6938381  45.5025177
   8.4552107  30.2261868  45.6679573  48.7257576  59.5812225  10.2146931
  48.4090385  59.8838387  11.0657778  49.4458809  58.9866295  10.4247198
  45.8364792  69.0598679  64.3190842  46.2918816  68.2917938  63.9742661
  45.2157211  69.2992554  63.6309090  61.0718956  51.4412613  38.7568665
  60.7842064  51.0119781  37.9511490  61.4718056  52.2596207  38.4626007
  80.5099564  48.2837753  41.8234711  81.0206833  47.5982971  42.2541809
  79.6111832  48.1323051  42.1158676  22.8167362  70.1931076  79.3267441
  23.7669678  70.0897980  79.2755814  22.6452045  70.3771667  80.2502899
  28.9659710  26.3957672  10.4658937  29.0672894  25.5554390  10.0188875
  29.2786503  26.2329102  11.3558044  47.8648529  66.8718719  39.8470688
  47.9283905  67.6237869  40.4359779  48.2991104  67.1593018  39.0439301
  61.7646942   4.1405096  39.2424431  62.1663017   3.5018439  39.8315544
  61.1493835   4.6223493  39.7951241  70.1616287  64.3600464  44.0473480
  70.2071457  64.2414169  44.9960747  70.3163223  63.4860497  43.6889839
  15.3239193  71.5098648  35.6782837  15.1601458  70.8584671  36.3602600
  15.0604649  71.0775528  34.8659210   7.4945560  44.6008148  44.8441734
   8.1938944  44.3145370  44.2566338   7.6943645  45.5193672  45.0246429
  32.8488731  27.2885628  79.6657791  32.3173332  28.0090847  80.0042267
  32.4496689  26.5016327  80.0367355  19.1196594  34.3268089  26.8029118
  19.9769936  34.5892296  26.4677296  18.6998959  35.1487617  27.0567379
  65.0345306  52.4802666   9.0687981  64.6419067  51.6399803   9.3054466
  65.8965225  52.2522812   8.7206287  46.0713844  10.0778131  53.4617920
  45.9633560   9.8898430  52.5294685  46.9982185  10.2976780  53.5559769
  44.2699966  70.4416962  42.3788185  44.1479988  69.9466400  41.5687141
  43.8007355  71.2627335  42.2307549  73.1853714  24.4464626   9.9068060
  73.9904556  24.9462490  10.0420170  72.5687408  24.8089733  10.5428724
  50.6634331  58.9282494  70.4815598  51.4723358  58.4690437  70.7074814
  50.0331764  58.2300110  70.3041534  71.1271973  69.1808701  66.6837692
  70.7191315  69.1603088  67.5493851  70.4458084  69.5243225  66.1058502
  74.7176132  63.8721504  13.1582499  75.4629822  64.1569824  12.6295519
  74.4540176  64.6549377  13.6419868  41.5849228  62.7492867  23.0019093
  42.4646797  62.9908180  23.2915993  41.3704453  61.9686813  23.5126839
   8.0318956  42.3737144  21.4804153   7.2085886  41.9156113  21.6493530
   7.7847657  43.1138840  20.9260597  10.7507954  35.2813911  84.3969193
  11.1470032  35.8674393  85.0417480  10.5510435  35.8464432  83.6505661
   5.1307163  23.7823658  33.1739616   5.3686357  23.8255424  34.1001167
   4.3035378  23.3008575  33.1613617  66.6750717  51.6873169  47.8423500
  66.2282944  51.1248322  48.4749908  66.0017776  51.9045296  47.1975899
  37.4710350  13.4205503  25.0213051  37.6127968  13.4716988  24.0760441
  36.5864334  13.7629395  25.1497040   3.2512755  69.4577179  66.3553619
   2.4397173  69.6715469  65.8950577   3.6412885  70.3074417  66.5605240
   1.7517278   7.5728531  23.3664131   1.3136468   7.2478199  22.5798569
   1.3158495   8.4033613  23.5574589  75.9216156  17.0379200  38.0001144
  75.4995422  17.4336872  37.2375870  76.4008255  17.7583675  38.4094467
  59.1218796  17.5778980  75.7171936  59.2176704  18.4125347  75.2584610
  58.1841125  17.3898487  75.6790009   1.7995631  31.6724148  83.7789612
   2.7202194  31.9265709  83.8424301   1.8210033  30.7770672  83.4411392
  74.8643341  54.6293793  10.1588612  75.6639938  55.0294571  10.5004978
  74.8206482  53.7757416  10.5897045  35.5199013  35.3220291   9.7162952
  36.3499451  35.6784172  10.0329075  35.7659416  34.7550049   8.9854174
  42.9832458  63.8936272  31.9951744  42.4635086  63.3718452  31.3837414
  43.0169182  63.3651161  32.7925262  60.3239975  64.8234863  82.3566818
  60.3093262  64.0207901  82.8779221  61.2127457  64.8634949  82.0034714
  10.0101957   3.3692968  52.5172844  10.6082611   2.6219442  52.5208549
   9.2328100   3.0517659  52.0578499  25.5532818  65.5270691  43.7768478
  26.3668556  65.4919968  44.2799377  24.8747120  65.6966400  44.4303169
  21.4533730  35.0811806  29.1894627  21.5528030  35.0367813  28.2384777
  21.9343891  35.8686028  29.4440708  82.7589569  35.7744217  69.2536163
  82.8313828  35.2441635  68.4600067  83.4520111  35.4450607  69.8258209
  61.6306458  46.3749161  31.2775879  61.3580170  47.2377625  31.5896816
  62.3091011  46.1004410  31.8945141  80.3497009  10.5952320  84.1614227
  79.5576324  11.0827608  84.3876572  80.1397934  10.1697378  83.3300858
  60.1396904   2.2418263  11.9413805  59.8328323   1.6457529  11.2581778
  59.9681778   1.7764117  12.7600412  29.2999878  44.8816147  15.8657341
  30.2454758  44.8972931  16.0141888  29.1319904  44.0208130  15.4822884
   6.3715677   4.1461010  87.7063370   6.4173336   4.4936428  86.8156357
   5.4870200   4.3611984  88.0022125   4.5657620  27.6528950  23.6466389
   4.2432256  26.8794613  24.1092453   4.2157164  28.3924255  24.1434231
  53.2074738  28.4628239  76.6190643  52.3117867  28.6360989  76.3293152
  53.1113281  28.1424141  77.5159073  78.3146515  23.0873413  62.5390091
  77.4295731  22.7382107  62.4342422  78.6909561  23.0539665  61.6595116
  67.2171021  24.7615433  34.6499290  67.9965897  25.3170738  34.6466599
  66.5168610  25.3332424  34.9646645  38.3119545  12.7552423  70.1399155
  37.6361313  12.9832344  69.5015411  38.7024612  11.9508400  69.7983398
  63.0723648  70.2113342  19.6474266  63.8735504  70.7215881  19.5292377
  63.3707962  69.3776169  20.0108604  71.1874390  18.8304825   5.2923822
  72.1082382  18.6954117   5.0685129  71.0057526  18.1742363   5.9651089
  62.8267632  37.3898659  43.8901558  62.4146042  38.2469521  43.7816849
  62.8411636  37.2491150  44.8368416  79.6354523  67.7490005  20.6473446
  79.9740677  66.8764801  20.8480358  79.0448151  67.6121597  19.9066296
  26.2472916  69.6856461  38.7252617  25.8058567  70.1260376  39.4514961
  27.0073833  70.2363586  38.5376320  60.3448944  47.5837479  44.9450150
  61.0060997  47.8468323  45.5851936  59.8852692  48.3949165  44.7282639
  39.6104851  43.4932365  84.5749207  40.1850929  43.3185883  85.3202744
  39.1452408  42.6688614  84.4328384  47.0936241  54.7882652  42.6645889
  46.9939575  55.7132301  42.4393387  47.8129807  54.7716484  43.2958450
  68.7986908  47.6543503  20.9529037  69.4578094  48.2073097  21.3724651
  68.7750244  46.8614655  21.4886322  21.7840919   6.0315108  76.1093521
  21.5691719   6.8573532  75.6757278  22.1473274   5.4832559  75.4138565
  31.2249718  20.5926132   5.9622321  31.5848160  21.2902012   6.5100603
  30.3694935  20.9217949   5.6864986  25.6783428   6.7530112  67.0244217
  24.8210945   7.1622419  66.9065781  25.5295086   5.8265567  66.8353195
  75.6926575  42.2710419  31.5725613  75.2410202  42.9595795  32.0605888
  75.7377167  42.6031380  30.6759491  57.8835373  64.5580063  34.4585190
  57.5528488  65.1955261  35.0913277  58.6274605  64.1471024  34.8989372
   2.9745340  38.0654755  25.0547600   3.5869122  37.8512917  25.7585716
   2.1437976  37.6812515  25.3349056  70.0965500  27.5739670   3.5627246
  69.7335434  27.2536278   2.7369885  69.8083344  26.9352913   4.2148428
  30.5390148  12.2016907  15.1827755  30.9104824  11.3359509  15.0132532
  30.9973412  12.7821484  14.5751247  37.9266968  44.3385353  17.7254486
  38.2663956  45.1211395  18.1594620  37.9145737  43.6706467  18.4110241
   0.1218582  49.7558327  82.2721786  -0.1048854  50.4528008  82.8878479
   0.7944711  50.1415405  81.7108765  78.1655655  55.5052338  57.3814507
  78.2269287  56.1208153  56.6510239  78.9969864  55.6011200  57.8459740
  79.4401016  33.2342262  47.4875603  80.1615524  32.7899628  47.9329491
  79.4434509  32.8687820  46.6028748  76.6044617  55.1309624  36.9650002
  75.8898544  55.7672806  36.9391174  76.4081116  54.5212288  36.2537308
  61.0820808  20.6087875  51.6577988  61.6978722  20.2132320  51.0408974
  61.4304237  21.4864979  51.8143654   4.0757160  24.6324863  52.7064819
   4.0459528  23.7068119  52.9482880   3.1686845  24.9289379  52.7815895
  84.0868454  61.9342957  83.4764252  85.0195465  61.7724266  83.6181946
  83.7506866  61.1085396  83.1280594  75.8676071  55.2290077  54.8263550
  75.8634109  56.0663033  55.2901955  76.0974808  54.5851898  55.4963455
  52.4562454  49.5905838  62.7356796  52.2451553  48.9715042  62.0368156
  53.1361580  49.1518478  63.2470131  36.3806267  56.6259270  87.2821503
  37.1708717  57.1598663  87.3637314  36.5875931  55.9956627  86.5921021
  85.0551987  48.6137199  49.6795082  84.2778473  48.7621422  49.1410561
  84.7240295  48.1725655  50.4617767  80.3778687  14.3698816  83.6504059
  79.7371750  13.6594419  83.6824646  81.1857147  13.9506721  83.3539658
   1.0386168  63.6460075  65.6217270   1.3882813  63.0959091  66.3227005
   0.0884371  63.5791473  65.7161789  34.0333366   9.8056688  31.3969612
  34.7178955  10.1309223  31.9816170  34.0931473  10.3658953  30.6231384
  10.8697777  42.8417168  77.6827011  10.6173210  43.3057518  78.4809265
  10.2809696  43.1841621  77.0101929  61.4391632  39.5695877  26.0288029
  61.9452858  39.4174767  25.2307205  60.5803032  39.8548660  25.7170258
   6.8415971   2.7965684  68.5989685   6.2942023   3.3798022  68.0732040
   7.2327285   3.3670483  69.2606354  55.0702515  15.5930061  60.1602097
  55.9411888  15.2017860  60.2283783  54.4759445  14.9101715  60.4712791
  33.6388893  54.9293175  41.4758034  34.3251762  54.7478828  40.8336792
  33.0644608  55.5594635  41.0408516  75.3519516  54.1501656  47.1736374
  76.2035904  53.9604568  47.5672760  75.3528137  53.6584625  46.3523827
  57.0286598   4.5961995  81.2974930  56.1087189   4.8266506  81.1677475
  57.4973030   5.4269600  81.2172318  34.3898125  36.7122002  34.3340111
  33.6178398  36.3879051  34.7978249  34.3971291  37.6530991  34.5097656
  70.1703949  35.4990807  31.7835121  69.5913620  35.9362602  31.1591511
  70.9498062  36.0537643  31.8162651  48.9825134  54.8742676  44.5394173
  49.2896500  54.3788681  45.2986794  49.6457253  55.5525589  44.4117508
  86.6007156  11.3721857   6.0712037  87.4262924  11.8548536   6.1123013
  85.9519577  12.0285110   5.8170891  49.0605240  23.9159260  83.7580719
  49.8652802  24.2542229  83.3654480  48.3575020  24.3554096  83.2796936
  57.3129730  19.3514595  82.8375320  56.4483566  19.2611713  82.4368896
  57.8562355  18.7080994  82.3823547  61.3193779  43.0926666   5.2715240
  60.8246498  42.3237724   5.5548615  61.9899330  43.2075157   5.9448724
  15.4677267  64.5727081  21.5135593  16.3283310  64.3457642  21.1612988
  14.8711185  64.4717255  20.7718773  40.9306526  62.8089867  44.9113541
  40.1903572  63.3604546  45.1644897  41.5888863  63.4247513  44.5891876
  26.3036938  36.0942230  19.8405342  26.2328701  36.6146851  19.0403252
  26.3477821  36.7416267  20.5442085  78.7102737  15.0697327  49.6564140
  79.1794662  15.9040518  49.6583939  79.3046112  14.4617577  49.2166824
  54.0614128  26.8156509  54.4947395  54.6084023  26.2301006  55.0183487
  53.2217331  26.8334103  54.9539223  26.1309929  58.3979034  10.2635441
  25.6032162  58.5545883  11.0465736  26.4344368  57.4947968  10.3559942
  22.0547256  50.0465050  72.5625763  21.2933140  49.6413193  72.1474762
  22.6713333  49.3251801  72.6879425  27.3082981  43.5223808  18.7628574
  26.7903500  43.2153206  18.0187626  27.4891949  42.7318039  19.2712860
  78.7805176  52.0469398  59.9716568  79.3973389  52.0162277  59.2403450
  78.3064957  52.8696938  59.8507805  22.2638721  49.2373276   5.4699759
  22.8546791  48.8853722   6.1357884  21.4811230  48.6897507   5.5307608
  55.8072090  11.3876534  19.1513386  55.2007065  10.6616669  19.2973881
  56.4273643  11.3316050  19.8783150   7.1040521  28.4896088  84.4017410
   7.5685368  29.2951126  84.6290131   7.5236692  27.8130722  84.9332047
  23.3100777  14.2209444  24.3257313  23.0968475  15.1416235  24.1736984
  23.6716709  14.2019949  25.2118034  69.8503723  55.5429192  58.3325691
  70.2905579  55.3471985  59.1597061  68.9353027  55.6835823  58.5756645
  23.2435951  11.1749783  42.0873260  22.5846882  11.7364292  42.4957962
  24.0796947  11.5198460  42.4007530  53.8558464  36.0464630  31.3303623
  53.0559235  36.0673409  30.8050823  53.7976303  35.2278023  31.8229389
  81.1023407   4.9764619  21.5047531  81.0436478   5.7376571  22.0821342
  81.7138977   5.2430830  20.8183517  51.4394455  57.7161102  37.7467918
  51.3592720  58.3436928  38.4650879  52.0934296  58.1016350  37.1637802
  21.5996170  14.7929764  60.6795349  22.2570133  14.2205734  60.2840424
  22.1018105  15.3791313  61.2456245  60.3450699   7.8467999  50.7503738
  59.7013817   8.5426970  50.6176186  60.2213554   7.2605176  50.0039177
  31.7121658  62.1489220  73.5274811  30.9234924  62.0508766  74.0609741
  31.8061199  63.0942764  73.4103775  81.7334366  40.7831039  73.5103226
  81.3435745  39.9146500  73.4101486  81.0517197  41.3041878  73.9345398
  56.7354507  47.9790154  57.7174110  57.2497368  47.8211479  58.5091324
  55.9696426  48.4656296  58.0223236  32.7625999   3.1101885   9.1347065
  32.0021629   3.3118541   9.6799555  33.5091896   3.4443071   9.6318998
  59.4893646  23.3745880  80.7413559  59.3236084  23.0235157  81.6162872
  60.2787895  23.9064255  80.8422852   4.6258898   4.9989924  29.9873047
   4.1279192   5.8150382  30.0355434   4.0859151   4.4203720  29.4489212
  28.4779892  18.3769722  83.6490555  29.3383179  18.7965641  83.6461792
  28.6017704  17.5733223  83.1440277  62.3162270  30.9976978  59.1129494
  62.7088852  31.2810440  59.9386406  62.4334106  31.7429657  58.5238152
  38.7417183  22.4578114  36.6006279  39.0418739  21.5543175  36.5014343
  38.0671692  22.4130650  37.2782822  83.7512894  50.8947983  15.5265865
  84.3983383  51.5979652  15.5824108  83.9136963  50.3577423  16.3021011
  82.8518372  23.2004566  67.5103455  83.7601547  23.4187622  67.3016891
  82.9165573  22.5434570  68.2034531  27.4861050  22.6518154  71.9461288
  28.1943531  22.9909382  72.4934998  27.9320621  22.2281494  71.2127457
  65.8360214  70.9953690  62.1508942  66.6420975  71.5058746  62.0743332
  65.1521912  71.6483841  62.2998238   4.2812023  28.4997406  67.3213577
   4.2458491  27.9502544  66.5383835   3.4633999  28.9967976  67.3022614
  73.6209641   6.1483693  62.7348976  73.1531754   5.4129696  62.3391762
  74.4160385   5.7586937  63.0985489   3.4800715  44.5243263  89.0359039
   4.0602207  44.7583961  88.3114243   3.4123678  45.3245926  89.5566940
  33.3606873  36.2400513  11.0104580  33.5759964  35.9761810  11.9050236
  34.0644836  35.8719673  10.4762106  71.0202560   5.1128998  18.1729431
  70.2778244   5.6623282  18.4242363  71.7900009   5.6503305  18.3597527
  38.3256912  65.5928726  41.8945808  37.5914230  65.0379105  41.6317139
  39.0997734  65.1407623  41.5589905  60.6034393  46.8036537  48.5570450
  61.1183510  47.6070862  48.4822159  61.1422462  46.1337814  48.1361084
  56.5201988  24.0667686   6.6849422  56.4620285  23.2978916   7.2521076
  55.9820213  23.8451099   5.9250312  27.4626789  56.1753120  63.8633652
  27.5350418  55.3535576  63.3778572  26.8904343  55.9675102  64.6019974
  48.8340950  70.5457840   6.5762691  49.3616714  70.8804169   5.8510737
  48.1065826  71.1636658   6.6482625  70.4290314  66.1357803  69.8395157
  70.9992523  66.8499603  70.1241684  69.5669403  66.5408325  69.7448196
  64.2263184  54.9463730  60.6915169  64.2957764  55.0001602  61.6446762
  64.9068985  54.3234444  60.4365463  53.5683479   8.8932343  27.0223122
  53.9377708   8.0110369  26.9837379  53.5710144   9.1134939  27.9538212
  70.5996704   1.0239704  45.3060112  71.4877167   1.3004663  45.5321770
  70.5709610   0.0961021  45.5393944  23.1886711  23.2445641  11.0808725
  22.3401031  22.8672581  10.8489151  23.0989952  24.1764603  10.8814716
  23.5118790  12.2984037  76.2533722  23.0587482  12.5876141  77.0453720
  23.4011154  11.3476515  76.2477112  60.3143806  56.5169563  63.2794495
  59.6521683  56.7693901  63.9228630  59.8706894  55.8841019  62.7147675
  49.0706558  64.4027710  32.7056007  48.3899689  65.0747299  32.6686478
  48.7240181  63.6815643  32.1803017  85.1168823  68.0895767  45.6483727
  85.9392319  68.2252655  46.1190720  84.6032715  67.5213318  46.2224312
  65.5415344  56.2337151  88.4811630  66.1078491  55.6279488  88.0030823
  64.7026215  55.7772675  88.5453186  64.9924622  69.3751984  28.1592560
  65.3231049  69.3885651  27.2610741  64.1182785  68.9920425  28.0869980
  71.4923782  61.4456558   4.3494072  71.9694443  60.6425133   4.5582161
  70.6548538  61.3516121   4.8032255  55.7560234   2.7493229  75.9598389
  54.8407516   2.8148129  75.6873932  56.2176933   2.4470830  75.1776962
  58.0208054  15.4758263  21.8129025  57.8048477  16.4059620  21.8795452
  58.3061295  15.3605328  20.9065208   2.7882173   1.4624147  55.8042068
   3.7391095   1.3534600  55.8170280   2.4909005   1.0683049  56.6242752
  63.2301826  60.0942993  58.6659012  63.4260445  59.3442383  59.2273979
  63.1238899  59.7181168  57.7921638  68.7076263  63.3048744  32.3965836
  68.2192688  63.9349251  32.9264641  69.1478043  62.7446060  33.0357857
  47.4697914  10.8635120  38.1026344  46.6722374  11.3804722  37.9890976
  48.1784554  11.5061188  38.0697365   4.5767245  50.2586517  58.8256416
   4.1076317  50.6628265  58.0956955   4.6978288  49.3477783  58.5575409
  58.8099709  41.7052917  85.2554855  59.5177193  41.8500481  85.8834763
  58.1142693  42.2991333  85.5375900  11.3593750  52.8240967  78.0040741
  10.8774548  52.7810440  78.8299866  11.7242823  51.9460983  77.8936462
   3.0691872  33.5626678   6.1371946   2.4696755  33.2944946   5.4408464
   3.9384346  33.3404427   5.8036418  80.2546082  40.9638100  26.6913280
  80.4345627  41.9038963  26.6822395  80.3173828  40.7168427  27.6139870
  24.5560112  21.7222729   2.8972681  23.6328983  21.5043144   3.0260653
  24.6902676  21.6472321   1.9525055  64.1463928  17.5684566  40.6468964
  64.2668381  17.7335987  39.7117729  64.8128738  16.9161797  40.8627129
  34.3916397  68.9695511  23.2682171  34.1453362  68.2210083  23.8115902
  33.7066040  69.0171585  22.6013641  54.4627686   2.1354196  51.3922272
  54.4107246   1.2969129  51.8509521  53.6983414   2.1411297  50.8161621
  52.6883011   7.1189480  60.8945961  53.0235214   7.3131351  61.7698975
  52.5757637   6.1684198  60.8866501  54.6528549   9.9062691  29.3398705
  54.7816124   9.2808657  30.0529804  55.4445152   9.8287277  28.8074322
  60.0321579  20.8200150  23.7293358  60.9574661  20.6056480  23.6106453
  59.8100357  21.3532829  22.9661083  85.6152878  68.2382431  64.4313507
  86.2575378  67.6515274  64.8307419  85.4703064  68.9181747  65.0893021
  65.3877029  21.5307980  47.2333603  66.2743378  21.2613239  47.4731445
  65.3075485  21.2953358  46.3090401  69.3457947  61.9886169  61.9571381
  68.8348541  61.2139511  61.7224617  70.1804199  61.6394043  62.2696609
  74.5372772  26.3319569  30.9370155  74.4744415  26.4823456  31.8802376
  74.5968552  27.2089424  30.5580959  55.9595680  14.7349520   3.9303780
  55.2353210  14.2965755   4.3770599  56.0997734  14.2179766   3.1370871
  68.6276169  45.2653503  21.8876305  68.9797516  44.3853378  21.7541924
  68.3735733  45.2843094  22.8103085   5.4783149  35.3473816  63.3688812
   4.6451597  35.7602806  63.1417236   5.2305207  34.5380402  63.8158722
  50.3326302  41.9456024  22.1482906  50.2466011  41.0839310  21.7404289
  49.4337616  42.2660446  22.2230053  66.7461090   9.3551435  51.5835991
  65.7999344   9.3200760  51.4430542  66.8459015   9.7738152  52.4385796
  16.5951195  13.2176027  56.7765045  17.3848190  13.7558537  56.7227249
  16.3820477  13.0132990  55.8659592  27.7972012  22.7082920   8.0088367
  28.1187305  21.8073044   8.0415754  27.0556641  22.7201080   8.6139936
  35.0368614  11.0820808  40.8301048  34.2838669  11.2020416  41.4087601
  35.0853310  11.8957586  40.3282967  74.9569550  29.1280136  35.4420395
  74.4150391  29.7845669  35.8796463  75.8478165  29.3181973  35.7360153
  82.2805557  22.8517971  40.4352074  81.4757538  23.1435089  40.0069199
  82.4028015  23.4659958  41.1591187  39.8677177  48.9365997   0.4906016
  40.6044388  48.3257446   0.5088314  39.1557655  48.4411774   0.0857385
  27.4250965   1.2628845  64.5375900  27.4620247   1.0405371  63.6073074
  27.4639492   2.2190981  64.5570297  31.4325027  65.9212265   6.1515336
  32.0406380  65.5720596   6.8030610  31.4294605  65.2676315   5.4522209
  20.8668079  45.1164627  85.2298431  20.4037495  45.9528275  85.1818695
  21.7746296  45.3327560  85.0169830  24.9377327  56.2758064  80.0938644
  24.0204029  56.2185555  80.3611908  25.4145432  56.4395981  80.9075394
  28.2268257  27.3796120   0.0503879  28.5330200  28.1554813   0.5199656
  28.8875885  26.7119656   0.2344341   0.2569875  51.7657700  10.7931681
  -0.1349372  52.6356392  10.8703232   1.0302984  51.8006897  11.3561983
  29.0551205  68.4875336  51.6995544  28.9432335  68.3416824  52.6389351
  29.3679485  67.6480637  51.3624229  19.0488243  12.2105570  -0.1846819
  19.7739563  11.5857582  -0.1781356  19.2283478  12.7935734   0.5529467
  43.6076317  53.9351807   2.7698572  43.2243729  54.4588814   2.0662370
  43.6305084  53.0444107   2.4202321  26.1177616  35.2389755  14.6618757
  25.9813442  34.3298607  14.3951645  25.9352322  35.7498970  13.8732862
  38.0085945  28.4678955  24.6666222  37.8124428  29.2110672  25.2371063
  37.5329590  28.6551094  23.8573284  11.0338354  32.6079979  21.3918571
  11.5383139  32.0324860  21.9667664  10.1269264  32.3228836  21.5034733
  53.6140938  35.6229286  68.2432480  53.2177010  34.7519684  68.2662659
  53.7275505  35.8098907  67.3113632  61.9049950  60.0309105  62.1614876
  62.2440414  60.4759750  62.9381447  62.1455307  59.1130104  62.2872925
  58.1955643  51.9919510  21.3419590  57.5190544  51.4866104  21.7927322
  58.3484612  52.7473259  21.9096413  65.6983109  18.4468174  43.7596207
  65.5521011  18.6026230  42.8265724  65.3930206  17.5511074  43.9035988
  79.7663116   5.5088763  29.5855274  80.0034103   4.5817847  29.5627861
  80.5359573   5.9439998  29.9523430  19.2859821  14.0657940  85.2637253
  19.8047295  13.2639942  85.3289185  18.5685329  13.8394308  84.6718979
  42.5231628  61.7603073  72.9062271  42.8792610  61.4479370  72.0744476
  41.9110680  62.4536095  72.6594391  59.5473976   5.3770862  73.8323593
  60.2273560   5.5103202  74.4927673  59.9791298   5.5738053  73.0010147
  83.2953949  46.7227821  -0.0457971  83.4986038  47.1401711   0.7912953
  84.0638657  46.1855545  -0.2383499  50.9455299   8.9250059  18.2871914
  51.2236443   9.3945045  19.0736103  50.0704308   9.2656631  18.1017647
  19.0683823  64.3396454   5.4631038  19.2888718  63.9926720   4.5986819
  19.4271679  65.2270584   5.4636359  84.2658310  52.1008072  62.8195953
  83.9669800  51.8050804  63.6795197  84.4575348  53.0309219  62.9394722
   0.4204211  58.6371384  51.8849182   0.4302778  58.8998642  52.8053017
  -0.3346687  58.0535889  51.8104858  80.4526749  50.9615555  31.7827797
  80.8058472  51.3615685  30.9881153  80.5260010  51.6456795  32.4482346
   9.1071739  66.9415894  64.3961868   9.4386082  66.1506958  63.9708977
   9.8454037  67.2622223  64.9142990  77.8780365  45.7327156  87.8009491
  78.6523209  45.3335495  87.4042282  77.2870636  44.9977951  87.9648743
  49.0362244  49.7212524  66.0143509  49.2863846  49.1561165  65.2834091
  49.2278519  49.2018204  66.7951889  53.4715500  57.6073341  47.9644890
  52.7670135  57.8115997  48.5794144  53.8649178  58.4557953  47.7605133
  52.1243134  14.8409157  27.9918861  51.8738441  15.6671915  27.5786495
  51.2978783  14.4638653  28.2936726  62.5254936  67.2446594  40.4888344
  62.3973999  66.7815781  39.6609573  61.9417152  66.8010864  41.1042023
  37.8844948  47.8207436  15.9799271  37.3930626  47.0440254  15.7126627
  37.2187538  48.4999809  16.0878887  72.2641449  23.7997875   5.0712209
  71.7561417  23.0782547   5.4420986  71.8358078  23.9901142   4.2366323
  66.7637711  63.3030357  54.0300598  67.6984711  63.1306381  54.1433983
  66.6016998  64.0930862  54.5456009  84.2398834  49.6744728  67.4643250
  84.9459076  49.3152542  66.9269867  84.2451477  49.1376266  68.2567902
  60.6892128  69.7593994  40.3826065  61.2435150  70.2833176  39.8042526
  61.2271881  69.0000763  40.6067543  79.9352875  31.4327774  19.3101902
  79.5866547  30.9170723  20.0373306  80.8627014  31.5447807  19.5189877
  50.0130806  39.2814369  20.9335346  50.8742638  38.8721275  20.8495007
  49.3931007  38.5640068  20.8025780  37.1417847   9.6906548  26.7116566
  36.2386246   9.9990845  26.6381092  37.6212769  10.1946278  26.0541401
  83.4658585  14.3462906  50.0195656  83.5623245  15.1421919  49.4966240
  83.7152100  13.6379910  49.4259567  10.6806507   8.2629290   7.9843035
  11.2980194   8.4055147   7.2668381  10.1665573   7.5033369   7.7105184
   2.9620757   5.9809823   6.1499887   2.5835347   6.8099828   6.4427280
   3.1160715   6.1054482   5.2134924  18.5509033  60.2360573  21.9178600
  17.6681728  60.3937874  22.2527351  19.1164780  60.3173485  22.6858120
  59.4308243  46.6560478  16.2861919  60.3717575  46.4852867  16.3276749
  59.3372536  47.3161697  15.5993786  77.0633621  18.4203625  56.7412910
  76.3825684  18.8370495  56.2129707  77.8445511  18.4459019  56.1887283
   4.3975229  33.3023415  56.6406288   4.2376280  33.9250069  55.9314346
   3.5570652  33.2343102  57.0936546  62.8994141  17.0818291  36.5534859
  63.4715080  17.3097095  35.8206787  63.2116394  17.6232719  37.2784615
  83.9087219  52.3312874  83.7500839  83.3738251  51.5971146  83.4482422
  83.3047943  52.8760719  84.2547684  43.5114059  49.5427017  12.1206770
  43.6801567  48.6645813  12.4622364  43.0582924  49.9937897  12.8330278
  18.6233883  32.5536499  15.6535902  19.0453072  32.6212158  16.5101242
  19.3434162  32.6179962  15.0261755  43.5946121   9.3302841  54.5185242
  44.4378281   9.6023378  54.1562996  43.6817589   8.3854437  54.6446724
  51.8332253  69.4381943  15.0942354  51.6638489  69.6874542  16.0027599
  50.9984398  69.5791702  14.6475868  71.0038300  44.7246819  17.8478642
  71.1611099  43.8025398  17.6450100  71.8702621  45.0759048  18.0531998
  55.8462906  51.3901863  70.7819061  56.6357918  50.8501472  70.7461777
  55.1390572  50.7976418  70.5270691  19.5167503  11.0739460  84.5345078
  19.8926563  10.9196062  83.6678467  20.2595177  11.3482580  85.0723572
  36.4268494   8.7160568  42.6479454  36.0198593   8.9316406  41.8088303
  36.2777061   9.4892511  43.1921501  30.7916946  58.2719002  22.9896069
  29.9632015  58.6481400  23.2867184  30.5841980  57.3574486  22.7973728
  79.3069992  27.9142036  88.4332886  78.6683121  27.3827286  87.9580536
  79.7818985  27.2871494  88.9787216  44.2114983   6.9849601  57.7832108
  44.7554398   6.2057514  57.8980713  44.7606163   7.5887880  57.2831154
  57.5336266  68.2189865  63.2725220  57.7446518  67.7913589  64.1024857
  56.6852875  67.8524475  63.0231323  43.7495422  61.4710121  14.9240780
  43.5574188  62.3414345  15.2729197  44.6549454  61.5297127  14.6190624
  33.8022652  62.9123039   4.5391092  34.2396545  63.7611618   4.4730830
  32.8746109  63.1277084   4.6354828  32.3258095  64.1529922  36.3861732
  32.4838257  63.9471359  37.3075218  32.1971512  65.1013870  36.3713074
  41.8731155  25.8897953   7.5750976  42.0657272  25.1241436   8.1163092
  41.7266502  26.5966873   8.2036552  13.7797337   8.7959023  83.7634506
  13.0991926   9.0769148  84.3751068  13.7857885   7.8413200  83.8339310
  85.3555069  67.9922409   8.8526516  86.0213470  67.8842316   8.1735182
  85.1801605  68.9331055   8.8686771  86.2961655  29.0100670  60.2875710
  86.3297806  29.1305485  59.3385773  85.7922440  28.2053833  60.4091454
  76.6559372  16.9111538  67.5010910  76.1909332  17.7180653  67.7222214
  75.9680176  16.3073521  67.2210388  42.0250244   9.9225121  48.4291382
  42.1975021  10.8599119  48.3410187  41.7671204   9.6428270  47.5507889
  17.0221252  16.2692719  46.2130432  17.7511768  16.3830223  46.8227768
  17.3261395  16.6701775  45.3987465  64.9528198  25.0782318  56.4227409
  65.2241745  25.3673859  57.2939377  64.0106201  25.2451477  56.3976555
  20.4731064  28.3692379  77.6161880  20.3777771  29.0738201  76.9753265
  21.4081402  28.3562737  77.8205872  37.8726883  27.2304993  78.3989105
  38.7425690  27.1275425  78.7848282  37.8260231  28.1553917  78.1567764
  65.7708893  13.9102736  31.9755974  66.2054367  13.0600624  31.9082355
  65.2859344  13.8667679  32.7997093   8.7031078  10.8011618   8.4577608
   9.2474241  11.5051117   8.1050482   9.0288200  10.0092659   8.0299244
  83.4376221  64.0002289  57.7184334  84.2883759  63.5713310  57.6262207
  82.8909912  63.5952415  57.0450783   9.9089937  30.9229431  36.1461487
   9.6389494  30.0861416  36.5243950  10.8546133  30.8370342  36.0250893
  65.5819702  56.5849419  10.6031857  64.6663589  56.8332520  10.7305622
  65.6227341  55.6697006  10.8805037  33.3670425   4.7134285   2.5480568
  32.5352287   4.4246917   2.1726201  33.1215134   5.3784432   3.1912541
  13.5799160  70.4151688   1.0574921  13.4109230  70.8369675   1.8999631
  12.7754145  70.5497665   0.5565993   0.3911622  55.0587158  35.9274864
  -0.3749233  55.6265488  36.0106277   0.9798965  55.5349846  35.3419991
   4.6254740   8.2147398  39.6255150   4.1161542   8.5353518  38.8811798
   4.2515907   8.6646576  40.3831520  39.2493820   7.8088040  86.3478165
  38.7906532   7.1705713  86.8941269  39.3903046   7.3553238  85.5167160
  14.5838356  48.9642487  68.4401398  14.6467237  48.2447052  67.8120193
  13.6436138  49.0839424  68.5738831  26.7840519   8.7332344  68.3954086
  27.2543049   9.2250977  67.7222290  26.2835102   8.0788097  67.9081497
  58.0081863  42.6389618  56.0667763  57.6790085  42.8163643  56.9479141
  57.9183846  41.6915627  55.9637833  51.3077278  15.0023890  37.8953896
  50.7755623  15.7637758  37.6644707  51.7666931  14.7766819  37.0862923
  39.3536415  12.5678787  43.7624016  39.9216194  12.9837341  43.1137924
  38.4769592  12.8919792  43.5559654  44.6930428   1.4569799  28.6146603
  44.1125946   1.0346210  27.9814739  44.2135201   2.2359009  28.8967476
  68.2097473  68.9004974   5.1725836  67.7250519  69.6736450   5.4616246
  68.7811508  68.6864700   5.9100957  44.6042023  24.9340000  17.5770264
  44.9831352  24.5130138  18.3486557  44.0919952  24.2441807  17.1550999
  86.1177444  63.3395653  56.8266716  86.0464554  62.3874435  56.8945808
  85.9535828  63.5267220  55.9024124  73.4648514  50.7324371  47.2929611
  73.4788132  50.4269676  48.2000046  72.7654266  50.2257233  46.8803177
   3.7982507  62.1583900  48.0581856   3.7034569  62.9884224  48.5254059
   3.5094888  61.4959030  48.6858444  16.0301056  40.5326195  21.0409679
  16.1120892  41.3520660  20.5530968  15.2249937  40.1355820  20.7087173
  22.5592766   4.0694423  74.0491028  22.0676613   3.3511813  74.4474106
  23.2448254   3.6370363  73.5399094  75.8669128  60.0270309  43.6468430
  76.1101990  60.9489403  43.5624428  76.7001572  59.5682640  43.7539444
  65.9051285  31.1542740   0.6387750  65.6885757  31.3579140   1.5486466
  65.5031281  31.8605766   0.1330461  64.8508072  45.7586441  27.6408920
  65.7103729  45.5124054  27.2992096  64.8934784  46.7104149  27.7333107
  62.5128326  57.4900017  59.8405037  62.4746208  56.7966232  60.4992905
  61.5997696  57.6356544  59.5928383  84.2456055  27.8492794  76.5858459
  84.3061676  27.3766117  77.4159927  83.8740387  28.6995277  76.8208923
  57.7275581  58.1583214  56.4331703  58.5100746  57.6099434  56.3768196
  57.4067116  58.2110634  55.5328865  13.7488451   5.7925458  83.1247025
  14.0387897   5.8125291  82.2126923  12.9418859   5.2779789  83.1082611
  49.2674065   6.6620293  68.8129044  48.7892036   7.2014856  69.4426193
  48.5844994   6.2432055  68.2890244  25.6521511  18.0166492  12.0467491
  26.2496929  18.6843262  12.3834715  25.8908062  17.2203636  12.5213070
  54.6966133  33.8620720  20.8876114  55.6404343  33.9718590  21.0032883
  54.3754311  33.6198387  21.7561741  18.2283878  54.7835770  55.5391235
  18.7090416  54.4882431  54.7658348  18.5119801  55.6889420  55.6660919
  51.8326035  66.0641861  48.8085251  51.7074432  65.5460739  49.6035881
  51.0989990  66.6790466  48.8053627  71.4278946  26.9304466  32.6253700
  72.2244263  27.4611568  32.6147728  71.7288589  26.0428619  32.4308281
  36.2604828  37.5422249   0.6782244  35.8770714  36.6682129   0.6052179
  36.9244003  37.4561386   1.3623559   5.1164880  43.4283028  11.2287836
   5.4610100  42.5354004  11.2125473   5.8597221  43.9668961  11.5003567
  16.3163795  47.1302223  30.9975185  17.2043991  47.3043556  30.6855392
  16.4215260  46.4285202  31.6400032  10.4925919   5.7977786  13.8774433
  10.3828745   5.3658390  14.7245693   9.6566620   5.6644893  13.4305801
  39.3390541  15.8603306  25.0999641  38.7164764  15.4563074  24.4954834
  38.9188766  16.6784744  25.3651562  75.8772812  42.9057350  25.0540466
  76.6680679  43.4402885  24.9824047  75.1572723  43.5323639  24.9821815
  36.4112091  64.2642593   7.1745391  37.2119713  63.8449516   6.8595929
  36.6228104  64.5468445   8.0642595   4.5766330  65.5683823  78.8733292
   3.6819143  65.7021255  78.5605621   5.0247331  66.3909302  78.6762085
  19.0533447  27.3997307  80.1407394  19.3893929  27.9048634  79.4003754
  19.8355026  27.1355267  80.6251526  31.5599575  17.6701088  21.7133217
  32.1282578  17.7714119  22.4768696  30.8681908  17.0770931  22.0066166
  20.1233635  63.7118530  23.4546947  19.5806580  63.5695381  24.2302246
  21.0225353  63.6598663  23.7787647  30.9804096   6.7302818   8.5725889
  30.1639404   7.2193365   8.6747465  30.7211380   5.9204659   8.1330347
  52.9083900  56.6445427  19.3921356  52.9819717  56.7487259  18.4434719
  52.3663063  55.8638992  19.5060291  11.1063910  44.3968735  52.3346825
  11.9670868  43.9886551  52.4284554  10.5390682  43.8971977  52.9217949
  19.8385773  31.1823082  57.6076355  19.8381023  30.3475266  58.0760078
  20.7544765  31.4603558  57.6146431  41.5637627   9.9151850  89.0759277
  41.4208450  10.4860516  89.8308563  41.2351036  10.4173861  88.3302689
  23.9506416  68.8054276  14.7163839  23.2482109  69.0975952  14.1354723
  24.3659534  68.0829391  14.2454700  60.0343819  56.1539154  67.2841339
  59.2891617  56.5251961  66.8118744  60.4751701  55.6007805  66.6391678
  12.9544106  69.9736328  80.0359573  13.5640860  70.0320129  80.7715607
  12.1088619  70.2290115  80.4048233  14.8081760  50.9098892  14.8606319
  14.1515608  50.2629814  15.1186953  14.3019228  51.6226578  14.4708872
  39.4932861   7.8874674  40.2003937  38.6757774   7.4315338  40.0003090
  39.3292236   8.3157911  41.0405426  43.5417633   5.3209624  67.3124847
  42.8712692   4.6384449  67.2835007  43.0554924   6.1272554  67.4847260
  71.9176712  51.4626808  69.5451431  71.5103836  50.8661232  70.1732101
  72.4418716  52.0557632  70.0833817  10.8197041  49.2619438  60.2433395
  10.2834396  50.0207405  60.4733009  11.3278875  49.5488968  59.4846268
  46.6063881  54.0285263  82.5757370  47.1411629  54.0177879  81.7819290
  45.8533287  53.4766273  82.3646851  41.0646210  14.0548820  46.9208527
  41.0189629  13.2468996  46.4096642  41.9951019  14.1607466  47.1189041
  80.4918060   0.5837266  31.1805649  80.2984161   0.8487251  32.0797920
  80.5581970  -0.3703099  31.2210426  24.1711578  18.9840984  85.9672928
  23.3984451  18.5707035  86.3523331  23.9458733  19.9130554  85.9171295
  69.4050674   5.6273179  60.3946953  68.5214005   5.8159528  60.0788116
  69.3731918   4.7084365  60.6609116  31.6740417  12.6799068   9.6354990
  32.4971352  12.2564220   9.3917503  31.9332237  13.5493059   9.9407873
  29.5002460  59.1289825  46.5407448  28.6057568  58.8976974  46.2904854
  29.9921474  58.3125267  46.4532013  53.0839996  42.4172554  77.5330048
  52.7619934  42.5522652  78.4242477  52.3053818  42.1766853  77.0308990
  69.8053970  14.7101212  71.8294983  70.3032761  13.8953476  71.8965530
  70.2311401  15.3026476  72.4490814   6.4558640  11.0098677  20.7302456
   6.9197626  11.7398796  20.3202286   7.0390644  10.7189684  21.4313068
  22.7789154   7.1029758  38.5644455  22.8820972   7.8615336  39.1390533
  23.1165066   7.3959818  37.7180328  67.7097931  23.0724850  25.6581841
  67.0062103  23.1453857  25.0132866  67.8327026  23.9653587  25.9805202
  66.1088943  35.5928879  19.6157970  67.0553284  35.7308617  19.5776176
  65.7814331  36.3228798  20.1412640  14.4804745  51.8140602  25.5056171
  14.5399761  50.9028358  25.7926140  13.7918034  52.1927757  26.0520020
  59.5839462  38.6047630   0.7220630  60.5063553  38.4468918   0.5208956
  59.5797119  38.8548965   1.6459937  40.0845604  12.6502161  20.7400494
  40.4261055  12.1266489  20.0151672  40.7869759  12.6460304  21.3903046
  43.2491379  45.6267204  29.0675621  43.0411415  46.3706818  28.5023251
  43.3166199  44.8827324  28.4690971  24.3252411  25.4794006  25.0453720
  24.2719936  24.5252762  25.1005077  23.6193771  25.7917862  25.6114120
  60.3916512   6.9037662  18.0428467  61.2168083   6.6551509  17.6262665
  60.4179192   7.8600826  18.0744820  52.3380203  27.7783260  31.1601753
  53.1737022  28.1454449  30.8719254  52.5203819  26.8492641  31.3009644
  28.0841274  10.9974976  47.6974564  28.3419933  10.3668556  48.3697853
  28.5933285  11.7828617  47.8978310  79.0676727   4.6434808  15.1735439
  79.3357468   4.2827125  14.3284311  79.2550888   5.5796218  15.1046438
   9.0558090   0.4763147  66.9950180   9.8118515   0.0593242  66.5817947
   9.3883543   1.3167452  67.3101730  43.7898636   5.7721896  10.7441425
  44.5848312   5.7578144  11.2771072  43.5338783   4.8527575  10.6710091
  15.9489717  24.6386223  23.6435547  15.6379986  25.5332775  23.5052757
  16.2136059  24.6164894  24.5631790   3.8843970   4.7869077  13.9110088
   2.9888549   5.0680299  14.0986433   3.8124213   4.2832732  13.1002045
  73.0166473  47.8108368  70.1515045  72.6872559  46.9769897  70.4868240
  72.2554779  48.2215576  69.7414246  80.6367645   6.7809849  41.8599205
  80.3201904   6.9182186  42.7527695  80.4835587   7.6173286  41.4202728
  17.7011242   8.6088343  72.0796204  17.9775124   7.8257227  72.5556183
  16.9240799   8.3321390  71.5939484  67.6970139  33.9097862  44.9289932
  67.4590454  33.1309814  45.4320488  67.0158539  34.5484085  45.1397209
  58.7922783   3.1059804   8.3003502  58.7253265   4.0593381   8.2468843
  58.3485794   2.7901967   7.5131760  55.4416885  19.4962845  32.1682091
  55.6772804  18.7175331  32.6724625  54.7558670  19.9182835  32.6857033
  56.1473923  62.9703293  56.2422180  55.2962875  62.6490059  56.5398788
  56.6898651  62.1845665  56.1748924  74.2018738  69.7817383   0.6195820
  73.6918411  69.0918121   0.1951966  74.7997665  69.3135834   1.2023226
   1.6128062   2.0040827  53.3319321   2.3861427   2.1159384  52.7790604
   1.9551797   1.6552174  54.1549187  66.9040070  50.4967270  19.6261616
  66.1935577  49.9076042  19.3723354  67.7028198  50.0160828  19.4091034
   4.7043033  42.6214142  23.3279915   4.0425153  42.3125381  23.9467525
   5.4410677  42.0218811  23.4461975   7.4354553  15.1058464   2.4867225
   7.0901775  14.3546066   2.9690640   8.3003893  14.8229361   2.1899364
  55.7009201  15.9841137  64.4012833  56.2997398  15.2794371  64.1541519
  56.2409592  16.5907173  64.9078598  78.0174789  38.9382439  43.5697975
  78.7919540  38.3770638  43.5311661  78.0707321  39.3612747  44.4267921
  17.7936611  26.6039925  27.5982513  18.7493248  26.6337605  27.6435471
  17.5087776  26.6603031  28.5103378  20.8530693   8.4956579  75.0614243
  20.9283619   9.3028116  74.5524445  21.3180714   8.6825161  75.8769608
  49.9382057   6.3513112  19.5485516  50.0374870   6.9271398  18.7903976
  49.6919556   5.5047832  19.1757469  21.2439899  40.1048851  36.5831642
  21.2463322  39.1527557  36.6815186  21.4776459  40.4358330  37.4504089
   3.0562105   8.2606897  56.6059952   3.7184472   7.9581699  55.9845810
   2.9853363   7.5513129  57.2447395  79.6370773  53.7856293  18.7349339
  78.7893143  54.0565338  19.0872631  80.2310257  53.8230133  19.4846382
   3.2082214   3.4270432  37.8077316   3.5803757   4.2187743  38.1961823
   2.3176372   3.6769249  37.5614586  79.3851547   4.7188439   3.6106944
  78.7613983   5.2697477   3.1377645  79.5446548   3.9795756   3.0239444
  19.8758755  50.3097115  60.4838715  19.7366104  49.4681587  60.9181824
  19.1853371  50.8750343  60.8299866  17.2506714  22.2614479   0.1911183
  16.5712337  22.1763477  -0.4777277  16.9372616  21.7264233   0.9203339
  80.6788864   8.9835663  58.7495308  80.5288391   9.8373814  59.1553879
  80.2589340   9.0489454  57.8918571  57.8865662  26.0043240   4.8378277
  58.4564857  25.5739079   5.4751401  57.4513855  25.2844429   4.3810797
  82.7263565  47.1724854  16.4941330  82.5679932  47.3938675  15.5764503
  82.1171570  47.7260780  16.9826374  23.5907860  63.4170380  26.7418671
  24.4118958  63.8921814  26.8693295  23.8561077  62.5027618  26.6421947
  41.5194740  11.7961245  45.1797791  40.8167305  12.0433292  44.5787201
  41.4880829  10.8397608  45.2045708  56.0388908  47.0534096  16.5904732
  56.7809677  47.2250671  16.0107460  56.0329781  47.7934837  17.1975060
  35.1774216  64.1972809  62.7975540  35.7097511  63.5013618  62.4121170
  34.5368652  64.4122543  62.1195374  43.0812187   1.2576852  41.1785965
  42.3563728   0.9960368  41.7463722  43.0763130   2.2143762  41.2094154
  72.2366562  38.2455177   8.4162979  72.1224289  38.1314812   7.4728045
  72.9851151  37.6906433   8.6357384  18.8280563  20.2180729  86.0380936
  19.1868362  19.4248028  85.6403122  18.0236740  19.9276695  86.4680557
  11.8998880  52.9957237   8.7033854  12.1391220  52.7225723   7.8177295
  11.0920343  53.4963837   8.5896158  30.3452606  32.5618439  74.6065674
  30.3330326  32.6301651  73.6518860  29.4794579  32.8653526  74.8795242
   7.5936866  32.0460281  67.5029678   7.2816257  32.8876724  67.1705780
   8.5132551  32.2001038  67.7195053  56.6416054  64.6200333  72.8237839
  55.9695549  64.4260406  72.1703796  57.2099228  65.2627411  72.3993149
  45.5152168   5.3593330  23.6796017  44.9373550   4.7794790  24.1756649
  46.3893013   5.1800776  24.0261211  86.2698822  53.0449753  38.1153831
  85.5527954  53.4938393  38.5631943  86.7552719  53.7450790  37.6789398
  86.6208191  52.1557465  83.6564178  85.6995926  52.4109917  83.6072235
  87.0777283  52.9563332  83.9143524   4.5508480  29.1810417  37.4146881
   4.9320092  29.8528748  37.9800110   3.6193342  29.1829529  37.6349411
  12.6873045   1.3040123  26.9878845  12.0618467   1.8382347  26.4983521
  12.8019857   1.7687182  27.8168163  35.2194901  65.4500961   4.9046092
  35.4911842  65.1216965   5.7616787  35.5070114  66.3630447   4.8957806
  77.5979309  53.2200356  44.2028008  77.0241928  52.9928322  44.9345360
  78.4460220  52.8433571  44.4375038   5.5242138  24.6829758  35.9784203
   4.7346940  25.0327396  36.3914070   6.2392573  25.1943111  36.3572121
  58.9991379   3.2044394  64.5330429  59.4129791   2.5453935  63.9757042
  58.3467865   3.6197193  63.9689369  64.8280106   0.3290735  48.6825294
  63.8934631   0.2348496  48.4982071  65.0214767  -0.3726424  49.3041382
  39.6606865   0.6861796  27.6543827  38.8710136   0.1700199  27.4924221
  39.3437729   1.4799809  28.0852852  13.1079168  55.7419853  51.5306396
  14.0416822  55.7811012  51.3237991  12.6744118  56.0754318  50.7450714
  19.5819683  69.8685684  58.8220749  19.6964951  69.3274231  58.0408707
  19.5183239  69.2403030  59.5414200  29.7309532  53.2090149  65.0683136
  30.6264248  53.5460548  65.0959549  29.4928474  53.0860519  65.9872360
  74.4386139  60.0881042  30.9494991  74.2199631  60.2215157  31.8717918
  74.7084579  60.9526978  30.6398315  52.1873932   6.7456613   5.6778164
  51.9518204   7.4681940   5.0958505  52.2804260   7.1525226   6.5392342
  51.4912910   7.6592102  55.6128197  51.3528023   6.9399543  56.2290344
  50.9300308   7.4470682  54.8670197   0.7995781   8.3983679  86.8619461
   0.9490209   9.2448778  87.2830429   1.5745779   8.2617960  86.3170090
  65.7070084  40.9749069   2.1760223  64.8923264  40.9049339   2.6736526
  66.3973923  40.8790855   2.8320847   5.3218565  53.2760735  60.9122658
   5.6039042  54.0483475  61.4024429   4.5813932  52.9323883  61.4120903
  60.0476265  17.5592365  65.2589645  60.2820320  17.9296532  64.4080429
  60.0165100  18.3131065  65.8479843  69.9720612  55.9996948   5.4612350
  70.3961792  56.8123245   5.7368984  70.2641907  55.3486748   6.0992494
  69.3328857   3.5552428  22.0597363  69.9173431   4.3055634  22.1677284
  69.9193115   2.8006151  22.0061378   8.8129854  24.6114845   9.5660601
   8.2211361  25.2866402   9.8978930   9.4474115  25.0902328   9.0326424
  29.4811134  49.5465927  31.9264507  29.6630268  49.4104614  32.8562927
  28.6455746  49.1036263  31.7785053  56.8157883  51.7016716  50.5185509
  56.3551483  51.1715469  51.1689453  56.6560173  51.2537766  49.6878281
  59.7799911  44.7831039  81.2740784  59.0745773  44.8088188  80.6275787
  60.5251045  45.1899033  80.8318710  61.6600647  11.0977058  61.1481819
  60.8970184  10.9958630  60.5793114  62.0831032  11.8992386  60.8402634
  61.8420067  10.9791241  51.1962051  61.9237175  11.1765451  50.2631569
  60.9023743  10.8598652  51.3343925   9.3525658  10.9400873  12.2940807
  10.0186157  11.4907684  12.7056141   9.0475979  10.3669682  12.9974728
  70.9440536  15.0587234  46.1489487  71.8310776  15.3402414  46.3729248
  70.9476852  14.1133919  46.2991714  30.6292801  59.5483475  18.8299847
  31.3634377  59.6024628  19.4417992  29.8557587  59.7145233  19.3687611
  73.1459198  26.4567318   5.6175432  74.0723190  26.4175167   5.3798866
  72.8669281  25.5415268   5.6456962  65.3100739   6.6400442  54.1485901
  65.7056046   7.4460821  54.4803963  66.0504990   6.1227160  53.8317566
  26.9901390  68.8026276  32.1138840  27.1175537  69.0325317  33.0342903
  26.3336010  68.1062546  32.1296310  82.8992310  52.9793777  60.4562912
  83.1863480  53.8859367  60.5655632  83.3459702  52.5008240  61.1546059
  13.3594217  57.9159050  24.1533890  12.4154835  57.7962532  24.2577744
  13.4815722  58.0481491  23.2132721   5.4833779   6.5097394  85.3233414
   5.3417130   5.7248573  84.7940750   6.1375585   7.0116210  84.8371353
  68.8874054  28.9430332  45.3015938  68.0629883  28.5328445  45.5629501
  69.4677277  28.2084351  45.1020317  52.4573708  18.0467758  36.2213364
  52.7441025  17.1349564  36.2723694  51.5970306  18.0511456  36.6408882
  36.9617538   6.9901004  84.6482697  36.1128235   7.2016902  84.2599640
  36.8755798   7.2460928  85.5665665  20.3855534  65.8578415  29.8835087
  20.2056847  65.1100769  29.3136597  19.5267200  66.1159821  30.2181759
  11.1013403  43.1738510   9.5802002  10.6734152  43.1228790  10.4349012
  11.7559776  43.8648872   9.6809340  14.6902447  64.8252869  71.8761826
  14.5702791  64.8194351  70.9265442  15.5409393  64.4082565  72.0127029
  39.9314461  55.8602715   8.5110083  40.0738335  55.1398849   7.8970075
  38.9798317  55.9545403   8.5531158  38.9012566  12.8399849  88.0610352
  38.1723099  13.4230032  88.2730637  38.4842834  12.0116434  87.8239288
  63.3645897  37.6707726  25.0429802  63.5852165  36.7454948  24.9361553
  63.0795059  37.7454300  25.9536858  84.0263748  37.3554993  36.8485947
  83.8253860  38.1352005  36.3310089  83.3525543  36.7227325  36.5999870
  73.8647079  55.9867172  38.5821953  73.3631897  56.3645554  37.8597374
  74.0220947  55.0807152  38.3164406  13.2000475  37.0025101  24.4406281
  12.5709229  36.2811813  24.4515533  13.8499212  36.7635460  25.1015320
  54.7252922  43.3040047   0.8247257  53.9933586  43.7166481   1.2832365
  55.4637718  43.8950081   0.9716879  84.2841187  59.9386673  74.7722549
  83.3643570  60.1529694  74.9282837  84.7693100  60.6613312  75.1704636
  24.5112915  53.8364563  63.3822098  24.3188286  54.0475960  62.4686432
  23.7575245  54.1697845  63.8689957  27.9857235  48.6110497   5.5032234
  27.9286041  49.4726028   5.9163780  28.8785076  48.3172340   5.6844449
  53.3828506  61.3193626  85.5176849  52.8124390  60.5883636  85.2799835
  52.9876823  62.0799255  85.0915222  18.1155701  36.1347580  76.9931488
  18.1857014  36.4754410  77.8849182  17.8400383  35.2249603  77.1053009
  60.4994469  41.0152664  53.1496582  60.4460258  40.9075279  54.0992737
  59.8587761  40.3949585  52.8018188   7.2633462  23.0251789  53.3646889
   7.1040859  22.1772900  52.9500198   7.3924279  22.8186054  54.2903786
  70.7370071  24.7358551  85.5448151  70.5255432  24.7755890  86.4775238
  69.8866348  24.6841888  85.1084213  30.4193249  62.0663910  34.1736221
  30.3917103  62.6190376  33.3925629  30.6168194  62.6716232  34.8884087
  40.8971786  20.0113621   9.2204714  40.0810242  20.2180443   9.6758957
  40.6302414  19.8366222   8.3180065  13.9070463  55.5787201  58.0726738
  14.2203722  54.7297859  58.3847198  14.7013197  56.0483627  57.8181229
  11.9046593  34.6352158   2.8191590  11.1754274  35.2134705   3.0429323
  11.6202402  33.7681847   3.1082821  82.7746429  29.4390182  18.6196003
  83.3131638  30.2213326  18.5003777  83.3950500  28.7116489  18.5720615
   2.3269243  59.3845367   7.7384562   3.0889976  59.8338661   8.1039381
   1.5914997  59.9669876   7.9285417  31.6079350  11.0795803  31.6296749
  30.7861824  10.9290075  32.0968819  31.7525196  10.2738295  31.1335983
  10.6492424  68.4868164   5.2735476  11.5237799  68.5411148   5.6588616
  10.6386137  67.6431198   4.8215632  68.3924026  17.7309017  22.3812771
  68.7109985  16.8456726  22.2049465  69.0528488  18.3048840  21.9932232
  32.1687355  30.3843918  86.8091660  32.9760895  30.8235130  87.0767212
  31.8462009  30.9039726  86.0727997  11.9798908  63.5321770  57.3770714
  12.6394653  63.2052116  57.9888611  11.1442385  63.2688370  57.7625198
  65.4026260  44.9936180   3.3702338  64.5444336  44.7267418   3.0408258
  65.7296982  44.2246552   3.8370910  10.4318533  27.6240044  33.4612083
  10.4331474  26.7400761  33.0939217  10.7819157  28.1748276  32.7610092
  85.0339813  67.2058945  42.9620628  84.9393768  67.7262650  43.7598724
  85.6421661  66.5070038  43.2026711   6.9401164  46.0456429  59.7413025
   6.7248445  46.5409393  60.5316010   6.4354277  46.4702721  59.0476112
  39.6479225  62.9591331  30.8838081  39.9029236  63.4037056  30.0753765
  38.8635178  62.4639740  30.6476727  44.6321602  68.3075790  81.0128403
  43.7484932  68.3671646  81.3759003  44.4993134  68.2577972  80.0662079
  84.6103516  66.2719650  48.2525368  83.9993591  65.9076843  47.6120567
  85.3646774  65.6833267  48.2256889  60.1333923  53.0090485  11.2835360
  59.9375572  53.4617157  10.4631863  60.2992783  52.1029320  11.0234098
  24.7021866   2.8995028  72.6730728  25.4271984   2.5234680  73.1722641
  25.1241989   3.3598654  71.9476776  27.2566338  57.7835808  20.1526165
  27.7708454  58.5850029  20.2502785  27.3376598  57.3424759  20.9982491
  40.2969284  32.6413651  15.1052265  41.1663818  32.2414284  15.0868893
  40.4630470  33.5677376  15.2797890  82.4017410  37.7728577  67.1369019
  83.1447678  38.0782547  67.6573563  82.1169357  36.9702950  67.5739517
   7.5036964  39.6306458  35.4777489   8.3523149  39.4401627  35.0780029
   7.4960561  39.1119728  36.2822037  22.9070625  15.7453585  18.1949348
  22.5138893  15.5962877  19.0548325  23.8497658  15.6821918  18.3484058
   3.1907110  54.2970428  86.4085999   3.8321135  53.5983315  86.2796326
   3.4913454  54.7564049  87.1927185  51.4845200  56.6503563  44.9884148
  51.5122604  57.5848122  45.1939735  52.3523102  56.4573097  44.6335869
  77.5484848  62.3096771  42.8832626  78.0725403  63.0307388  42.5344696
  76.9970779  62.7159386  43.5519524   7.8402519   9.2635479  56.3987045
   8.3410110   8.4515104  56.4765892   8.0801582   9.6114397  55.5398407
  28.6565495  54.5346909  13.0945597  29.0606499  53.6961365  13.3176317
  29.2821846  55.1911125  13.4010305  42.5684967  71.5998459  27.5422478
  41.6860733  71.9483261  27.4152737  42.4809799  70.6607819  27.3787518
  24.0990410  60.5486374  19.9521599  25.0344944  60.7269897  20.0488548
  24.0299129  60.0752869  19.1230698  78.9753265  21.9973602  28.9414406
  79.2061386  21.8074436  29.8507748  79.1806183  21.1907310  28.4687481
  75.2784195  53.9228439  88.8945999  75.0189438  53.1775703  89.4363251
  75.8593445  53.5472984  88.2329941  80.8795395  12.6823826  80.3570557
  79.9524155  12.4679098  80.4603424  81.2905655  12.3609953  81.1595535
  62.3165054  19.6555805  22.7949142  63.1962357  20.0107956  22.9219151
  62.2469139  19.5204086  21.8498650  47.5618362  70.6374893  20.8054924
  46.9269791  70.1354218  20.2944946  47.7458458  70.0868683  21.5665340
  82.8746262   6.0261106  62.8987617  82.8216171   5.2740850  62.3089485
  82.8446045   5.6448703  63.7762527  59.2607918  64.8887329   5.1341095
  59.3223495  64.9110107   4.1791511  59.8126945  64.1505966   5.3925395
  11.6818800  50.9260635  18.9616852  10.8090897  51.3126869  19.0323315
  12.2807074  51.6568642  19.1151962  27.3232574  20.6870461  83.9963913
  27.4665298  19.7521629  83.8490906  26.7267323  20.9512157  83.2959595
  32.4550171  16.1619835  87.4198380  32.6240311  17.0973625  87.5326691
  33.1574478  15.8593903  86.8442841   6.3196664  12.5454559  26.5312080
   7.0692415  13.1147509  26.3572197   5.6803808  12.7787504  25.8580666
  24.7893257  64.8036880  48.3109589  24.4613190  65.5057526  48.8728752
  24.0391731  64.5611267  47.7681274   8.2592611  53.2341232  66.1480637
   7.4929361  53.3997612  65.5989304   8.1152096  53.7697754  66.9281616
  75.5897598  11.6262226  71.9033127  75.6667328  12.5796595  71.9388809
  76.4670792  11.3070536  72.1146774  62.3805885  14.6910362  76.1416016
  61.7263031  14.0016661  76.0279846  62.9225540  14.3890839  76.8705292
  23.6275902  70.6828461  27.5776119  22.7240314  70.3922195  27.7014980
  24.1387291  70.1374359  28.1755219   6.1120238  18.2096672   0.8477848
   5.9146676  19.0050640   0.3531872   7.0008497  17.9757156   0.5804156
  67.9105988   8.4180365  75.6366806  68.6588593   7.8271446  75.7214355
  68.0029984   9.0280142  76.3685379   0.9854226  47.6888695  42.6218758
   1.0507015  47.8038445  41.6738472   1.6292843  48.2987709  42.9820061
  81.4241714  22.8638229   0.6123647  81.6832504  22.0987453   0.0987814
  81.7241516  22.6690521   1.5002320   3.8172538   5.0127578  65.8559799
   3.6058283   5.8534422  66.2619095   3.3072219   5.0028682  65.0460434
  11.3317528  14.2061834  11.6308775  10.6650610  14.0534801  12.3005304
  12.0716829  13.6624279  11.9011841  74.5336761  49.4876442  11.3074551
  73.7591629  50.0487556  11.3464632  74.1911621  48.6216698  11.0860929
  17.4406242  17.4705162  28.8994370  17.7174053  16.5592003  28.8039093
  17.3513203  17.7891178  28.0012436  64.6459579  29.5341911   9.3625050
  64.1323624  28.7309475   9.4476509  64.1871338  30.0420475   8.6933308
  59.1813240  48.6878548  66.6534119  58.4009399  48.2042046  66.9241714
  59.7295876  48.7162018  67.4375305  77.7831879   2.8171651  66.2354813
  77.1559219   3.4598243  65.9041824  78.0036621   3.1282294  67.1134644
  13.7400255  17.0511093  33.9556732  13.7034683  17.5743160  34.7563896
  12.9725752  17.3265877  33.4543114  22.1280136  69.8193436  35.2586441
  22.5884266  69.2100143  34.6816101  21.6467438  69.2570877  35.8656731
  82.7639465  36.8825798  26.6612053  82.3013611  37.4734726  27.2554226
  82.3050308  36.9749451  25.8262825  47.7883148  30.3160286  24.9669399
  48.5889664  30.1120243  24.4836483  47.0803528  30.0938892  24.3622303
  33.9475174  34.8696747   3.2679262  33.0609932  34.6347313   3.5419831
  34.2109375  35.5605736   3.8757892  29.9042664  47.8716240  68.2765274
  29.9337654  48.8280983  68.2992706  30.3614006  47.6370316  67.4689178
  37.4683647  11.3229628  41.4328728  36.6332054  11.0225410  41.0744209
  37.2649040  12.1644154  41.8412743  40.7858429  39.4975739  17.6641331
  40.1154289  39.6321106  18.3339653  40.4836349  38.7336922  17.1728249
  55.5339012  15.4881716  79.7728043  55.7612572  15.3452921  80.6915665
  55.0845222  14.6850519  79.5095825  70.7621994  17.3470707  36.6194153
  71.1696167  17.8223858  35.8953133  69.8836441  17.7209587  36.6871338
  25.5246544  11.3117504  17.2493954  24.6887569  11.4131575  17.7046146
  25.2948971  10.9029245  16.4149475  18.6737461  49.3444138   4.4224787
  17.7857609  48.9880791   4.3952241  18.7945690  49.6171379   5.3320141
   4.1968923  56.1497955  50.7629013   3.4527285  56.6739845  50.4668007
   3.8376436  55.2708817  50.8840866  61.8930931  15.1096201  52.4094429
  61.7158203  15.0938902  51.4689369  61.0267639  15.1238232  52.8162613
  59.7317505  46.6461945  10.2741947  59.2710114  47.0770378  10.9941435
  60.4759598  47.2190475  10.0892029  33.6443520   7.0259471  68.0059052
  33.4519386   6.6633635  67.1411819  34.1983337   6.3668394  68.4241333
  77.9634857  50.8622665  27.2595005  77.9670029  50.2593536  26.5160522
  77.3595428  50.4651756  27.8870411  59.4081917  34.4270401  60.7374153
  59.0824051  34.3773994  61.6360970  59.4553566  33.5155258  60.4490585
  17.5058460  15.8670158  15.4518204  16.7754707  16.4689560  15.3088064
  18.1298332  16.3680553  15.9770155  12.0646048  12.0166607  21.5745983
  11.9164162  12.8492250  21.1261482  11.9456215  12.2198563  22.5023842
  45.0398445  11.6981440  20.8655338  44.4168205  12.4134188  20.9938107
  45.7546959  12.0902166  20.3640404   5.5552988  48.5801926  33.9211845
   6.3907952  48.8209763  33.5209312   4.9957118  49.3449135  33.7859192
  17.0536270  21.2600403  79.1563950  17.1708832  21.1707649  80.1021881
  16.7363510  22.1553116  79.0378342  62.5003662  64.8405304   5.8811765
  62.7339973  64.0796738   5.3494368  61.7229576  64.5640411   6.3663797
  38.0527992  33.7367325  21.0166264  38.5332947  33.5890236  20.2020473
  37.2979088  34.2649078  20.7570114  37.1750984  15.0323181  13.8890276
  36.4361000  14.7147789  14.4079533  37.1514015  14.5047760  13.0906734
   4.3325653  57.4592552  60.1463280   5.0714121  57.1027870  60.6395493
   4.6343522  58.3179550  59.8500366  41.0436554  20.4796200  20.2413197
  40.6719093  21.1450195  19.6622868  40.4121895  19.7606888  20.2165070
  57.7897797  11.5900974  71.2388611  57.6478729  10.7037096  71.5711441
  56.9649658  12.0448027  71.4096146  55.9389534  63.8237305  21.2122746
  55.3025055  63.2593651  21.6512051  56.4275475  64.2339554  21.9258728
  82.5238037  45.0030823  35.2182045  83.3931503  44.8854904  35.6011391
  82.6126328  45.7709389  34.6536407  29.2371216   9.9398565  32.7404442
  28.7830467  10.6847506  33.1343727  28.7566700   9.1735306  33.0537224
  34.2538490  22.4514351  13.5062923  33.4688950  22.4321499  14.0537462
  33.9273720  22.3276615  12.6150436   2.9909072  65.9700394  83.3811569
   2.3245146  65.4305344  83.8067093   3.3359685  65.4163055  82.6807709
  82.7300797  33.9036751  22.1127186  81.9787369  34.2607269  22.5862560
  82.6547623  32.9559174  22.2236938  52.7247581  51.9464073  88.7940292
  53.0486679  52.7711220  88.4318771  53.1898766  51.8507004  89.6251373
  23.3640118  12.4287052   9.0368223  23.4476185  12.0363588   8.1677389
  24.1517563  12.1485567   9.5028744  57.6603317  37.9335365  77.7976608
  58.4331093  38.0317955  78.3538895  57.7770653  37.0834312  77.3734894
  17.3355598  27.0211411  20.2785645  17.9046421  27.3281689  19.5727959
  16.6064224  27.6412582  20.2852440  35.0331116  53.9435349  43.5588951
  34.7058907  54.6711388  43.0299797  35.2084579  54.3307457  44.4165382
  70.4559555   9.8557215  19.9706078  71.3223801  10.0096273  20.3472424
  70.4818039  10.2975817  19.1218891  18.3098602  64.0303192  80.2008133
  19.2226219  64.0473175  80.4885788  18.0266666  63.1291656  80.3556137
  70.3271027   3.9576395  11.5726223  71.0937653   4.4487538  11.8680201
  69.6249466   4.2322035  12.1623888   6.4712315  58.0970154  27.0623550
   6.8442149  58.9457970  26.8242779   5.5456934  58.1681061  26.8287792
  85.0291061  28.5919838  23.8452377  85.3763580  28.0518723  23.1353607
  84.0883255  28.4154739  23.8422832  39.7605743   0.6245689  40.0627823
  39.8188438  -0.2135207  39.6040421  40.3439636   0.5267667  40.8153267
   5.9977231  28.6239052  10.4731417   6.3628058  29.3275051  11.0096998
   5.8072753  29.0385609   9.6317005  15.9196920  59.6535378  48.0920143
  15.1905031  59.2857208  48.5912361  15.9601240  59.1197052  47.2985229
  55.2774162  52.0451317  38.4609642  55.7958870  51.9915009  39.2637978
  54.3695145  52.0685997  38.7632904   8.1930122  47.8313637  80.3445587
   8.9674416  47.4796104  79.9055099   7.4687757  47.6270027  79.7529907
  76.5259781  58.0042343  26.2220078  77.2716827  57.4339485  26.0351009
  76.9202042  58.8407974  26.4689465  25.1011276  27.8622761   8.5880594
  24.1917400  27.7951756   8.2969532  25.5421238  28.3425446   7.8872762
  31.1906242  63.5203857   4.6552720  30.7555027  63.1081619   5.4015789
  30.6090412  63.3493195   3.9145091  75.0682755  39.7243919  29.1129990
  75.0167236  40.4286766  28.4668121  74.1558990  39.5219498  29.3199329
  -0.2704033  70.4388046  30.0420475  -0.0103828  71.2477188  29.6012783
   0.5373593  69.9288483  30.1028080  32.3004150  15.5498800  14.9521666
  31.4830780  16.0349407  14.8385696  32.2696724  14.8682194  14.2808809
  39.1175957   9.3235350  43.2464714  38.1796684   9.2812290  43.0600929
  39.3246040  10.2577820  43.2227478  81.0631256  25.1320896  50.7608414
  82.0178833  25.1073265  50.8245926  80.8044891  25.8631458  51.3219986
  76.0873947  25.5581169  44.5550461  76.9531403  25.6026382  44.1491776
  75.9631653  24.6299095  44.7531128  14.6901169  37.4408340  19.8101768
  15.0568724  37.9485817  20.5339966  15.3558559  37.4866943  19.1239414
  22.1052628  16.8539696  29.6334572  22.0759029  15.9000330  29.5601349
  21.3731575  17.0725136  30.2100792  35.6978874  35.6087723  86.0937119
  34.9992104  35.0163078  85.8161087  36.0910149  35.9150581  85.2764816
  11.1672144  32.9964905  33.4389000  10.9640579  32.2545700  32.8692360
  12.0583315  33.2478943  33.1961288  65.8391953  55.2457008   7.8823566
  65.2937088  56.0087280   8.0733290  65.3031387  54.4967651   8.1430731
  17.8883419  51.9988136  70.2896118  17.1583176  52.1200447  69.6824875
  17.9144459  52.8095894  70.7977371  13.8861122  34.1574707  33.0714798
  13.9563103  34.6303902  33.9007263  14.7913570  33.9605293  32.8306961
  54.1008911  68.4043961  81.2520294  53.3410339  68.7347336  81.7313232
  54.4203186  67.6747971  81.7829514  46.2036552  21.8955612  81.7655563
  45.4765816  22.4688454  81.5227737  46.1163330  21.1392231  81.1854172
  63.8774414  57.0996170  49.2462349  63.7762260  56.5897331  50.0499802
  64.5724945  56.6514969  48.7642403  46.7313881  16.7643280  14.8572626
  46.0742073  16.0815544  14.7224779  46.5395508  17.4175739  14.1844301
  39.8389931  23.3202419   4.3247795  40.2224922  23.1476707   5.1846528
  39.6875763  22.4519596   3.9514306  57.8281555  65.0876694  68.8839569
  57.1849213  65.7937241  68.9470062  58.6533356  65.5320892  68.6895294
  26.9691162  43.4181366   2.4794922  26.1493359  43.8725243   2.6737242
  27.0279026  43.4280205   1.5241501  41.6988106   2.6898494   2.7765832
  41.4191933   3.3747222   3.3840339  42.1015053   2.0245371   3.3346412
   6.4638844  29.4584198  79.7457581   6.4859290  30.0139408  80.5249481
   6.0414066  28.6511211  80.0390396  15.6005249  15.9028091   3.3633881
  16.1714096  15.5441647   2.6839046  14.9405489  15.2240362   3.5045671
  57.3313637  27.7741928  13.1197014  57.8534698  28.4500141  12.6873741
  57.8621712  26.9806614  13.0505705   6.5276456  17.9196548  51.5412064
   7.3331766  18.0358124  51.0373650   6.3214273  16.9891968  51.4520226
   4.4613008   0.5408999  66.0833969   5.1988859   0.3873276  66.6738281
   4.6604805   1.3779610  65.6640015  25.5159931  65.4399033  26.7569542
  25.3234558  66.3773956  26.7732925  25.6678925  65.2426605  25.8326969
  30.9661808  23.2495766  88.7017059  30.9245071  23.1046467  87.7564621
  31.8855686  23.1055546  88.9257965  71.1659622  42.9243546  42.9498863
  72.0892181  42.7264900  42.7927933  71.1642685  43.8306885  43.2577591
  28.2100792  50.0640755  69.8584290  27.4739494  50.2420197  69.2730408
  28.9789791  50.0819283  69.2886047  16.3683586  69.7812958  71.7533875
  15.5619860  69.6444931  71.2561188  16.4026279  69.0432205  72.3619080
   1.2308339  10.3518133  22.0049610   2.0935163   9.9383268  22.0372086
   0.8603683  10.0681610  21.1691799  29.2506847  69.7902832  83.1145477
  28.8571529  70.2054596  82.3470917  29.5195923  68.9246140  82.8070831
  50.8567657  66.7203674  33.6837044  50.0814514  66.9402771  34.2001915
  50.7458153  65.7945328  33.4674683  68.8490677  23.4591370   9.2205248
  68.7063904  23.1555347  10.1170177  68.0679779  23.9725971   9.0143709
   3.5591817  18.4353600  71.4797287   3.3456557  17.9509048  72.2771912
   4.4837809  18.6627407  71.5779419  71.4222336   9.6354952  44.4640045
  71.9164276  10.4389334  44.3012390  70.5141754   9.9259787  44.5493469
   7.6626067  21.5509377  38.7806892   7.4576960  21.8156738  39.6774368
   6.8492517  21.6943626  38.2968369  65.4601059  59.1724434  19.3485680
  65.9916840  59.9537048  19.5011768  64.8931808  59.4081841  18.6142292
  36.6201210  56.5748711  30.1685390  36.2883682  57.4571304  30.0018520
  36.2522507  56.3375053  31.0197506  64.8955917   8.4140873  40.1627197
  63.9668961   8.6428289  40.2005234  64.9552841   7.5778356  40.6246223
  69.3141098  47.3164597  30.8688221  70.1563644  47.6294518  30.5388660
  68.7024994  48.0272751  30.6767120  29.5352249  23.8583241  82.6001053
  29.2758427  24.4068222  81.8597717  30.1525307  24.3983574  83.0935974
  63.9038315  70.1139145   5.2482586  63.3362808  69.3610306   5.4134603
  64.0583038  70.4919357   6.1139770  68.1166306  70.1062698  74.8004150
  68.9946747  69.8891907  75.1137009  67.8480148  70.8514481  75.3378067
  20.8911324  52.2068214  31.0450249  20.2665768  52.9187660  31.1839485
  21.7243824  52.5535431  31.3639507  42.4578781  56.7366676  23.6263123
  42.0837021  57.3543968  22.9981117  42.3077126  55.8762741  23.2346478
  40.2715378  46.0336647  26.5796585  39.6418228  46.4283981  25.9764347
  39.7437859  45.4601707  27.1353703  67.6841507  23.8127689  50.0324135
  67.2235336  23.0337429  50.3441544  68.4374771  23.4693851  49.5519791
  10.5058260  63.4640999  14.4135780  11.0152206  63.7365608  15.1768036
  10.5299377  64.2202530  13.8271656  48.1755562  47.7054634  82.5859985
  48.2079582  47.1030998  83.3292007  47.4934540  47.3479805  82.0175171
   8.0860605  69.9186630  74.4586563   8.9987650  69.8246078  74.7313385
   7.6112833  69.2755814  74.9852219  53.3966408  59.9571686  10.5024662
  53.0870895  59.2444191  11.0613947  53.0289726  59.7624855   9.6404037
  71.8220825  56.8965569  16.5238438  71.8919296  55.9688454  16.7490330
  72.4038773  57.3377304  17.1428070  20.6688900  62.7107086  55.0375557
  21.0156631  63.2853622  55.7200165  19.7309742  62.9008865  55.0180626
  62.7694016  18.2852249  48.9071236  63.0264549  19.0236206  49.4593239
  62.8359261  17.5222206  49.4812584   5.1274719  40.7097282  69.4247818
   6.0287356  40.4168854  69.5596848   4.6711512  40.4581032  70.2277069
  54.5609627  44.6214294  30.6326237  54.7425194  45.2416039  31.3387756
  55.4202118  44.2762566  30.3901863   4.9143219  23.0033379  70.2834167
   4.8896446  23.3299313  71.1828384   5.8208632  23.1347599  70.0056686
   7.8481479  50.7530746  72.4727783   8.5912142  51.1250992  72.9478378
   7.0863433  51.2199745  72.8161316  75.0278778  20.3011436  54.7238274
  75.3310928  21.1072540  55.1415329  75.1497192  20.4562607  53.7871704
   9.4548426   1.4407932  37.2094841   9.4839048   1.8818306  36.3604431
   8.9918556   2.0528235  37.7815819  21.6124592  53.1579666  75.3280945
  21.3822060  52.9892845  74.4144440  22.2435570  52.4722481  75.5465775
  17.9024220  57.6992416  67.3695221  18.6603737  57.1354065  67.2151642
  17.1531258  57.1039200  67.3500519  50.7524605  31.4396954  84.2484055
  51.0065498  31.8136272  85.0921173  50.9195328  30.5018482  84.3420181
  15.5365973  19.1620979  49.5649910  15.8007326  19.7773991  48.8809814
  14.5886126  19.0804462  49.4606400  33.5022888  69.1588669   4.2095871
  32.8131561  69.0896454   3.5488801  33.0787430  69.5872116   4.9534712
  26.3727341  16.6460876   3.8506887  25.4750919  16.7056274   3.5236938
  26.8282948  16.1080074   3.2032571  71.8083191  17.7404327  20.7195339
  72.7091980  17.9825516  20.5049896  71.8733826  17.3043060  21.5691185
  64.1486359  28.5482864   0.5941380  64.2503891  28.3943710   1.5333867
  65.0438385  28.5637894   0.2556083  65.0289688  66.3093414  40.5802383
  65.0993576  65.8847198  39.7252693  64.1226273  66.6143265  40.6222992
  37.1591454  44.6949577   3.3098981  37.5425987  43.8225403   3.3998232
  36.9024200  44.7500267   2.3894145  73.0012360   2.4080279  65.2012024
  72.3546677   2.0818381  64.5752792  72.7160416   3.3005357  65.3969727
  52.8977280  32.9231949  26.3488331  52.0071793  33.2641869  26.4317741
  53.1845970  32.7806549  27.2508430  28.1134377   9.4536371  60.2153320
  27.9449310   8.5392160  59.9880219  27.9525490   9.9356489  59.4041519
  51.8666000  12.9360952  64.4068222  51.8244286  12.5780525  65.2935333
  52.6338692  13.5083246  64.4158173  25.9660397  43.2490807  74.0566559
  25.6373310  42.4098816  73.7342758  26.9180622  43.1747360  73.9906235
   6.1127844  23.8145332  24.6559162   6.8848815  23.9291592  24.1018772
   6.1709514  22.9100151  24.9636402   7.2517490  44.8254128  52.9335594
   6.5906949  44.1463051  52.7992020   7.6996994  44.5675697  53.7392197
  26.0128803   7.6798077  46.4347191  26.0493813   8.5342264  46.8646851
  26.8678074   7.5864434  46.0144653  23.7499905   1.0018545  18.6036491
  23.7196522   0.2334612  18.0336647  23.6415005   1.7448572  18.0100098
  22.3461952  59.8732185  79.2769547  21.7868309  59.2844810  79.7836380
  22.0226669  60.7495880  79.4856110  25.9054337  14.4599829  49.1385574
  25.7925167  15.2739677  48.6477318  26.4254570  14.7108345  49.9020233
  42.6622200  58.0419998  87.2661514  42.7377014  58.5690155  86.4706726
  43.2143250  57.2778282  87.1004715  57.3118935  53.7097130  40.2189064
  58.2199135  53.7931213  39.9277496  57.2966118  52.8981209  40.7261696
  17.8952808  62.9670334  30.0444183  17.2000084  62.3192215  29.9296722
  18.6825523  62.5345726  29.7136421  40.5473022  22.3497601  25.9049301
  41.1970406  22.9292355  26.3027782  40.8399391  21.4679470  26.1351414
  65.0545731  19.5381699  80.9604568  64.5827255  19.3754654  80.1436844
  65.2877045  20.4657364  80.9216995  35.1587257  56.3596535  73.8806534
  34.4427376  56.1663780  74.4858322  35.9500160  56.1118202  74.3588486
  40.8622589  66.8499146  58.2058334  41.5638885  66.3812408  58.6578255
  40.9113922  66.5403900  57.3013916  29.4300785  53.0404205  39.9495583
  28.4775963  53.1212616  39.9992943  29.6745663  53.5573273  39.1819229
   7.1653261  29.0527763  49.1254768   7.8778954  29.6737671  48.9743195
   6.8568153  29.2527218  50.0092621  85.4432068  20.3940258  45.7937241
  86.3984833  20.3474026  45.8326492  85.2586899  20.8408947  44.9675941
   8.6278744  46.1870384  33.1957932   7.7155733  45.9176865  33.0890808
   8.8110008  46.7235146  32.4245033  69.7255325  32.7879143  74.6737518
  70.4680710  32.7501602  74.0708847  69.7235031  33.6895714  74.9950638
  78.3200989  43.5207825  16.5376968  79.2127380  43.8110466  16.3501797
  77.9407349  44.2315063  17.0545998  64.1948547   2.2957423   4.8048563
  64.9171524   1.7509946   4.4921818  64.3831635   2.4334350   5.7331948
  42.8346443  34.9252319  75.2208328  43.7808838  34.9518242  75.0788803
  42.4983444  35.6784554  74.7352524  52.1549149   4.9328008  20.4647999
  51.2682343   5.2503018  20.2938633  52.6441078   5.1495857  19.6711197
  78.3459854  17.3210640  12.9175434  78.2542343  17.9148140  12.1723776
  77.5366211  16.8100185  12.9176607  85.4545441  30.1997299  64.3149338
  86.3756561  30.4591694  64.2930832  85.4589615  29.3349571  64.7252808
   8.2915211  65.0282135   0.1664489   9.1590004  64.9844971   0.5686915
   8.0847702  65.9625473   0.1439283  62.8286285  37.0687561  46.7796631
  62.8504219  36.1411858  47.0149803  63.7359543  37.3600922  46.8697662
  34.2445908  66.8716583  61.8018799  35.1964760  66.9546356  61.8589439
  34.0747757  66.6928482  60.8769875   6.1615462   4.6006212  59.7779846
   5.9699082   4.6838846  58.8438683   6.5281777   5.4499369  60.0239029
  53.0784950   4.7202106  31.0287170  52.2272186   4.9686842  30.6684074
  53.7078362   5.2598891  30.5502758  12.5119925  34.9957542   6.0356131
  13.4413557  35.0075912   5.8067570  12.1119509  34.4209137   5.3831134
   9.3250875  36.7455063  26.7353401   9.4904642  37.3654747  27.4456406
   8.9433174  35.9818001  27.1680431  11.6770506   2.9361539  44.0341682
  12.0859661   3.5366006  43.4108849  11.1192780   2.3749869  43.4954567
  85.6735611  27.6503029  31.5443153  86.4546967  27.4042473  32.0398102
  85.9090958  27.4896851  30.6305561  57.2127991  64.6574326  17.8840122
  58.0708275  64.4031448  17.5443726  57.3998833  65.0535431  18.7350864
  40.2860146  43.7364540  33.1680298  40.0983276  44.3678322  33.8625603
  40.6264801  44.2669487  32.4476891  46.8638420  10.4666986  14.9540567
  46.0249557  10.8702583  15.1768608  46.8257256   9.5981970  15.3546610
  65.2902756  45.4334564  71.2579346  64.8055801  45.7033157  72.0379791
  65.3383713  44.4797401  71.3238525  26.2489071  12.6232529  60.4714241
  26.8916645  12.9384775  61.1068192  26.5335064  12.9968557  59.6373634
  54.2921524  25.9866829   9.0557861  55.1195259  26.0610161   8.5802269
  54.5209312  25.5280514   9.8642111  66.9190826  54.1985779  43.3680344
  66.8590317  55.0481453  43.8049049  67.8496552  53.9769821  43.4020882
  79.6784744  30.9081039  43.0729866  79.6002045  31.0205860  42.1256447
  79.1453400  30.1372852  43.2675171  75.4880219  49.1403313  70.0165405
  75.3766098  50.0107727  70.3988342  74.6357956  48.7189674  70.1278763
  75.4212875  53.9822502  81.8499298  75.5467529  54.1800041  80.9218292
  75.5735626  54.8158112  82.2951508  29.1416435  10.9640865  43.1253014
  29.7542267  11.6858120  42.9835777  29.3280525  10.3489323  42.4160271
  77.9448242  62.9853058   6.7130337  77.9118118  63.7437286   7.2960739
  78.8712463  62.8948822   6.4898872   6.9309440  47.2525787  41.4873734
   7.4867086  46.5828819  41.8859520   7.1380968  47.2111778  40.5537758
  70.2445450  70.3124237  38.9461098  70.3207779  71.2606964  38.8402672
  71.0396805  70.0590668  39.4149437   9.0268354  11.7336044  46.6093445
   9.0951319  11.0026932  45.9950676   8.1474133  11.6544914  46.9789238
  86.1654205  64.8147964  30.6528473  86.0625381  63.9584427  31.0679379
  86.5718918  64.6239319  29.8075199  71.6546097  68.3620987  13.5231924
  72.3930283  68.9541550  13.6661768  71.1366730  68.7860947  12.8389444
  37.7770920  68.1703873   2.7435446  38.3012543  67.3796692   2.8710415
  38.2211113  68.6409149   2.0380807  43.4697762   7.5721951   5.6776738
  44.2804146   7.9366970   5.3223805  43.4639282   7.8492785   6.5938740
  34.4568787  17.9542294   1.1855621  33.5586739  18.2325764   1.3643903
  34.9497643  18.7710762   1.1077393   6.6340551  60.7596283  26.5874043
   7.4916420  61.1351814  26.3880653   6.0369806  61.1864624  25.9729576
  16.5267067  51.0035934   8.6668024  16.2327023  51.8053131   8.2343197
  16.5702744  51.2342072   9.5947857  57.6243896  28.4326992  15.7194004
  57.8386345  29.3492985  15.5456781  57.5822792  28.0281944  14.8528938
  61.0582237  57.6296082  26.4445286  60.3556595  56.9939308  26.5807095
  60.9549751  58.2575569  27.1595478  31.5377216  33.8489876  83.2236404
  32.4058189  33.6702042  82.8621521  31.1556091  34.4893570  82.6235123
  80.8457870  22.6369343  21.5628452  81.6510468  23.1543217  21.5727634
  80.2289200  23.1636562  21.0546436  31.6419277  60.9723740  65.5706787
  30.9130993  61.0205956  66.1893234  31.5036221  60.1497154  65.1012802
  20.3808956  10.9757853  26.8570042  20.5847664  10.1241522  26.4704971
  21.2347984  11.3820953  27.0053062  10.1110725  41.7409859  38.4119377
   9.5612450  42.5204659  38.3323784  10.8869095  42.0423698  38.8846664
  63.7300911  54.7219429  14.3474903  63.6288795  54.9905090  15.2606506
  62.8613968  54.8436432  13.9643526  84.5826187  69.2545013  28.1908455
  83.9973755  69.8201981  28.6945515  85.4621506  69.5194778  28.4600105
  13.3457203  61.6142502   1.4703224  13.2612991  61.2186928   2.3378696
  12.8511362  61.0327873   0.8928125  61.9660683   5.7749171  46.6674423
  61.3506508   5.5288734  45.9768257  61.6169701   5.3623533  47.4574776
  38.9504013  63.5684586   5.8715515  38.6688385  62.8467140   5.3093758
  39.9063263  63.5198135   5.8630443  49.8485947  58.3764343   0.6685827
  49.6104584  57.9187393  -0.1376674  49.4779282  57.8381958   1.3679664
  68.7886887  67.5218430  58.2484627  68.0210190  67.9581223  58.6180267
  69.1933899  67.0774307  58.9934082  42.2775841  59.2580719  47.5686913
  42.8411369  58.5551109  47.8919449  41.5802155  58.8065224  47.0932846
   5.6017828  67.1937866  56.0866585   4.8080463  66.6850586  55.9210815
   5.6941752  67.1902008  57.0393791  84.0780182  12.0843182  16.5251732
  84.8268814  12.6790791  16.5662785  84.3071136  11.3693609  17.1189613
  82.9853058  70.5668182  75.0333710  83.1692963  70.9977798  75.8680267
  82.4387589  69.8164139  75.2666397  44.4905243  15.1505804  40.3351402
  44.4451065  16.0608253  40.0425224  43.6912422  15.0231009  40.8461418
  56.0538902  10.7347126  49.6736336  55.4149437  10.6396971  50.3800011
  56.6007156  11.4727297  49.9429779   5.8046021  40.5602188  10.8455505
   5.0380912  40.2991562  11.3559809   6.5481496  40.1994057  11.3284416
  57.4467316  13.7699890  64.1185837  57.6497765  12.8437710  64.2494431
  58.2163963  14.1232052  63.6724014  70.1945801  43.8205185  14.7175617
  71.1484909  43.7576752  14.7658138  70.0077209  43.9151802  13.7835617
  81.0881195  13.9587212  60.9133301  81.8660736  14.3898230  60.5595436
  81.2126999  13.9807444  61.8621330  13.7739983  18.9694538  23.7995014
  14.7040606  19.1003437  23.9841194  13.6331663  19.4046116  22.9586468
  60.1859474  19.2497845   5.9628444  59.9151535  19.6354351   6.7960162
  59.8525925  19.8541183   5.2996044  10.2258148  45.5372314  86.0002213
   9.6114731  45.9119263  86.6314240  10.2083721  46.1438141  85.2599564
  10.0749283  43.3564148  12.1837320  10.2586260  44.2728195  12.3903532
   9.9783516  42.9332466  13.0368624  12.4414930  31.3396645  16.7276974
  13.3759260  31.5409374  16.6771450  12.1253872  31.8546219  17.4700756
  80.8680344  36.4847450  16.1576252  81.4039993  36.2588120  15.3974094
  81.1954193  35.9201279  16.8578110  62.5447540   8.2909403  37.5997314
  62.7205124   8.7158480  36.7602081  62.4872360   9.0125437  38.2259979
  76.5579834  68.6790314  53.8714943  77.5143738  68.7010498  53.8388329
  76.3338470  69.1725922  54.6604080  70.9183350   9.4932451  31.2586231
  70.1402206   9.3850632  31.8054943  71.6433792   9.2078238  31.8145657
  70.9500504  23.1931458  88.0283508  70.0752182  23.5383568  87.8502121
  70.9356537  22.9732361  88.9598389  79.9833832  71.0067673  27.2985916
  79.7490082  71.9325027  27.2329521  80.5453033  70.8476105  26.5402069
  75.9463196  11.2535992  77.7437897  75.3336868  11.6313000  78.3748627
  75.7558594  11.7084465  76.9233856  29.5307961  11.4871798   0.0253222
  29.6321583  12.0271378   0.8091605  29.7718544  10.6053705   0.3091114
  55.5885887  17.2444534  47.2977409  55.8247185  17.8237801  46.5732727
  55.4978447  16.3811855  46.8942986  17.9150772  53.5126152  57.8756256
  17.9095268  53.9001160  57.0003853  17.6950951  52.5922546  57.7314873
   4.1971064   7.4028225   1.0234009   4.9736671   7.5374537   1.5665947
   4.4785709   7.6407204   0.1399902  77.9077072  35.4251060  56.4361076
  78.3970642  36.1552505  56.8151131  77.0145187  35.5416603  56.7599258
  41.6687126  30.0288982  82.2877274  42.1529884  30.1190128  83.1084518
  42.1245995  30.6069126  81.6759262  84.6952209  64.9899292   9.3011446
  83.7453613  65.0323334   9.4115639  85.0010529  65.8707733   9.5175228
   4.7017612  32.2341156  44.5081902   3.8654315  31.9958744  44.1081581
   4.4792495  32.9193726  45.1383858  21.6583824  54.9128189  26.3496742
  21.1209049  55.1345291  25.5892830  21.1223583  54.2982330  26.8508663
  69.4986496   8.5689430   8.6987610  70.2680511   8.7812061   9.2271490
  69.8531189   8.3478107   7.8375511  41.7821236  15.2926760  40.8264236
  41.9782562  16.1021442  41.2981529  40.9983788  15.4967003  40.3161812
  81.8389130  23.2826748  64.3342438  81.2125092  22.5638199  64.4184875
  82.1003571  23.4792004  65.2338257  84.3590469  48.3668365  52.8476105
  84.9760513  47.9538269  53.4517288  84.2160416  49.2405472  53.2114906
  75.8093262  32.6871834  44.5349121  75.5780716  31.7941933  44.7904930
  75.2269669  32.8847923  43.8013954  47.9708672  63.4851036   7.8568320
  47.2031136  63.0695839   7.4642410  47.6423798  64.3133545   8.2065763
   0.8410352  36.1652107  13.4123898   1.4869213  35.5129738  13.6837702
   1.0467268  36.3381462  12.4936857  23.3536854  61.7379150  23.3551102
  23.4003372  61.6446724  24.3066158  23.1967087  60.8496590  23.0348167
  19.7638149  55.1087875  73.0458145  19.5389767  55.0986290  73.9761810
  20.1785126  54.2602081  72.8903503  47.4125862  15.1032438  74.7228394
  47.5836220  14.3480988  75.2856293  47.9294662  14.9364843  73.9346390
  82.4895554  10.7811012  14.2930622  81.5480652  10.7409096  14.1251068
  82.5869217  11.4737186  14.9465389  48.2116966  24.6030369  14.8395176
  48.4862213  25.4854393  14.5900564  47.9036179  24.6939831  15.7412100
  75.4617462   5.8075662  33.4570732  76.4188538   5.8202691  33.4543190
  75.2099762   6.6449842  33.0677490  33.9309654  65.9918900  85.1798782
  33.8776894  65.4066467  85.9354401  34.8579483  66.2230988  85.1209030
   1.2996383  66.6630173  41.4704704   1.9377258  65.9756775  41.2790642
   0.5304114  66.1928787  41.7921677  79.3054428  50.5020218  17.8887825
  80.0570145  51.0679703  18.0650635  78.6952209  51.0581551  17.4044552
   2.8804762  15.2376833  77.2901459   3.5276804  14.7200947  76.8111267
   3.1373365  15.1521082  78.2082596  33.6799736  61.7433548  53.5471840
  33.1283836  61.1661644  53.0191383  33.3835449  62.6262093  53.3259773
  62.5964050  68.9044647  15.3314734  63.3176537  69.4373932  14.9967842
  62.1228981  68.6233902  14.5485172  65.9241562   5.7317648  84.8210297
  66.7339172   5.8519053  85.3170929  65.8441849   4.7833729  84.7190933
   2.9617975  37.8657684  71.1209030   2.9224408  38.7869148  71.3781357
   3.7169516  37.8127289  70.5351028  63.2768745  59.6774101  65.0346603
  63.2038727  60.5786858  64.7206421  64.2124329  59.5549583  65.1957932
  20.7208290  30.3516788  61.0616837  20.4382343  31.2566986  60.9300995
  20.5949879  29.9351063  60.2091217  62.7156067  14.5228205  26.5015965
  63.6680946  14.4399033  26.4555225  62.5629158  15.4578285  26.6382618
  68.3912277  57.2870178  84.1790161  68.5563736  58.0929832  84.6682739
  67.6036530  56.9201050  84.5806808   2.6085901  69.7503662  62.7717514
   2.0597885  70.3167801  63.3141785   2.9375937  70.3257370  62.0811501
  21.4435558  40.9461327  81.5216675  20.8866749  40.1867294  81.6931915
  21.4127941  41.4537506  82.3326035   7.7640104  24.4200783   2.3414433
   8.4995995  23.9239044   1.9823438   8.0752392  24.7273102   3.1928992
  62.5182991  43.8593559  33.7056656  62.6950378  43.0772781  34.2284927
  61.5743561  43.8343658  33.5488815  85.3519058  34.2585907  11.4287319
  85.5721283  35.0877419  11.8532887  86.1863785  33.7943649  11.3625174
  42.6976547  55.0289001  86.9603958  42.2281303  55.3294983  86.1823120
  42.6163864  54.0754738  86.9357452  53.4499283  23.2245178  15.2813768
  52.4985352  23.1221428  15.3059225  53.5894318  24.0611458  14.8377256
   0.3595136  10.8592978  14.7741823   0.5539259  11.7571964  14.5054550
  -0.5125927  10.9099007  15.1654654  72.4268341   0.1714477   6.6168127
  71.5797195   0.3302200   6.2003703  72.8952866   1.0017593   6.5309873
  81.5751724  68.3124695  37.2574654  82.3450775  67.8876343  37.6356163
  81.8559570  68.5827560  36.3831978  72.5525970  28.6692772  52.0870514
  72.5870590  27.9359932  52.7013321  72.6464615  29.4470596  52.6370277
  15.8443766  27.4470234  39.3452568  15.3705950  28.2732716  39.2499924
  15.2145042  26.7775784  39.0781670  81.3310394  33.7185020  53.2104111
  81.2408981  33.0822487  53.9198380  82.2708817  33.7456245  53.0309906
  27.9812717  36.4872246   3.1044219  27.5869789  36.5136414   2.2326033
  27.5701160  37.2121048   3.5753057  77.5516968  39.7561455  14.3492785
  77.6229935  40.6794701  14.1071596  78.4015732  39.5433235  14.7348232
  66.1589432  59.3627777  44.2178078  65.7604523  60.2069016  44.0059395
  65.8322220  59.1567574  45.0936127   9.3496275  55.3406258  43.3865356
  10.0356541  55.2568550  42.7242775   8.6232061  54.8183479  43.0462837
   3.6023259  24.0398960  68.1456833   3.9215925  23.4819775  68.8549271
   2.8988564  24.5532665  68.5429382  36.1003685  64.5148697  55.7695694
  36.8776970  63.9604874  55.7013359  36.4464912  65.4031067  55.8559151
   8.0234318  24.1844730  83.1610031   8.6542015  24.8500443  82.8864594
   8.4822235  23.3537159  83.0361633  25.3310680  64.5093460  66.1036453
  25.8758392  65.2792740  66.2669144  25.7017879  64.1168900  65.3132172
  24.7287540  31.9584312  60.8070641  24.8557472  32.5116577  60.0363235
  24.5080643  32.5715332  61.5082321  13.6195478  52.1712418  22.1539459
  12.7716951  52.5770607  21.9731426  13.6267061  52.0439262  23.1026154
  21.9812756  69.9613571  61.8671608  21.2947826  69.7515793  61.2339554
  21.5147381  70.3543015  62.6048431  24.9982281  26.6100674  57.3742676
  25.0083332  27.0500393  58.2243004  24.5657520  27.2311573  56.7882271
  76.5527573  66.4847794  21.9420452  76.5885620  66.5841217  22.8934021
  76.4913635  67.3803787  21.6098461  85.7015152  17.9380169  59.8656464
  86.0132065  18.8210640  60.0639153  84.8881607  18.0745678  59.3798065
   7.7408090   5.2466912   4.2532783   8.0606480   4.3814831   3.9976423
   8.5240698   5.7966909   4.2685895  18.2953129  62.4487648   7.3109035
  18.7084599  63.0620842   6.7031345  18.5055904  61.5840263   6.9584265
  16.4360619  60.4937706  66.6404953  16.5914822  59.5629539  66.8006668
  17.1260204  60.7499657  66.0284882  71.7129288  55.7392693  87.1646652
  72.1806183  55.6054955  87.9890442  70.8068085  55.9016571  87.4269791
  80.5160294  37.9240799  38.6959801  79.6834183  38.1714287  39.0982399
  80.7637634  38.6850853  38.1708794  12.8663378  52.8760414  14.5299606
  11.9679365  53.1934738  14.6213140  12.7780209  52.0303612  14.0903511
  72.3001938  46.7173576  15.0861826  71.4337845  46.7185326  15.4930735
  72.5997620  45.8115158  15.1632376  68.0028000  64.4227448  24.0166435
  67.9781265  63.5152817  24.3201694  68.9347916  64.6379776  23.9805679
  52.6048851  55.3934860  69.5091705  53.3458214  54.8690758  69.2054520
  52.2217903  55.7528381  68.7089615  15.0754728  34.2966270  28.7906513
  15.6771154  33.5521393  28.7908592  15.5794106  35.0119286  29.1787510
  62.0183601  26.6750965  63.8831825  61.1007309  26.4311523  64.0043411
  62.0848389  26.9044724  62.9562531  52.4007072  51.3704567  50.0058479
  52.2994499  51.4183502  50.9564705  52.8435326  50.5355606  49.8539085
  74.3423767  67.1179428  19.1240997  75.2305069  66.7685699  19.1975365
  73.9781418  66.6858597  18.3515244  74.4471893   0.3700302   2.4256322
  74.6332626   0.1573042   3.3401570  74.2461243  -0.4731980   2.0197117
  24.9702816  60.4568443  64.3605042  24.4826241  59.8923111  63.7607269
  25.8842049  60.3563080  64.0942917  31.5951347  38.3176880  80.7638855
  31.7384586  38.6967163  79.8966904  30.6704102  38.4830208  80.9476852
  40.5953255  58.9129791  18.9999218  39.7093964  59.1341057  19.2870865
  40.4774055  58.1662865  18.4127426  74.4176331  57.5443916  30.1508331
  74.3030243  57.5869102  31.1001949  74.2967682  58.4464607  29.8543549
  67.0215607  64.1206436  21.3070583  66.4598389  63.3979149  21.5869846
  67.1987762  64.6110229  22.1097736   1.7864046  70.7676392  77.6505203
   1.6923053  71.4803925  78.2824707   1.8580536  71.2068253  76.8030472
  78.2174988  12.4678221   4.0164967  78.9970322  12.5455418   4.5665135
  77.6079559  11.9450464   4.5374479  64.8766556  10.2454805  72.9853973
  65.5590363  10.2031784  73.6553268  64.9019699  11.1504402  72.6745377
  81.9366837  15.3857069  32.4532547  81.1282120  15.8831921  32.5762062
  82.5023270  15.6662912  33.1726685  79.1547470  12.5895729   1.6293660
  79.0053787  12.5253286   2.5726550  79.8854141  11.9944448   1.4614878
  85.9945831  65.7510452  27.2100010  85.9386444  64.8600159  26.8647881
  85.8697357  66.3125916  26.4449444  36.3485222  19.6279373  24.1156845
  35.7164574  20.0555286  24.6935215  35.8979797  19.5637779  23.2735863
  14.4794827  10.4330721  72.1163025  13.7372484  10.4787579  72.7189941
  14.6666079   9.4976749  72.0372620  38.7968788  19.2184067  19.1774292
  38.9041862  19.0293808  18.2452354  38.2134247  18.5296345  19.4958687
  59.2920837  56.4732170  52.9625359  59.4347649  56.4847031  52.0161018
  58.3434639  56.5526619  53.0627289  80.2151947  36.4967232  12.2659035
  79.4688416  36.5226212  12.8646669  79.9542694  35.8770905  11.5845776
   4.4076958  33.1474037  64.5510864   4.2510886  32.3240509  64.0886993
   3.7797394  33.1396103  65.2734680  65.2566147  28.7735672  32.9725266
  65.8893967  28.8822651  33.6824646  65.7703476  28.8919048  32.1735840
  31.1210308  63.3852615  77.5887604  30.6370449  63.7624207  76.8540955
  30.8284016  63.8856430  78.3504868  17.6112938  64.2568054  71.9058151
  17.4456902  64.5962753  71.0262833  18.5574608  64.1145401  71.9334183
   5.2771459   1.2836181  70.5639114   4.9809728   2.1144438  70.9357147
   5.8482475   1.5359519  69.8383713   3.0774539   9.8355637  25.5948086
   3.3589549   9.5140619  26.4513264   3.0195315  10.7849178  25.7025280
   1.3574982   4.7669907   1.7313057   2.1250155   5.0372920   2.2353754
   1.1779836   5.5079312   1.1525023  10.0684977  30.7766571  15.4081440
  10.7880669  31.2681999  15.8041697   9.5871277  30.4152889  16.1524067
  84.8420029  70.8382645  82.5661697  84.7913208  70.4229279  83.4270706
  85.7222137  71.2128448  82.5323944  70.0063553   2.6723595  60.3553085
  70.4225464   1.8103769  60.3548088  69.2802582   2.5881026  59.7373161
  63.7364502  17.2390709  17.7787437  64.3983917  16.7633305  18.2804737
  64.1407471  18.0863113  17.5917625  76.2038040  13.9349213   6.2123194
  76.2642136  13.3114519   5.4885316  76.1609268  13.3879347   6.9966655
  28.5334187  23.9336910  18.3116531  28.9745140  23.3690357  18.9463425
  28.6765614  24.8211613  18.6404972  79.6069946  68.5766296  39.4537315
  80.0759125  68.6410599  38.6217461  79.9225693  67.7615891  39.8440437
  42.6336670  21.8036766  87.2699509  43.3787498  21.2158432  87.1453018
  42.9551506  22.6606026  86.9896622  48.1534004  50.4357185  29.5054379
  47.4902763  50.1882362  28.8610363  48.6574249  49.6349258  29.6500816
  42.5179977  17.1241131  21.1553879  41.9945908  17.9213486  21.0736008
  42.2269402  16.7298031  21.9776020  70.1450043  28.9323330  19.9483433
  70.6835251  28.1689739  19.7397652  69.3235474  28.7808800  19.4808922
  77.1828384  71.3040848  48.5254402  76.4761887  70.6674500  48.4178734
  77.9756699  70.7723465  48.5954933  35.5685349  60.9308052  80.5554123
  36.1582489  61.6190605  80.8632584  36.1490288  60.2662773  80.1843796
  17.4835854  53.9149284  78.8550110  17.3160191  53.1867676  79.4532928
  17.0165043  54.6553345  79.2421341  80.7169495  22.5918961  76.6627274
  81.6139374  22.7501392  76.3684387  80.2243347  23.3497829  76.3478088
   5.5736046  63.2721558  51.6549988   6.1093040  63.4324417  52.4318962
   6.1443720  62.7752838  51.0688477  60.6782990  31.7332802  37.7960510
  60.4975243  31.0274944  38.4168701  61.6302910  31.8311386  37.8152237
  64.4763718  43.1385345  13.8025208  65.3293381  43.2876816  14.2104921
  63.8748856  43.0273285  14.5387802  13.7729607  46.4908485  79.3941803
  13.8670721  46.3425674  80.3351288  14.4429779  45.9352150  78.9959641
  83.6523361  52.9840317  34.4795151  83.7049255  52.1363029  34.0381241
  83.6777344  52.7704048  35.4122276  64.4368896  15.1058474  89.2145920
  64.7096558  15.7148695  88.5283585  64.5454025  14.2392902  88.8227615
  23.7574329  17.5958900  15.6747885  23.5963631  17.0565128  16.4489727
  24.5438690  17.2193012  15.2799063  48.3862724  13.4006701  15.5204906
  47.4392204  13.3950853  15.6594086  48.5138130  13.9712658  14.7626085
  64.0543518  45.9978142  33.3594589  64.4432907  45.9756279  34.2337990
  63.4783783  45.2337189  33.3340683  78.7624435  57.2651863  53.5271797
  78.7505569  56.3169212  53.3972473  78.1072006  57.5991211  52.9145012
  10.7072220  13.7388487  31.0952892  10.4869471  14.0655632  31.9676247
  11.6498775  13.8848543  31.0158253  72.5896759  51.3259506  63.0039940
  73.4306030  51.3012619  63.4605751  72.2761078  52.2218094  63.1278419
  29.2138004  53.5352364  72.3748093  29.2062912  54.1696014  73.0915756
  29.1295605  54.0670395  71.5834045  20.1997414   2.0857000  30.0610352
  20.1359749   2.0445809  31.0152245  19.3747139   2.4833586  29.7827702
  12.4708395  45.2113800  10.8884354  11.8356972  45.8779869  10.6267843
  12.5825319  45.3434105  11.8298836  63.1327438  53.9012756   3.0298769
  63.6798553  53.1189003   2.9606459  63.7219315  54.5765648   3.3661444
   5.9879832   0.6485201  51.5263557   6.5284758   0.2312066  52.1971359
   5.4728942  -0.0673412  51.1542549  54.0225639  62.9398956  88.0565872
  54.2892609  62.7064857  87.1674194  54.8094597  63.3149681  88.4519958
   4.3831005  68.5201035   6.3851461   3.4769144  68.7974396   6.2504492
   4.9037991  69.1574020   5.8963079  80.7200165   2.1174033  65.6297836
  79.9939270   1.6783680  66.0728149  80.8510208   1.6128302  64.8269882
  30.0070839  70.5120468  29.2232914  30.0145893  70.3652496  28.2774448
  29.2827435  69.9743576  29.5433788  29.4737949  -0.0000005  22.3735790
  28.8221626  -0.1290044  21.6844025  30.0844345   0.6406211  22.0089474
  62.4493332  17.6819305  10.1264887  62.2046204  16.7990265   9.8493147
  63.0197983  17.5459843  10.8830080  43.7270546   4.1310644  37.5559731
  44.0949326   4.4296360  36.7242584  44.0586472   4.7545795  38.2021217
  53.8333702   8.4261999  83.5687256  53.1747971   8.0142260  83.0094528
  53.3386993   9.0465212  84.1042023  76.5738297  19.7465019  23.0794353
  77.2895432  20.0088863  23.6583576  76.9409485  19.8158016  22.1981564
  24.7366734  36.4725533  87.3878021  23.9994278  36.3956757  86.7821655
  24.7010822  37.3785286  87.6946716  40.3699760   3.0881283  73.4752502
  39.8837624   2.4072971  73.0101700  40.2835732   3.8644748  72.9220276
  83.7437210  17.5421734  51.7201881  84.2394257  16.7270451  51.6422577
  83.0320282  17.4512005  51.0865822  50.1769028  22.0360546  16.7712021
  49.3899879  21.6670513  16.3701630  50.1628189  21.7095795  17.6708965
  72.3125687  16.7392807  86.2464066  72.2367783  16.9369488  87.1799011
  71.4554138  16.9630375  85.8838425  50.1576920  44.7071877  18.8426094
  49.5654869  44.6405144  18.0935555  49.5821075  44.8748703  19.5888100
  15.1392155  58.0575600  46.1042786  14.8052263  58.2279320  45.2235680
  14.6731119  57.2715950  46.3893051  83.9638596  13.8122940  65.2189789
  83.1505814  13.8241997  64.7143250  84.2924347  14.7097082  65.1649323
  75.0647659  35.6191483  24.5835075  75.5390854  36.4279900  24.7759266
  75.3256531  35.3952293  23.6901836  38.4559669  61.5816002  21.3757534
  38.3545494  60.7597847  21.8559284  37.8488159  62.1854324  21.8035183
  50.8492699  59.5124588  64.6800003  51.4226913  59.7724495  63.9590111
  51.2844162  59.8463593  65.4644699  10.6446943  29.7334442  86.5910568
  10.9084892  30.6170464  86.8477554  10.0161438  29.8677006  85.8817368
   7.5380917  52.2828064  49.8500099   7.4801602  52.2828941  48.8945618
   8.4753380  52.2174721  50.0331268  74.4093094   4.4085026  26.1477127
  75.0613632   4.0633793  25.5378380  74.0796661   5.2004657  25.7230206
  14.2303047   2.7163639  74.3494797  13.7176847   1.9796312  74.6821594
  13.8899841   3.4770198  74.8204575  81.6327667   5.3211222  49.5852051
  81.2562790   6.0877843  50.0173111  81.1467285   4.5798202  49.9464073
  22.9850922  60.5537872  25.9903374  22.5930767  60.3876953  26.8476410
  23.9011879  60.2955055  26.0917778  60.7251549  48.4982452  82.5327148
  60.2613029  48.2550201  81.7315216  60.0546494  48.9002724  83.0850067
  43.6929207  61.7308846  83.4504852  43.6904640  60.8121300  83.7190247
  43.2348175  61.7359924  82.6100388  65.6998901  48.3603287  42.9497681
  66.2995224  47.6146202  42.9254341  65.7805099  48.7035522  43.8396721
  14.1565180   2.5506704  42.0605545  14.3195686   1.8006722  42.6325264
  15.0289221   2.8622620  41.8196106  36.7738571  50.8280983  67.4257431
  36.1059456  50.3863068  67.9500961  37.4956894  50.2011414  67.3797302
  37.7579498  70.4676743  33.1547050  38.1535072  70.7319794  32.3240967
  38.5017967  70.2406540  33.7127228  74.8780594  62.0614471  79.3992615
  73.9821930  62.3258743  79.6083908  75.0586624  62.4742241  78.5547256
  61.6360054  31.5212822   2.3516803  60.7386780  31.5695782   2.0219769
  61.5396919  31.2878227   3.2749641  54.5950623  23.5697536  53.2141075
  55.0192490  23.7061691  54.0612717  53.6583633  23.6220875  53.4040756
  58.1469879  14.6666594  40.9156532  57.5640831  14.0304680  41.3300400
  58.9776535  14.5691633  41.3811913  32.1141930  54.9729080  58.9094162
  31.6331615  55.3619232  58.1790009  32.1831818  55.6778183  59.5532875
  35.1047974  26.7235641   4.3571224  35.4499397  26.4500637   3.5072358
  35.2352638  25.9636879   4.9243946  66.1890106  65.9640808  84.7431030
  65.4612808  65.4109573  84.4590378  66.1635666  65.9211197  85.6990051
  22.1019650  53.8051567  16.2642422  21.5116177  53.2878647  16.8120842
  22.8061752  53.1995583  16.0327835  51.5059547  48.3990250  74.7701263
  50.8239136  48.9554405  74.3940201  51.3943481  47.5547714  74.3330765
  36.6999283  47.6546860  77.5343399  36.4649429  48.1150169  76.7286682
  36.3973083  46.7574158  77.3945007   1.2682358  23.8654671  19.9849548
   0.9619418  23.5874519  20.8481598   1.7501503  24.6756058  20.1512871
  13.1442404  57.0453262  44.1407242  12.5666800  56.3743095  44.5045853
  13.4624491  56.6683044  43.3204613  63.3349304  27.6602383  21.9938755
  62.6624184  27.0800247  21.6370716  62.9232674  28.5242920  22.0072575
  47.7658386   7.9008226  70.5217667  46.8235512   7.7374949  70.4811249
  47.9422836   8.0556698  71.4497299   1.6145579  60.0177803  48.3735809
   1.4417716  60.9094925  48.6756210   1.1491871  59.9529762  47.5396385
  61.9894295  66.5259933  26.2216511  62.1051559  65.6621704  26.6174297
  61.8483505  67.1128693  26.9645557  76.9770508  31.5026646  68.0998306
  76.2813034  30.8585911  67.9681549  77.7641068  30.9782524  68.2473679
  78.6477890  53.2010117  13.7548227  77.8934937  53.2905350  13.1723633
  79.0851364  54.0514145  13.7127590  43.8795319  58.8045807  83.3644791
  44.0899887  57.9015884  83.1266861  42.9242020  58.8469315  83.3222580
  61.1329193  60.4563103  21.5130539  61.8255196  61.0272484  21.1805496
  60.9883423  59.8215027  20.8113785  60.2128105  24.7924576   6.2856712
  61.0038338  24.9702339   5.7768435  59.9218178  23.9321556   5.9832873
  79.3536377   5.4749279  80.6675262  78.9641113   6.3478155  80.7181854
  78.6816559   4.9366803  80.2492447   0.5653350  10.1779871  68.2570496
  -0.1148321  10.3282776  67.6005249   0.0975792  10.1836500  69.0921555
  83.8793106  16.4507179   2.3546522  83.2669754  16.3205452   1.6305426
  83.5973053  15.8253059   3.0221620  53.9679985  59.0196304  79.0823441
  53.9585304  58.7917824  80.0119781  54.3661346  59.8896065  79.0530090
  37.0276527  46.6053734  68.9869080  36.3358612  46.4137421  69.6200943
  37.4346962  47.4081955  69.3125229  39.4547691  37.3559761  75.4941788
  38.5965729  37.5960274  75.1447372  39.8133659  36.7453804  74.8501205
  47.3180656  11.1654043  25.8598022  47.8915710  10.4215031  26.0440216
  47.7305717  11.6079111  25.1180077  28.8269997  35.8111229  26.9390697
  28.9954433  35.3140907  26.1385593  27.9102364  36.0769348  26.8675175
  85.5382462  27.3686104  19.8995762  85.2744751  26.8258305  19.1565781
  85.3695221  28.2660122  19.6124611  26.1540470   4.0558748  17.9457855
  25.5538807   4.0296926  18.6910019  25.8392353   4.7840662  17.4101906
  65.9015045  46.3938293  23.5005455  65.0407867  46.3250389  23.9136581
  66.3194427  45.5507431  23.6759586  56.9877663   3.6228225  47.5315170
  56.8443909   3.5278893  48.4731445  56.1331062   3.8772225  47.1835632
  41.5254211  52.2986755  79.6528320  40.6349182  52.2084503  79.9920959
  41.8754425  51.4077873  79.6588974  81.9045334  56.4449844  53.0366402
  82.4829254  55.7937050  52.6397438  81.1334534  56.4577637  52.4696236
  56.4435425  37.1212959  58.5603027  56.3968849  37.0886765  57.6047974
  57.3181686  37.4630966  58.7458649  79.3776550  18.6666412  55.3709335
  80.1098480  18.0862503  55.5789528  79.2293243  18.5387001  54.4339905
  36.4633942  45.0068398   7.9655614  36.2520981  44.5504112   7.1511555
  35.7807541  45.6723480   8.0511999  20.3774166  60.2221565  52.1783562
  19.4575024  60.4701462  52.0862007  20.6548691  60.6314621  52.9979401
  19.7990532  13.3677006  25.3938026  19.4025173  12.6290646  25.8557644
  20.5506783  12.9892778  24.9376373  62.2987442  26.9369106  16.3314800
  62.1636963  27.7536850  15.8509903  61.4363022  26.7229805  16.6873703
  22.4569492  58.6852798  74.3680038  22.8855457  58.8543167  75.2070312
  22.1968937  57.7651825  74.4129715  68.5683212  16.4601498  61.1434364
  68.6820526  16.2291527  62.0653572  67.8044357  17.0368767  61.1334991
  84.5150223  46.0151939  14.3719368  85.2128448  46.3678818  13.8197699
  84.4847488  46.6047363  15.1254349  79.5425034   5.7114220  67.6737518
  80.2063599   6.0224881  68.2891846  79.9723129   5.7477255  66.8192444
  62.3598938   3.9848814  65.6316299  61.8968430   3.2820048  65.1757965
  63.0903816   4.2047663  65.0534668  33.8316383   7.4811172  20.3179569
  34.5162163   7.8833175  20.8525791  33.3770065   6.8888063  20.9168816
   9.8056889  32.4863052  81.3941040   8.9048500  32.3294182  81.6771393
   9.7184343  32.8953514  80.5331192  55.8673286  19.8262348  15.6099653
  55.9287033  19.6845684  16.5546322  54.9741859  20.1419506  15.4726486
  27.1669579  51.0019341   7.6787095  26.9517746  50.8301773   8.5954580
  26.3199558  51.0198669   7.2331767  69.1791077  62.4089699  75.8242035
  68.6184540  62.1072311  75.1094589  69.0902328  63.3619614  75.8123550
  78.1785202  17.5075493  86.0194473  77.3294983  17.0706577  86.0866928
  78.1077957  18.2601280  86.6066971  17.1264744  13.7404613  68.9450912
  16.7294979  13.7287102  69.8160095  16.9669132  12.8630781  68.5972824
  30.8690758  50.6497993  82.8969116  30.5855637  51.1957283  83.6302719
  31.4365730  49.9897461  83.2950439  55.7711525  52.8252487  46.8949051
  55.3888397  52.9736671  47.7597961  55.8746910  53.7020493  46.5251312
  49.9375153  34.2974358  22.9253693  50.1425896  33.4160042  22.6135139
  49.1027946  34.2011185  23.3838406  85.1211472  29.6653347  38.5809402
  85.4409866  29.5412750  39.4745522  85.7331543  30.2902069  38.1920815
  20.1207485  19.4623375  26.3445587  20.6689339  18.7019787  26.5384083
  20.6982670  20.0587540  25.8681221  67.8151016  28.5068188  18.5435982
  67.1910782  28.6189995  19.2607021  67.9548874  27.5612087  18.4934597
  79.3555298  43.7004509  81.0733795  80.1374741  43.5570221  80.5402603
  78.7151260  44.0691147  80.4649277  44.2451973  68.9266129  67.5336914
  44.2466850  68.2761383  66.8314743  44.4425621  68.4253616  68.3249054
  72.9342880  37.9505196  82.1775131  73.2347107  38.7359123  82.6348267
  72.4715271  38.2833710  81.4085541   3.9572086  35.8215141  49.7077446
   3.1043875  35.3873177  49.7277985   3.8806584  36.4674492  49.0055046
  44.6044350   0.4151601  83.1032791  45.4575157   0.3407259  83.5310059
  44.4266090   1.3555305  83.0855942  69.4625397  70.5179062  58.4443398
  69.3302841  70.0718384  57.6078148  70.0603485  69.9477844  58.9278946
  40.1496162  16.9435425  35.3069611  40.2733688  17.8339748  34.9782562
  39.2220993  16.9008694  35.5396194  12.9647503   9.1848927  59.6335869
  13.4905052   8.4720697  59.9964905  12.6185637   8.8335447  58.8132553
  57.5030975  65.3347397  25.9402294  58.1391869  65.9766159  26.2558613
  56.8227005  65.8593445  25.5182343  41.0176697  46.1478806  87.0256271
  41.1482658  46.3062210  87.9605637  40.2496872  45.5780411  86.9841919
   6.8661904  37.0012169  53.3441391   7.6673136  37.5172615  53.4343262
   6.7924247  36.5267487  54.1721878  75.4362335  54.7998009  34.2874222
  75.9808197  54.0126915  34.2767715  75.7454071  55.3150635  33.5423393
  69.4150772  43.3758812  78.7597046  68.5860138  43.8535423  78.7866287
  70.0156326  43.9640808  78.3018951  71.2983704  66.8137589  74.6232147
  70.8747559  67.3019180  73.9171829  72.0089798  67.3843002  74.9160461
   0.9203476  27.6483173  87.7068710   0.9956990  26.9375591  87.0701828
   0.9962368  28.4468327  87.1845245  15.1845179   5.6335273  37.3691788
  16.0420151   5.2950501  37.6267891  15.0048656   6.3334746  37.9968987
  83.6161652  48.8548965  21.6955719  83.2418137  48.0169907  21.9676056
  82.8830032  49.4689980  21.7354126  16.5583763  19.3125610  76.8951492
  16.6993580  20.0778980  77.4524765  15.9252672  19.6065731  76.2402039
  15.7833395  10.1467714  41.4644012  15.2046213   9.5846338  41.9794922
  16.4870949  10.3835907  42.0684509   0.8189430  40.6741486  19.4180927
   1.0098063  40.0417709  20.1108418   1.0727648  41.5193710  19.7887821
  13.2397318  -0.0203786  77.2525177  13.3561258   0.8963736  77.5020142
  13.3406334  -0.5060640  78.0711517  60.5245247  29.7524757  47.2139931
  60.3039665  29.1317921  46.5194893  60.3409500  30.6118069  46.8344116
  14.1891661  69.6707306  82.4229813  14.1811619  68.7268677  82.2639694
  15.1150875  69.8873291  82.5324554  80.9863510  56.2829208   7.3618259
  80.7130890  55.3802071   7.1985302  81.6541595  56.4548225   6.6979656
  41.1539230  12.0875483  86.5694351  41.0674210  13.0136318  86.3433380
  40.3104172  11.8561296  86.9582520  81.3323135  33.5417747   1.2068119
  80.4696884  33.6127014   1.6155579  81.2491608  34.0274162   0.3861597
  41.5988121  11.4471149  27.8442039  41.2423439  12.0279169  27.1720219
  41.2536697  11.7930918  28.6672516  22.2872314  25.3052921  86.3397064
  21.8801823  26.0072784  86.8474045  21.6935825  25.1684303  85.6014099
  48.3646049  68.2422485  65.8433075  47.5956345  68.1195374  65.2866516
  48.9779854  68.7359390  65.2990036  11.7002449  33.6008034  77.5595474
  12.1637993  34.0165634  78.2865219  11.8162603  34.2038612  76.8253174
  73.6774597  44.3248596  24.6072483  73.3282242  45.0489388  25.1268425
  72.9030228  43.8427010  24.3174095  86.0783615  24.4877186  87.1843491
  86.9633636  24.3177261  86.8616943  85.6547394  23.6293640  87.1851730
  38.4280663   4.6406116  48.1552811  37.4977951   4.6862488  48.3760719
  38.7829590   5.4834347  48.4380074   3.9502170  27.5102749   6.6975446
   4.7259898  26.9762001   6.5267444   3.7059085  27.2966805   7.5980573
  25.0971069   6.8402510  88.0573502  25.0266476   6.1365795  87.4122849
  24.3673229   6.6886053  88.6578903  74.0448151   6.1845446  49.2445259
  73.5904312   6.1233401  48.4042778  74.2734528   5.2802768  49.4596024
  25.7573681  26.7143078  83.3740692  25.8079872  27.4800510  82.8019562
  25.1417694  26.9690895  84.0613480  10.8672419  42.8685722  45.6177979
  10.2709904  42.3494606  45.0781288  11.7228470  42.7587585  45.2029343
  19.2406597   0.1675227  17.1302223  19.4678555   1.0516492  16.8422394
  20.0724411  -0.2141577  17.4107399  39.0271606  70.0542526   0.7704913
  38.5292320  70.7619781   0.3613126  39.8658142  70.4537888   1.0012796
  42.3778572  53.3014183  26.0792847  43.0155830  54.0131073  26.1343575
  41.7212143  53.6157722  25.4578094  52.4493408  68.6585236  32.4405785
  52.0643997  69.2904892  33.0477638  52.1578751  67.8064651  32.7650452
  75.5182877  20.5849285  52.2059555  75.1158600  20.5031776  51.3413162
  75.9038162  21.4610519  52.2088356  78.7020798   4.7204833   9.4767962
  78.6655731   5.3298059   8.7394867  77.9220352   4.1750278   9.3755846
  24.8533897  17.2920742  66.5158463  25.0727158  16.3929348  66.7601318
  25.5977936  17.8112755  66.8200226  68.1041412  69.1106644  26.0445023
  68.0045929  68.2395859  26.4286137  68.8560867  69.4889069  26.5002880
  73.6577072  64.6871033  85.2306290  73.2976227  64.0232239  85.8187027
  73.7753067  64.2306747  84.3975220  50.2223701  22.1432743  25.8339500
  50.2258644  22.5621529  26.6946239  49.6679153  21.3710480  25.9456596
   0.6687670   7.9336476  42.2030487   0.8328689   8.6890879  41.6385918
   0.7277085   7.1793032  41.6167717  21.2149811  65.5643158  69.0032120
  20.6863461  65.6266174  68.2076645  22.1184521  65.6442642  68.6973038
  17.5346260  27.1741104  10.7750225  17.1260376  26.7080803  10.0455685
  17.8607063  27.9864388  10.3876905  45.9288864   1.6888267  70.1021118
  46.5018196   2.4538622  70.1540604  45.0899277   2.0378826  69.8012161
  25.4013996  59.1014786  24.1431484  25.4917698  60.0508842  24.2249298
  24.6989365  58.9819183  23.5040226  13.5963917   2.4628336  23.9363899
  14.2590847   2.7291794  23.2991066  14.0680227   2.4188044  24.7681694
  51.8675575  67.5840988  25.7140598  51.5025482  67.5173416  24.8317089
  52.3352852  68.4192352  25.7172108  23.8107567  62.4065666  68.6623154
  23.2493248  63.1713486  68.5352707  23.5004101  61.7717133  68.0166550
  53.0937614   1.4247440  13.6203451  53.7870102   2.0845904  13.6357040
  52.8026543   1.3619665  14.5300417  41.5456810  54.0138245  59.3832626
  41.9625664  54.6593094  59.9540367  40.8556175  54.5017357  58.9338341
  51.1779060  11.7602901  83.4685669  51.7170029  12.3262978  84.0210495
  51.7969170  11.3645363  82.8550262  17.6089134  45.1172981  12.7857380
  16.7231560  45.4044495  12.5639067  17.4866829  44.2651443  13.2042141
  38.5983658  38.6035004   1.9259818  38.8032494  38.2962875   1.0428765
  38.7827492  39.5424576   1.9017255  43.7168541  69.7900009  52.3675652
  44.2383842  70.4120178  51.8602867  42.8430405  70.1795120  52.3987503
   5.8332357   5.7193761  42.5865631   5.3435497   5.6784101  43.4080048
   5.1919656   5.4905553  41.9137764  73.2298279  10.4464836  66.0663300
  72.8033447  10.6918221  65.2452621  72.8157501   9.6196518  66.3135681
  28.1698627  53.6066856  62.8284264  27.4242592  53.0074501  62.7934456
  28.6663456  53.3266335  63.5973930  77.0786133  14.8796062  43.2751045
  76.9064789  14.9818954  44.2111282  77.5492477  14.0488415  43.2075081
  48.0152359  28.8858356  74.5000305  47.9406624  28.3173294  73.7335663
  47.1099663  29.0691586  74.7512512  29.0887585  50.7423744  52.6077690
  29.2604523  51.5741806  53.0491943  29.6727943  50.1178703  53.0380363
  51.7567673  17.0013752  67.2600708  52.0711060  16.7089996  68.1156082
  50.8028717  16.9900837  67.3387222  54.9713135  65.6013184  19.2834873
  55.5400429  65.4836731  18.5226078  55.3995171  65.1056824  19.9814987
  32.3357964  59.5216522  73.0821686  32.1846352  60.4371681  73.3171310
  32.1084862  59.0309982  73.8719940  69.1979446  11.9905987   1.9739759
  69.8356705  12.4380341   1.4177964  69.3852615  11.0598402   1.8521922
  19.7130566  16.0749702  24.3237057  19.3221931  15.3521881  24.8146687
  20.0978603  15.6597691  23.5518456  60.4341087  69.8183975  35.2919502
  61.0602417  69.6017075  35.9827728  60.2908096  70.7601852  35.3853760
   3.2378571   3.0640469  32.8237228   4.1110907   2.8402143  32.5018616
   3.3900454   3.7550731  33.4683571   8.3922834  64.2693253  85.0075378
   7.8323417  64.5638046  84.2892227   8.9305916  65.0318604  85.2196808
  51.8252029  57.5925064  86.3612976  51.9738197  57.5751419  87.3067322
  51.0328331  57.0708580  86.2337799  45.9178619  15.2531614  81.1365051
  45.1848373  15.3339624  80.5262756  45.6946259  14.4977436  81.6803284
  22.0617790  58.0219154  30.5144577  21.9990616  57.9527626  31.4670944
  22.8464565  57.5221519  30.2891808  58.8792953   8.4520893  42.5787582
  57.9659233   8.6170235  42.3447075  58.9154816   8.6028385  43.5233192
  13.3942251  71.0515900  60.5554161  13.1163797  71.9488068  60.7399254
  12.8221750  70.7653503  59.8433380  60.5360794  11.4660902   9.8714352
  59.8930168  12.1553364  10.0376883  60.4076157  10.8414288  10.5852470
  41.3240242   3.4086404  36.3825836  40.8368530   3.3273726  37.2025185
  42.2072983   3.6598563  36.6526756  19.6507511   9.6981678  39.6265755
  19.3192883  10.3003178  40.2927437  18.8740654   9.2318544  39.3174782
  23.3217316   6.2806692   0.8754531  23.9875202   6.0541892   1.5248094
  22.5208111   5.8690767   1.2000299  71.2963638  66.2466431   6.3790126
  71.4334488  66.8287277   5.6316118  71.7387314  65.4339371   6.1339488
  16.5583973  34.6246490  33.2250137  16.4808102  34.9302673  32.3212395
  16.4489994  35.4141541  33.7550545  57.3781433   5.8054166  69.2364578
  57.6943588   6.6845932  69.4445190  57.6189384   5.6751022  68.3192520
  80.2436371  12.0104809  26.3225174  79.9551773  11.1155128  26.1434727
  80.6335220  12.3056049  25.4996433  37.8964272   6.2125497   5.4056072
  37.5895996   5.5882983   4.7480359  37.8711815   5.7249551   6.2289209
  58.4473152  55.1324539  13.8274393  58.4904099  54.9331245  14.7626629
  57.7267647  54.5936928  13.5006742  11.4735708  64.2102661  23.9158382
  12.4286432  64.2336807  23.9751682  11.2836571  63.4113007  23.4240894
  80.7061386  11.5711946  75.1020203  80.8068695  11.6259508  76.0523224
  80.3749161  10.6866350  74.9468460  26.7241669  37.4021530   6.0926809
  25.8320827  37.0815506   6.2254705  27.2430439  36.9485970   6.7569747
  85.4628143   2.3044064  72.4769897  85.9378281   1.5683669  72.8627853
  84.6705093   1.9122082  72.1100082  84.2537460  14.5038433  18.7469292
  84.6238861  14.2895651  17.8905945  83.3222733  14.3000107  18.6630363
  32.1796188  13.5455656  18.6174622  31.3229103  13.2402449  18.9158993
  32.7238312  13.5390873  19.4048767  48.0720673  52.8869705   2.3276517
  47.5374069  53.6708260   2.2013900  48.1082077  52.4797325   1.4621570
  31.7842693  13.7362518  13.0423460  31.1746445  13.4720221  12.3533096
  32.5874825  13.2524452  12.8499584  64.8046417  25.3347187  39.9578781
  64.4208832  24.5089321  40.2528992  65.7474823  25.2147751  40.0714798
  81.3528671  59.0813446  80.5702896  81.4807739  59.3345146  79.6560822
  81.3315277  59.9106903  81.0477448  30.6092472  25.9470825   0.5316654
  30.6968365  25.1019173   0.0909237  31.0513401  25.8259525   1.3719715
  59.7082291  22.2842178   5.5906410  59.1120224  21.9415684   4.9247880
  59.6381683  21.6643677   6.3166628  53.6396980   9.2139664  80.5719681
  53.8037300  10.1296368  80.7975159  52.7643814   9.2158108  80.1846085
  53.6217384  60.1209183  14.0069799  54.4165497  60.1250916  14.5403547
  53.8230591  60.7009277  13.2726145  55.5985031  67.9618607  39.0373878
  55.4566460  67.1901550  38.4891319  55.7240448  68.6781006  38.4149208
  57.3191986  63.4494591   2.3608289  56.6740723  63.8677216   2.9310007
  57.9618645  64.1359940   2.1822693  54.1068764  30.4026909  28.9448509
  54.0486679  30.9349785  29.7382698  54.2772942  29.5161896  29.2631359
  42.9211807  42.9640770  31.5601902  42.4957123  43.8093109  31.4160194
  43.7260399  43.1784363  32.0318718  44.1181488  27.7897320  89.2922211
  43.7105675  28.6044979  88.9985123  43.9415283  27.1660900  88.5878754
  46.4984283  36.8351402  13.5621357  45.8947334  36.6740723  12.8369837
  45.9380608  36.8681793  14.3374605  70.9724960  32.4420738   5.7746062
  71.7772598  32.8318329   6.1161757  70.8758392  31.6248989   6.2636003
  28.4892979  12.1075935  80.7621384  29.2063046  11.9637966  80.1445236
  27.6971321  12.0431318  80.2287064  34.5338287  56.0914650  71.2453918
  33.6625328  55.6964722  71.2779160  34.8293571  56.0949478  72.1558228
  46.9068260  14.2469635  32.0356789  46.6086845  13.3936605  31.7206860
  47.0565224  14.1176186  32.9722099  60.5988541   8.8836174  81.2843399
  59.8888550   8.3353662  81.6183395  61.0643997   9.1762161  82.0678482
  17.3419952  28.3869400  25.5202389  17.6034431  27.6196594  26.0293140
  18.1680775  28.7920914  25.2562828  68.1102600   3.5312941  64.0501175
  67.8659744   4.1920981  63.4021263  67.3175278   3.0082448  64.1693802
  63.3303108  19.8165169  63.2479668  63.7038422  19.5713749  62.4014359
  62.4715195  19.3940163  63.2621994  59.3469620   9.2233982   4.6071439
  58.8555336  10.0444660   4.6311827  60.0714912   9.3599510   5.2175879
   9.6282301  56.9304581  47.2257309   9.2545481  56.0528221  47.3054008
   9.2760048  57.2668495  46.4017105  83.0960770  40.2002831  27.0843887
  82.6754303  39.6137619  27.7131023  82.3715973  40.5690956  26.5790806
  81.2172241  38.5897217  80.2703629  81.0649261  39.3051338  79.6529312
  80.5547867  38.7147064  80.9499054  17.1336136   5.3306389  72.6048813
  17.9851208   5.7271466  72.4206314  16.6294632   6.0290813  73.0223083
  82.2457352  14.6072369  43.4955750  82.9770432  15.2006073  43.6668510
  82.1414719  14.6239767  42.5442162  68.9981461  25.4977551  70.2737350
  69.0779190  26.4472504  70.1824951  68.2285461  25.3743515  70.8293610
  56.9305534  32.0947838  71.8118362  56.9428596  32.2091637  70.8615723
  57.1792603  32.9512711  72.1594086  76.9880219  61.7307854  31.1395912
  76.5866089  61.9697151  30.3041210  76.8867798  62.5104294  31.6856079
  64.0402374  68.8146591  25.0980930  63.4413261  68.1554718  25.4488316
  64.4049683  68.4118042  24.3101120  59.2443161   6.9115157  32.8696899
  58.8047256   7.3378510  33.6053734  60.0384178   6.5361214  33.2500992
  59.0869331   5.0438185  19.5105896  59.4947319   4.3182373  19.0378704
  59.6584358   5.7923999  19.3395844  54.6167870  62.1530609  32.8200150
  55.5634575  62.1195374  32.9575768  54.4148102  63.0874290  32.7710686
  57.0464516  62.8637772  67.6935883  57.6671829  63.4759560  68.0887680
  56.2047119  63.0858917  68.0915527  34.1902733   6.9489217  48.0280991
  33.2754478   7.0612168  47.7698135  34.1970062   7.1258292  48.9687843
  32.6979179  61.3957596  40.2050056  33.3506241  61.9720535  39.8074036
  33.1801872  60.5956879  40.4136658   9.4466038  22.2678661  79.0067139
   9.1485834  23.1679726  78.8754807  10.4010954  22.3223343  78.9597015
  52.9252014   4.2418189  85.5489273  53.4005775   5.0528479  85.3686981
  53.5109901   3.7421699  86.1176376  53.3349953  69.8852768  67.7446060
  52.4573555  70.2141800  67.9390488  53.3878021  69.0522079  68.2130432
  53.5837746  67.4494400  57.7070236  54.0264015  68.2396851  57.3974571
  54.1466141  67.1182098  58.4068298  36.7792854  32.9251900  79.2788315
  36.5840263  32.9633369  78.3425369  36.5366974  32.0362663  79.5380630
  58.6889877  49.0050316  56.0856400  59.5832062  48.7728081  56.3360062
  58.1498985  48.7057800  56.8178024  31.6946182  70.5291595  79.5220566
  32.4078636  70.7007980  78.9071884  31.6544113  69.5746689  79.5818329
  79.9139481  41.8550072  11.9606342  79.3849945  41.3864822  11.3149347
  80.6091614  41.2394028  12.1928692  19.8960743  11.0258560  46.4717598
  19.1905231  10.3984461  46.6291962  20.0305672  11.4523802  47.3180580
  78.1878815  71.0623322  39.4207344  77.6327820  71.2914963  38.6753616
  78.3613281  70.1273193  39.3116798  84.0548401  12.4960337   6.3123746
  84.2355499  12.5716152   7.2493181  83.7276382  13.3597689   6.0611176
  59.0918961  54.1788940  22.7867203  59.8589973  54.2483101  23.3550282
  59.3302917  54.6714516  22.0013638  44.3233414  10.7092342   4.2243605
  43.7353020  11.3900852   3.8974361  43.9894180   9.8991098   3.8391011
   7.4768944   6.8734198  60.7583122   8.3891144   6.6269341  60.6055679
   7.5198512   7.7864914  61.0423660  68.6602020  28.3096504  76.1489258
  67.7101898  28.2906742  76.0333786  68.9843903  28.7921143  75.3884201
  72.7010040  11.2546606  40.2685928  71.9888229  10.6783800  39.9912262
  72.3938599  12.1354361  40.0538177  78.7360916  27.4722614   7.3468184
  78.5930252  26.9776592   8.1537457  78.5974808  26.8341103   6.6469750
  85.7265854  35.0385284  73.9585724  86.5994415  34.7177734  73.7317047
  85.5440521  34.6510849  74.8146057  79.8759995  67.0286865  33.8848000
  79.6126709  67.1382599  34.7985191  80.7187881  66.5772324  33.9309120
   4.8553715  26.1553898  89.0574493   5.0560360  26.1086960  88.1226807
   4.9762449  25.2599545  89.3733826  36.1065445   6.8078003  87.1567001
  35.4002838   6.4263372  87.6781540  36.8735771   6.7696905  87.7280502
  84.3058548  57.4332199  22.8816719  83.5792694  58.0437775  22.7570343
  83.9655991  56.7769394  23.4897461  82.7050934  31.0270081  22.6420994
  82.3970871  30.2106152  22.2485695  82.0942459  31.1920815  23.3603249
   5.6295619  32.4435043  10.6427698   5.7766438  31.6300468  11.1253519
   5.1687727  32.1712303   9.8491879  51.4995117  10.3557749  35.2838249
  52.3682671  10.1436787  35.6251602  51.0296288   9.5218649  35.2899246
  21.7443504  38.3156242  87.5091782  22.1047401  38.5848274  86.6642609
  21.5153904  39.1367874  87.9444962  33.0217323   2.2728510  26.8780003
  32.4923706   1.7676203  26.2609520  33.1650925   1.6777042  27.6138535
  44.6289139  11.2002268  16.1189194  44.1594391  11.9369621  15.7277079
  44.6140213  11.3788395  17.0591888  78.3439789  38.9334412  55.0777550
  78.9557343  38.5715790  54.4366341  77.5087280  38.5114059  54.8765602
  25.3529377  14.6447783  67.6949463  26.1539974  14.1326981  67.8058929
  24.7389526  14.2686548  68.3256531  20.1973019  55.0574608  41.7685204
  19.3513508  55.4628410  41.5780869  20.3980503  55.3312683  42.6634865
  57.1172485  44.3132744  62.1518402  57.9908600  44.3898735  61.7682152
  56.9849243  45.1413078  62.6134529  72.9643250  43.8785667  15.0785999
  73.3686829  43.1918297  15.6088076  73.4433746  43.8549271  14.2502394
  22.5478210  64.0362473   3.5427310  22.7740250  64.9548569   3.3970563
  21.7915497  63.8830833   2.9763150  39.0083771  22.4208641  82.1894760
  39.2984390  21.5669746  81.8685913  38.0631828  22.3245125  82.3059311
  72.1866302  34.9299812  57.7982712  71.4561768  34.4677124  57.3872147
  72.1379089  35.8178978  57.4440613  41.1546211  62.8191109  16.8303337
  40.8835335  62.3036232  16.0707169  40.5774193  62.5274773  17.5360394
  53.6031761  18.9144154  73.1632004  52.9139519  19.5786438  73.1643143
  53.5018082  18.4654827  72.3239059  66.8864441  46.1080475  42.1874084
  67.6785202  46.1111412  41.6499786  67.0057526  45.3703728  42.7855988
  72.5319290  57.1415634  48.6955299  71.9107590  56.5092773  49.0569191
  72.7219772  56.8148155  47.8161278  59.6747894  16.6109715  69.3788528
  59.0238991  15.9201136  69.5024948  59.2444916  17.4049911  69.6960373
  67.0888519  36.4468079  41.9147034  66.2372055  36.8643608  41.7859650
  67.7224350  37.1555519  41.8029251  67.4255066  48.9669724  26.8013058
  68.1049652  49.2381592  27.4185772  66.6726227  48.7533798  27.3524685
  77.8762665  49.4108849  22.1082592  77.8146286  49.4100685  21.1530457
  78.7596970  49.0912209  22.2915382  25.9565029  58.1379395  87.2976151
  26.2986431  57.8963394  88.1583176  26.1431866  59.0735168  87.2196579
  72.4234390  36.3678932  40.8674927  71.7748566  35.6641197  40.8509483
  71.9306564  37.1413498  41.1416397  22.4078541  13.8671131   1.3279696
  23.3646278  13.8591118   1.3553699  22.1434746  14.0153904   2.2359061
  37.5321083  45.5735970  29.9594460  37.1588783  45.8582878  29.1252499
  38.1926880  46.2352676  30.1645317  45.4462509  12.3030500  72.6662750
  44.8134270  12.6447344  72.0345993  45.1559639  12.6522408  73.5089111
   2.9882600  22.9833565   5.8973355   2.2367783  23.5339184   6.1173067
   2.6460874  22.3532677   5.2631922  58.7474670  54.5841904  62.2874413
  57.7944870  54.6678162  62.3200874  58.9022598  53.8273277  61.7222633
  30.5826473   7.5867219  85.7871170  30.9436073   8.4666042  85.6787262
  29.6682568   7.7312584  86.0304871  84.9842834   6.8315725  22.0166836
  84.6572647   5.9494152  21.8403568  85.7647095   6.9117703  21.4682884
  58.6945839  69.3845062  23.5571518  59.3900909  68.7924500  23.8434505
  58.2040558  68.8812408  22.9072762  37.0607834  22.2874603  85.3481674
  37.7403564  21.8741856  84.8156128  36.9169006  23.1386051  84.9345474
  59.3571510  42.1088753  28.8665943  59.8176842  42.1039200  29.7057114
  58.8976288  41.2695923  28.8406219  17.5093384  29.0377998  12.8489161
  17.5589142  28.2763653  12.2709961  16.9257126  28.7638893  13.5564384
  65.1247787  64.4528503  34.7327538  64.6224518  64.8370590  34.0142212
  66.0363541  64.5139847  34.4472313  74.9839783  60.5313148  75.4718399
  74.3413773  60.5083199  74.7627792  74.6385040  59.9259529  76.1278992
  79.8656616   7.2320437  86.2331238  80.7627106   7.2575097  86.5661087
  79.3501740   7.6879325  86.8984604   6.3066907  35.0657272  26.5269413
   6.3520017  34.7127609  27.4155331   5.8398108  34.3962898  26.0268326
  75.6256866   8.5405178  62.9043961  76.1986313   8.8491278  63.6063423
  74.7426758   8.7586441  63.2026291  82.9607162   7.7715559  17.6969433
  82.9397202   8.7240353  17.7895412  83.8652573   7.5744433  17.4536839
   4.6702833  12.2759695  23.3066597   4.7128758  12.7514076  22.4769745
   4.4334879  12.9417448  23.9523392   6.7077427  50.4564552  60.7508659
   5.9299073  50.2505264  60.2324104   6.4050736  50.4278793  61.6585045
  64.8153076   7.8815155  59.2344437  63.9187012   8.2165966  59.2419167
  65.3365250   8.5999870  58.8761749   1.1590329  48.9883118  31.5691833
   1.3142468  49.6836815  30.9299641   0.7571245  49.4338760  32.3149529
  83.1157684  67.7649384   2.5760915  83.0450134  67.3626175   1.7104350
  83.3047943  68.6861115   2.3973567  31.5123272   5.0917506  57.5720596
  31.0237312   5.7970319  57.9964218  30.8501282   4.6004505  57.0859070
  25.1293259  15.6923637  29.6454067  25.5952568  15.2877731  30.3771477
  25.7589130  16.3093643  29.2723618   6.3123527  25.5330448  13.6223888
   7.1548123  25.1941776  13.9251480   6.3723602  25.5056095  12.6674662
  22.6519108  18.3357258   5.1982398  22.6543922  17.8676891   6.0332050
  22.7299347  19.2584286   5.4406505  77.7147522  51.6546783  23.9353218
  77.7724380  50.7859497  23.5375595  78.6253738  51.9245148  24.0544357
  33.6553688  37.7535629  37.2286606  32.9999504  38.3877144  37.5193710
  33.9892273  38.1137428  36.4070511  70.4425583  57.1546783  23.5592289
  71.2730637  56.8870621  23.9527702  70.0030365  56.3318672  23.3446884
  66.4830551  14.5860844   6.6229320  66.4692307  13.7937899   7.1598759
  65.5598679  14.7974405   6.4840617  75.4221497   2.6486371  80.0671310
  75.6274948   2.7363052  80.9979248  74.5638351   3.0613680  79.9713058
  82.8082428  15.6649876  81.8494873  82.7006454  15.2623577  82.7111969
  82.3086472  16.4797897  81.9017639  37.9070435  51.3130684   0.9250540
  37.9393883  50.5216179   0.3876626  36.9812698  51.4149132   1.1459610
   5.1907654  70.1199493  50.1265373   5.7369061  69.6078186  49.5301399
   4.3739629  69.6247101  50.1882324  58.1066628  70.1474228  41.6261673
  58.9793625  70.0023193  41.2606964  58.2358437  70.1167526  42.5741158
  36.0431175  26.7950554  19.5384769  36.0503197  25.8677578  19.7757549
  36.6239586  26.8526802  18.7798386  53.8081322  35.8530960  19.2860737
  52.9563332  35.5904198  19.6348839  54.4431114  35.4726944  19.8929749
  74.3283920  47.7558899  16.5305634  73.5424805  47.5091934  16.0430012
  74.4670410  48.6772232  16.3111267   8.4541998  27.0715542  15.4963331
   7.6666226  27.5229187  15.1926489   8.2676325  26.8522854  16.4092102
   2.6561217  50.5248184  43.0882950   3.6051207  50.4093513  43.0403252
   2.5055363  51.4102402  42.7572594  77.0593033  57.6661606  46.6699753
  76.3116302  57.2352371  46.2558327  77.3458099  57.0516891  47.3456764
  42.5373497  70.7084961  22.2176418  43.1315193  69.9958878  21.9823284
  42.7196541  71.3943329  21.5752831  17.6444244  51.3764610  27.1083527
  16.8935127  50.8555374  27.3929596  17.9454498  50.9455757  26.3083820
   9.6940184  33.6044044  11.1166124   8.9760733  34.2015381  10.9063368
  10.0626307  33.3642960  10.2664919  17.4394760  30.7896729  21.8602047
  17.1437340  30.3076153  22.6324673  18.3878002  30.8593674  21.9700069
  78.6659546  19.2955494   2.8442664  78.0088654  19.5723476   3.4828963
  79.0999680  18.5481949   3.2557585  11.6494703  13.8512840  81.6303406
  12.1149464  13.1180334  82.0327148  11.9526834  14.6208143  82.1121216
  69.0219955  52.3386421  82.5091934  69.2349091  52.8254509  83.3053818
  69.7547684  52.5131531  81.9185791  62.4454575  36.2273560  38.2299919
  62.7650185  36.6932106  39.0027084  62.1048508  36.9159698  37.6590042
  30.4146004  59.7618217  54.2170601  29.6421947  59.3628082  53.8165512
  31.1308079  59.1634598  54.0043678   3.0796564  22.1694012  53.8532829
   3.6096115  21.3745213  53.7937431   2.9525843  22.3027439  54.7925911
   3.3993449  46.6891403  33.6287041   3.1890557  46.4013977  32.7403297
   4.0431314  47.3871880  33.5082855  10.6119823  68.9389877  26.0688782
  11.1717949  68.8217468  25.3013535  10.4121075  69.8750381  26.0788059
  20.5682602   7.1173449  65.4684677  20.9100094   6.2964258  65.8227692
  20.3164959   7.6248140  66.2400360  62.6941414  56.8796616  11.1102953
  62.7669868  55.9446793  10.9186268  62.2008667  56.9184608  11.9296904
  32.8567467  59.5434952  27.9318695  32.9548721  60.4418907  27.6164474
  32.5000687  59.6373787  28.8151588   2.5767541  15.2172060  61.4558372
   2.3696215  15.9870644  60.9260750   3.3950279  15.4437141  61.8978233
  47.2779999   3.8659077  33.0559235  47.2704391   2.9397535  33.2976112
  48.2056313   4.0797944  32.9559860  66.9420166   0.7613808  37.3948860
  66.8832092   0.9334666  36.4551201  66.2871399   1.3398266  37.7857399
  29.6572952  16.8247128  75.4556961  30.4586296  16.3486824  75.2377701
  29.9604874  17.6879883  75.7368698  13.9607134  55.5237579  42.1251755
  14.6389847  55.8912125  41.5584679  14.3042259  54.6695442  42.3869858
   5.4997201  14.7776480  85.2158203   5.3525796  13.9971418  85.7500381
   6.0850563  14.4833755  84.5179520  17.4639454   2.9617429  28.7416496
  17.4668941   3.1883929  27.8116741  17.0395699   3.7061534  29.1682529
  36.6069145  38.9186134  84.2357864  35.6943398  38.6952553  84.0526199
  36.6312027  39.0711288  85.1804428  30.4633350  19.2174644  76.3357315
  29.7493134  19.4409523  76.9327774  31.2406578  19.1853714  76.8933792
  82.9835281  70.0488586  21.6553593  83.1124649  70.9972076  21.6400280
  82.9927368  69.7909546  20.7336025  73.1484070  48.2711601  65.4126282
  73.6916504  48.7087708  64.7571793  73.1606750  48.8610115  66.1663895
  78.9321899  62.0397339   3.4812000  78.8497467  61.8748665   4.4204831
  78.7675400  62.9779854   3.3873546  66.0380402  13.1915197  10.5439396
  65.1101074  13.0557842  10.7356386  66.2263641  12.5834961   9.8290443
  84.0473862  61.1320305   2.9234474  84.0337677  62.0818291   2.8054190
  83.1391602  60.9020004   3.1195338  18.9532948  35.5622749  17.4849224
  19.3958492  35.9082451  18.2599583  19.1270275  34.6213074  17.5099545
  63.8110886   8.5265656  64.0842209  63.6920509   7.8547893  63.4128227
  63.8237152   9.3511934  63.5983620  66.4534149  18.6724052  63.6502686
  67.3000793  18.2788448  63.4392929  66.3182449  18.4681072  64.5755920
  75.3063049  22.9122486  45.2480011  74.4746552  22.9249935  44.7742653
  75.1698914  22.2809162  45.9544296  12.9295015  29.6901379  11.7777786
  12.6741018  29.6780396  10.8553600  13.6048183  29.0154362  11.8481894
  13.4961758  15.1950741  62.9249458  14.3116989  14.7336512  63.1205063
  12.8476562  14.4995356  62.8159523  30.4957619  22.8469086  14.0711107
  30.6378765  21.9064846  13.9632339  31.2202682  23.1365776  14.6255589
  10.9161930  27.0343285   2.4462848  11.1247969  26.3120728   1.8537786
  10.8046474  27.7913246   1.8711797  62.1637344  17.4594631  24.7940960
  61.3058701  17.0894318  24.5858383  62.3127174  18.1163864  24.1140289
  55.0282249  14.4514418  39.9794998  55.4664230  13.8470507  40.5786057
  54.2031822  14.6647234  40.4154472  19.8088684  59.4658699  27.2451096
  19.9753571  58.7550240  27.8641491  18.9528618  59.2605247  26.8691864
   2.7890415  18.0861778   8.5463982   2.3144512  18.8957405   8.7350893
   3.6956515  18.3646355   8.4169722  35.2587166  19.8816910  76.4283295
  35.8381805  19.6224518  77.1447449  34.4075241  20.0155087  76.8452225
  79.1614304  26.4614887  59.8336792  79.9964294  26.8204384  59.5334091
  78.7665710  27.1683788  60.3441887  77.9624176  12.2424068  80.1271057
  77.7526093  13.1238194  80.4358521  77.3847809  12.1079884  79.3757706
  56.0816345  54.2125282  49.2022209  56.3995399  53.4822350  49.7331047
  55.3077202  54.5285339  49.6685181  23.7950306  64.3213730  41.9220581
  24.4753990  64.6764984  42.4940872  23.0160484  64.2752914  42.4763985
  58.9954796  39.0585213  43.0179710  59.2458000  39.6902962  43.6920815
  58.7672195  39.5956306  42.2592583  18.0103207  29.4929600   9.2181177
  18.9541740  29.5706100   9.0790377  17.6644306  30.3591061   9.0027514
   3.0288820  56.3415451  64.2815018   3.2963860  55.7318954  64.9692535
   3.4025798  57.1816711  64.5475235  64.9122162  41.2380180  73.8862762
  64.0629807  41.6534271  73.7363892  65.0425034  40.6766930  73.1219635
  83.3671112  27.4910145  88.1450729  83.5169754  26.7361546  88.7142410
  82.5399857  27.2977600  87.7037582  73.2287140  41.8123055   6.2844157
  73.6406250  41.0039635   5.9792242  73.8394623  42.1622505   6.9330697
  18.8635025  14.7752695  56.7809105  18.8544979  15.5927210  56.2829895
  18.9420681  15.0518017  57.6939201  51.1547356  55.4133720  65.1916809
  51.5149269  55.8930702  64.4457703  51.3552971  54.4960327  65.0059433
  25.4255695  58.8609962  41.7284126  24.6765118  59.1871643  42.2271729
  25.8947277  59.6500702  41.4573326  59.8783112  41.8297386  39.5602570
  59.3400040  41.4888115  40.2745590  59.5838356  42.7336693  39.4488106
  74.3791656  40.0493774  74.2629623  74.5883102  40.7194252  74.9137497
  73.4305267  40.1116219  74.1514587  34.2039566  64.9566269  32.7470245
  34.5638580  65.6496964  32.1935349  33.4387550  65.3546600  33.1620750
  60.6261559  10.0624113  32.3280945  60.7238998   9.2540693  31.8248425
  59.8621826  10.4927006  31.9441223  19.1203403   2.5110736  43.1397095
  19.3688068   2.9986544  43.9250488  19.3445377   1.6025162  43.3409309
  48.7305870  67.1330566  11.3688631  49.3595238  66.4654694  11.6427336
  48.8078537  67.1579971  10.4151125  18.2591572  49.8335075  24.9552746
  17.3593254  49.6838112  24.6652279  18.7987156  49.5565681  24.2147255
  10.4788837  29.6098080  20.2756271  10.8668470  30.4341145  19.9819679
   9.6199284  29.8577766  20.6175900  29.6989651   8.7377205  41.3409386
  30.6503658   8.8280563  41.3948708  29.5587769   7.8235149  41.0943489
  36.7730675  28.4963589  81.9141922  37.4842873  28.6957150  82.5230103
  36.0146828  28.3365135  82.4759140  25.4917927  71.2386169  46.8755341
  26.2268486  71.3043137  47.4851341  25.1014347  70.3847885  47.0621643
   4.4573126  41.5599785  85.0244827   4.1849723  40.8967552  85.6586685
   5.1915154  42.0069313  85.4456787  34.3846283  59.0176125  48.1848373
  35.0825386  59.4345856  47.6795769  33.7898712  58.6626816  47.5241432
  42.7620354  41.1767349  58.2569580  42.2489700  40.8953056  59.0144539
  43.6689453  40.9889641  58.4988060  82.0865631  52.1347504  45.7135925
  82.7876663  52.7549286  45.9137764  82.3105011  51.7910995  44.8487282
  11.3394833   6.4235115  69.0853348  11.6623697   5.9698892  69.8639221
  10.5452862   6.8692589  69.3799362  27.4747944  64.4149475  84.7245255
  27.9862537  64.3181686  85.5278168  27.2274609  65.3394928  84.7080002
   2.1925106  21.8281174  86.8033447   1.8529131  21.6230145  87.6744537
   2.4413762  22.7509842  86.8544693  44.4448090  37.8980751  76.3901138
  45.3476219  37.5800629  76.3955536  44.0502319  37.5121994  77.1721954
  28.7421703  40.6517906  84.9020996  28.1908569  40.0083733  84.4567947
  29.0200043  41.2500877  84.2085037  23.2009506   6.8755121  25.2973499
  22.9798622   6.2887917  24.5740871  23.5180054   6.2944489  25.9887791
  56.3394890  12.6446161  41.8763199  56.6222229  12.3723984  41.0032845
  56.5825195  11.9142914  42.4453506  72.8909912  41.2394295  41.5265045
  72.5127792  42.0996666  41.3443604  73.7840652  41.2935410  41.1863136
  22.7977848   8.4261904  42.8600044  23.1169472   9.0399599  42.1984520
  23.4476013   8.4707737  43.5614166  28.6988640  52.8445358  31.6841412
  29.5738430  52.5710449  31.4087391  28.3115463  52.0576134  32.0675087
   1.4378932   9.4027815  32.8683586   2.3685303   9.4623747  32.6525002
   1.0237662   9.0981903  32.0609207  10.2714128  60.6827965  18.3281002
   9.9381418  59.8329506  18.6160583  11.2095289  60.6480331  18.5150776
   9.3056469  16.6269093  18.8385792   8.5869799  16.7102242  18.2118359
   8.9793549  17.0470104  19.6343689  43.1636543  55.4398041  19.5126495
  43.7676620  55.6555481  18.8021145  42.3019371  55.4188805  19.0964298
  21.3909035  25.0594368  78.9296722  21.7756710  25.9110241  79.1369934
  22.0736465  24.4271412  79.1539459  73.5919342  60.1516457  45.9206390
  73.1808929  60.9155388  46.3252945  74.4936142  60.1667023  46.2415543
  48.2072563  39.7247581  65.6004868  47.6098557  40.2006874  66.1774063
  48.4257240  40.3523750  64.9115677  69.9477005  11.6189213  65.0486679
  69.0329132  11.6800356  64.7735901  70.1979065  10.7167072  64.8495789
  30.3016453  70.6643600  14.8644218  29.6450920  70.6333084  15.5602713
  30.1678715  71.5151520  14.4467039  85.0847702  68.7925949  23.1377487
  85.2826538  68.5079880  22.2455177  84.3035736  69.3383026  23.0473709
  11.7299957  70.3827362  46.8809128  10.9250803  70.1002808  47.3151512
  11.5160046  70.3700333  45.9480247  36.1473732   5.3735490  56.1761055
  35.3838463   5.4375372  56.7498360  36.5433655   6.2444720  56.2063637
  25.0853558   9.7905731  88.6672287  25.9717426   9.5086670  88.8932343
  25.0264187   9.6597891  87.7208405   0.3110962  43.1670189  54.7969513
   0.4734997  43.1704750  55.7402687   0.5687549  44.0418892  54.5063515
   8.5244999  18.9459248  17.4443836   8.2498779  19.1520767  16.5508976
   9.4657593  18.7864571  17.3748760  58.3225975  49.8743477  70.7592316
  58.5291138  49.0244064  70.3704147  58.8705254  50.4962502  70.2804413
  26.5782375  61.6602554  83.7981873  26.6761436  61.3570518  82.8955765
  26.7654591  62.5980835  83.7574615  32.7154427  49.0786629  84.3041382
  33.1658821  48.6114845  85.0077591  33.2052040  48.8512688  83.5137863
  68.2939682  54.1353378  46.3780823  69.0683136  53.5948639  46.2215347
  68.5726776  55.0234604  46.1549492  39.7680473  67.3485184  64.5990601
  39.6235428  67.1070251  63.6841660  38.9270630  67.7017441  64.8892441
  86.2461700  23.6896954  13.3951025  85.5561905  23.7977295  12.7405109
  85.9488297  24.2063560  14.1440229  61.8829842  40.7037048  40.9843407
  61.9873695  41.4329224  41.5955505  61.1820908  40.9832611  40.3954201
  84.4134674  33.5917892  49.5400620  83.8980713  33.3221436  48.7798653
  84.5665283  34.5271263  49.4060974  76.7483826  49.6331635   9.9333544
  77.2382278  50.4231339  10.1618881  75.9293289  49.7092209  10.4228468
  15.1132145  12.8508930   9.3964834  15.1838913  12.0079451   8.9485159
  15.9871855  13.2345419   9.3242340  45.2832909  41.5208435  13.8262053
  46.1161537  41.9433365  13.6162739  45.0110397  41.1077385  13.0067825
  36.4816132  69.3078613  29.8091412  36.6521111  69.5863495  28.9093590
  37.1776428  68.6795044  30.0013466  69.8771057  14.6028929   4.0081205
  69.2594376  13.8905983   4.1735268  69.4754791  15.3684473   4.4190388
  12.1806393   6.2095151  61.9557571  12.4355021   5.5880570  62.6377144
  12.8077555   6.9277787  62.0397530  55.9057121  61.4500656  36.3151131
  55.5292892  62.3163834  36.4701385  55.2238998  60.9740067  35.8410568
  30.7818089   1.8203069  42.8867378  31.0668240   1.7682877  43.7990379
  30.0781002   1.1750402  42.8184929  85.7609177  43.9433174  44.7152214
  86.6093369  43.5960808  44.4398308  85.1714935  43.1898613  44.6818619
  16.3742332  66.8619003  69.4092865  16.9042187  67.6088104  69.1309509
  16.8628101  66.0959549  69.1078720  85.8053436  40.9462242  27.2603035
  86.1353607  41.0891037  28.1473808  84.9107437  40.6296768  27.3856659
  46.7494698  58.8679199  23.4842319  46.2152710  58.1078033  23.7146301
  47.5861359  58.4966698  23.2042446  66.4432602  13.8519392  59.3438644
  67.1920013  13.3618822  59.6836586  65.9072342  14.0356989  60.1153221
  77.3932343  68.2474747  36.0117493  76.5379791  67.8513870  35.8447418
  77.2260437  68.9009094  36.6909447  83.2953033  17.1053619  34.2849312
  84.2020950  16.8376999  34.1355705  83.1183014  17.7464199  33.5964928
  15.5362349  21.0454159  31.2442722  16.2136002  21.5868607  30.8389969
  15.3152781  20.3975792  30.5751553  52.0438690  44.1927872  22.4992409
  51.4620247  44.9486847  22.4198036  51.5251694  43.4562302  22.1757126
  77.2274704  20.0023804  59.0205307  78.0755615  19.6306133  59.2629204
  77.0078430  19.5774498  58.1914177  45.3436089  56.9696579  50.1700554
  44.9504471  56.5835152  49.3874016  46.0568733  57.5137596  49.8362350
   4.8795018  23.0269871  12.0633574   4.3948426  23.7681427  12.4267130
   4.9656258  23.2305660  11.1320295  42.3418503  68.9171143  64.9191055
  41.4500198  68.6636734  65.1570969  42.3916512  69.8484879  65.1342773
  10.2256422  13.1417351  39.1589203  11.1152964  12.8470192  39.3535728
   9.9411631  12.5831223  38.4355583  32.7579002  70.4597778  44.7879868
  33.0099869  70.1417389  43.9210739  31.8188820  70.2828445  44.8442955
  28.0619926   2.1223474  48.4379234  28.7107983   1.4402859  48.2644997
  27.4845181   1.7410092  49.0992393  83.6352310   1.1389493  28.0735188
  83.0806656   1.3743759  27.3296986  83.1700287   0.4198476  28.5009689
   1.4704643  35.6209030  72.5330276   0.7937143  36.2930183  72.4523926
   1.7524006  35.4557457  71.6333237  60.0890007  53.8545837  85.1914215
  60.4975395  54.5573120  84.6859512  59.7294388  54.2923584  85.9629745
  70.0914688  18.1845379  40.3987846  70.8139725  17.9045963  39.8367805
  69.7773285  17.3768368  40.8051872  69.7987442  68.8020325  21.3691597
  70.5644379  68.8121490  20.7948437  70.1247559  69.1262360  22.2087078
  67.4295120  59.8199005  29.9153442  67.9630432  59.0522423  30.1209507
  67.4386063  59.8688469  28.9594383  16.1755428  52.3099174  20.6536007
  15.3041658  52.6949692  20.7466927  16.0163364  51.3676910  20.5979252
  37.4168930  65.2449570  34.4429512  37.6669235  66.0977325  34.0872955
  36.4716225  65.3099518  34.5788765   3.0170763  42.7090607  69.0161514
   2.2875648  42.2097206  69.3831711   3.7242677  42.0700722  68.9277954
  82.1633911  34.6236534  28.5737286  82.5217438  35.2998161  27.9987354
  82.6834793  34.6899643  29.3745651  33.6575279  57.2338219  77.6593018
  34.5690041  57.4103775  77.4263458  33.6543884  57.2142029  78.6162949
  70.0621567  21.5629444  49.7843285  70.5536346  21.9013348  50.5327797
  70.2380371  22.1871586  49.0803032   2.0629275  46.2651825  17.5646935
   1.1536556  46.1584129  17.2853069   2.4689996  45.4165840  17.3880043
  13.4108543  40.1712341  20.3064461  12.7920704  39.5102921  20.6170807
  13.4123545  40.0693817  19.3546810  57.9518280  27.4090557  81.5726700
  57.2651443  26.9996395  81.0462952  57.6274376  27.3571968  82.4717331
  76.1733856  62.1138382  28.5302067  75.9006271  62.8956680  28.0500259
  75.7122040  61.3946304  28.0986004  70.9321518  69.2368698  60.2200966
  70.1440048  69.3200531  60.7568893  71.2917099  68.3810349  60.4535522
  12.7760630   0.0881268   3.5459998  12.6650324   0.2184050   4.4877706
  12.0224390   0.5282418   3.1528323  80.1078033  17.1158466  44.1254349
  79.5702820  17.9000702  44.2363129  80.2779541  17.0731754  43.1844482
  75.4881210  43.7904091  47.2732124  75.6625748  43.3462601  46.4434357
  75.0160446  43.1429367  47.7968140  74.6867676  68.2471008  15.6557693
  75.5814438  68.5107498  15.4406633  74.5589066  68.5459747  16.5560818
  25.6549511   0.6940526  30.9747524  26.3232536   0.2121014  30.4875908
  25.3474121   0.0744857  31.6364079  76.0794144  43.2728004  38.3354683
  76.9851837  43.1543999  38.0494652  75.5536575  43.0208588  37.5762978
  69.3419495  54.2636032  10.7235126  68.7462921  54.2196274  11.4715042
  69.9586029  53.5454788  10.8658590   8.9659834  41.3178139   3.2435308
   8.4106922  41.9939117   2.8552344   9.5604639  41.7980118   3.8199282
  47.8594894  45.1886635  71.4655609  47.7481956  44.8217545  70.5885086
  47.7362251  46.1306496  71.3485260  82.3195572  11.6404867  82.5080490
  81.9364166  11.2763491  83.3060684  82.6870193  10.8835058  82.0517731
  37.8955650  64.1928406  16.9673367  37.2185860  64.0335846  17.6250324
  38.2191963  63.3209724  16.7407570  74.2569275   2.3349519  85.9525528
  74.7160339   1.5404565  86.2250137  74.9383392   3.0064542  85.9210129
  82.6306229   5.4471741  43.1309700  82.6859207   5.8728600  42.2754211
  81.9195786   5.9040513  43.5803070  22.7753296   2.1513319  37.1574287
  23.1030216   1.2815812  37.3863029  21.8370399   2.0244360  37.0169258
  36.0100441   8.5769234  38.8637238  35.9851837   8.4958344  37.9102898
  36.5109062   9.3769064  39.0230827  80.6924438  27.9753437  34.9718094
  81.2578125  28.6789913  35.2903557  81.1465302  27.1709938  35.2229271
  11.9359303  57.7072449  73.8016510  11.0128860  57.5476036  73.9984741
  11.9559202  58.5987167  73.4536438  28.4435978   7.2181964  45.5149803
  28.8986740   8.0341721  45.3068428  28.2911396   6.8054233  44.6649170
  58.8098869  15.6917267  45.8737602  59.3919067  14.9490452  46.0347214
  58.8092003  16.1785088  46.6979408  71.3862762  19.5746040  71.2006531
  71.5333252  19.8136597  72.1157837  71.6091232  20.3644505  70.7079926
  56.5973091  25.1830921  58.0897713  57.3528404  25.4473267  58.6147346
  55.8685799  25.1665325  58.7101822  39.2632980   3.9320500  22.3234062
  39.7715874   4.4680495  21.7146530  39.9214058   3.4746957  22.8468132
  60.6132278  59.8470955  70.2943726  60.8692818  59.6805420  69.3872223
  61.3608894  59.5495911  70.8127594  82.5266266  47.6699333  37.0671501
  83.2005081  47.1098747  36.6818581  82.4130096  47.3315697  37.9553146
  73.1141891  46.5276794  42.0012703  73.2876816  45.6291504  42.2819366
  72.2789230  46.7500153  42.4125290   1.9176434  48.1929970  26.1405163
   2.5819778  47.8289337  25.5554104   2.3026872  49.0081024  26.4623528
  76.7897873  45.7061844  17.2083035  76.9255066  45.9985085  16.3069954
  75.8390350  45.6416626  17.2985725  65.0161591  61.8806763  57.3491058
  65.8637161  61.4498215  57.2384682  64.4598694  61.2147141  57.7531815
  84.9712753  49.5099869  61.8970833  84.5568695  50.2767029  62.2928696
  85.0368958  49.7265434  60.9670143  66.0530777  39.1393738   6.3174624
  66.5861511  38.6378365   5.7005959  66.6886444  39.5578613   6.8981094
  84.7740707   0.0413164  41.2112732  84.8205338   0.5828882  41.9991646
  85.6178207   0.1741678  40.7792206  23.5889320  61.2782097  12.0957804
  22.8890648  61.5820351  12.6737995  23.1360760  60.7940254  11.4053316
  44.6863213  47.1882095   8.5530329  43.9171257  46.7218590   8.8802776
  45.0470695  46.6119690   7.8792100  32.6870041  20.9062347  21.2486839
  32.7782784  21.6474171  20.6498947  32.3181992  21.2864418  22.0459633
  77.1440582  24.5516853  82.3187790  76.2664108  24.8988323  82.4783249
  77.7296448  25.2849331  82.5076447  69.8167648  50.6594238  88.1143646
  69.4654160  51.3370323  88.6919785  70.3543320  50.1119652  88.6866760
  79.0195541  19.7255249  49.1820984  79.2998047  20.2640495  48.4420433
  79.3477020  20.1884251  49.9529915  84.0227509  66.6841202  58.2213631
  84.7390442  66.3613510  58.7681427  83.5706558  65.8932495  57.9274788
  42.9968643  13.8948879  21.4293079  43.7610474  14.1475849  21.9473820
  42.2486916  14.2081308  21.9375858  34.0197868  59.8820801  67.1328201
  34.3122292  59.2162323  67.7551956  33.2662277  60.2921982  67.5573044
  77.5399780  66.2307434  57.5778542  77.1385880  65.3623657  57.6101112
  78.3455200  66.1037903  57.0766449  18.4159718   8.6827536  12.6430178
  17.8352623   9.2372322  13.1641350  17.8950748   7.9025617  12.4527540
  68.7296448  51.8046837  57.6189423  69.3464584  52.3502617  57.1309738
  69.2537003  51.4207344  58.3219223  62.4425583  47.9965973  26.7940502
  61.4968185  47.8934593  26.6883564  62.5776978  48.0092316  27.7415771
  70.4443817  42.3249588  66.0522003  69.9449921  43.1249161  66.2162323
  71.3559875  42.5774231  66.1986771   0.5101265  28.6117630  35.9868507
   0.0027300  27.8243561  35.7899551   0.9088997  28.4330044  36.8384743
  71.3903580  31.6894360  32.1044197  71.3076859  31.8849049  33.0377960
  70.9915314  32.4411049  31.6660557   8.2019100  34.6584091  62.9440651
   8.5428343  35.2852631  62.3060532   7.2508039  34.7461586  62.8813934
  57.6592903   4.0621982  66.6662445  57.9417839   3.5532558  65.9063721
  58.2496452   4.8154817  66.6828995  45.3773613  41.0540466  86.5480652
  46.0442162  41.3141212  87.1835938  45.8453598  41.0101051  85.7142334
  20.7360535  11.3829336   2.1441746  19.9459343  10.8427258   2.1333690
  21.4201260  10.8138428   1.7914537  43.2302628  29.9287205  84.6118164
  42.6373749  30.0046062  85.3594513  43.9183655  30.5710011  84.7856598
  85.1315613  35.0896034   8.6021042  86.0445557  35.0281601   8.3212252
  85.0539398  34.4463921   9.3067217  43.1765862  61.1748466  35.3307228
  43.2170105  60.6360893  36.1208763  42.2485771  61.1871719  35.0964584
  69.6603394  45.8232536  72.9762039  69.0567932  46.3148994  72.4192047
  70.2662277  46.4830093  73.3136215  69.5161514  27.0120907  82.5458221
  68.8543091  27.2086296  83.2088165  69.1091385  27.2675571  81.7179871
  40.4845734  55.4343948  85.3434677  40.0176849  56.2700043  85.3443604
  40.1010361  54.9465179  84.6146927   4.7022915  32.7946053  17.1005840
   4.5398245  33.5242348  16.5026875   5.1518798  32.1412888  16.5646019
   0.0236253  61.3371429  78.3150330   0.9331425  61.5122757  78.0734940
  -0.3115042  60.7894516  77.6051331  27.5531254  24.9892025  54.8417664
  26.7844181  24.8762894  55.4008484  27.5157909  24.2526264  54.2316093
  29.2454472  16.5728016  18.0462589  29.0098877  15.9448595  18.7292175
  30.1650352  16.3866978  17.8566360   4.2920852  53.8277550  44.4974136
   3.5004218  54.0750809  44.9752502   4.4477482  54.5574722  43.8978233
  10.1813459   8.8597336  19.0712280  10.3138447   9.1632547  19.9693089
  10.3137789   9.6399345  18.5327301  84.2505188  15.6174116  87.1227417
  83.5077515  15.8020964  86.5479279  84.6511459  14.8314056  86.7513580
  14.7560816  40.1770744  11.8483572  15.2655087  40.9530525  11.6147490
  15.0753746  39.4943695  11.2582741  11.8332129  15.7468338  28.6625805
  11.7860279  16.3691368  27.9368095  11.2111797  15.0580473  28.4283161
   6.6867561  44.0395775  71.5984192   6.4504929  43.3706055  70.9558487
   6.6748667  44.8599892  71.1054535  62.4280777  51.4677238  35.4494591
  61.6257019  51.1199608  35.8386726  63.0604057  51.4722672  36.1680489
  46.3033905  27.7910900  81.0770950  46.0881424  28.5447979  81.6264801
  45.5289574  27.6654510  80.5287323  23.8386211  66.9498596  24.2120743
  23.7020111  67.1959915  23.2972050  23.5105362  66.0525284  24.2702427
  35.8543472  59.2889824  30.7717361  35.4974060  60.0964851  30.4019222
  35.8371277  59.4309158  31.7181988  63.3658981  37.5300140  11.1386824
  64.1470718  37.2648239  10.6532116  63.2532959  36.8489380  11.8017740
  14.8261452  57.9713860  32.1809425  15.5554800  57.9518967  31.5613270
  14.8869390  58.8320465  32.5954323  55.1970024  60.7004356   4.0807395
  55.9376717  61.2456627   4.3460140  55.1621132  60.7906761   3.1284416
  54.5341225  54.9560127  17.3252163  54.1468506  55.4746780  16.6200638
  54.7518654  55.5968323  18.0021000  35.5556374  56.2825089  32.7861786
  35.0541000  55.4805450  32.9329796  34.9256783  56.8919334  32.4014893
  64.4290771  71.2950745  42.3612671  64.0167618  72.1145630  42.6345100
  64.8868179  70.9850769  43.1426811  81.2790451  45.9695740  29.2360458
  82.1999893  46.1083527  29.0150623  80.8941193  46.8458099  29.2195988
  13.2171640  61.7731743  79.5747986  12.7419577  61.0733185  79.1268997
  13.8850822  62.0489769  78.9470673  48.4740982   3.5910442  43.9089050
  47.5478058   3.3555253  43.9613266  48.9378281   2.8046770  44.1966743
  59.5198975  38.0141602  79.7337952  59.8586655  38.7090950  80.2981873
  59.9464569  37.2183189  80.0514679  76.7314529  48.4457054  18.1183949
  76.2846832  47.6181564  17.9400978  76.9418488  48.7956772  17.2526646
  35.9951706  32.1719742  11.2871275  36.1383324  31.3740883  11.7961597
  36.3339195  31.9644890  10.4162464  45.8106270  47.0700340  75.1517258
  46.2700195  46.7368050  74.3809128  46.3701744  46.8248596  75.8886261
  36.4531403  58.2100601  55.1166229  36.0274696  57.6662178  55.7793999
  37.3599129  57.9038277  55.1018105  43.0271301   1.7035419  57.9257812
  43.7997169   1.1395819  57.9617844  43.3248901   2.5406952  58.2817955
  14.1401415   6.7775083  50.3550797  14.0146875   7.3768854  51.0907707
  15.0764627   6.5789175  50.3649139  63.1966362  46.7772789  15.0173874
  64.1308517  46.9841995  15.0428953  62.9735909  46.5646172  15.9236202
  82.0279083  12.2665138  28.6933403  81.4671326  12.3896084  29.4592476
  81.4172516  12.1359701  27.9678841  65.1502686  60.6897278  38.2682571
  64.5469666  60.0593452  37.8747063  64.8602753  61.5389328  37.9351082
  67.1214218  43.7417603  43.8228569  67.6784744  43.5559120  44.5787582
  67.3198624  43.0415115  43.2011604  46.0175514  11.3515358  50.4906425
  45.5605774  11.7492990  49.7495689  45.4977264  11.6012907  51.2546043
   2.5250242  18.6367588  40.3404961   2.0182302  17.9355125  39.9310455
   2.0208545  18.8735332  41.1189423  76.8192978   0.9969678  21.2898254
  76.4554214   1.1997871  20.4280319  76.0757294   0.6620765  21.7910004
  76.2225800  13.6030569  27.9426250  75.7787247  14.4170523  27.7046471
  75.6119919  13.1609058  28.5324650  77.3518982   0.9307685  58.7309151
  76.7192154   1.5349144  59.1194458  77.2023468   0.1020352  59.1859627
  30.6177673   1.5262070  51.7508125  30.7096672   2.3571610  52.2169724
  30.2913609   0.9156150  52.4117737  79.3507462  12.1335897  46.6503181
  79.6203842  12.6736364  47.3931999  80.1214752  11.6035032  46.4473076
  57.3971176  35.1761971  65.8887405  57.0113831  34.8640060  66.7072601
  57.5049095  36.1183739  66.0188065  83.5183258  55.4424629  60.8424759
  83.7569656  56.2284164  60.3509865  84.0299683  55.5000229  61.6494102
  86.3423996  17.0622044  14.4827957  85.7601471  16.3783379  14.1518269
  86.4821091  16.8337421  15.4017725  14.5041313  23.5909252  56.1500435
  14.1996574  24.1320496  55.4215431  15.3636255  23.9492283  56.3716698
  70.0677490  56.4106522   9.1487217  70.9414215  56.0610123   8.9735689
  69.5846939  55.6728516   9.5209265  51.7780457  64.3171158  67.5355759
  50.8448448  64.4252777  67.3520737  52.2162476  64.6482010  66.7516174
  64.9126968  20.5590820   5.1796188  65.8634415  20.6626301   5.2196484
  64.5753784  21.4543266   5.1482635  81.0206375  16.9220524  62.3599968
  80.9955597  17.8036022  62.7321167  80.4060364  16.9539757  61.6268692
  64.0112305  42.5482864  52.8488350  63.9776497  41.7472954  53.3718224
  63.7718849  42.2677994  51.9655075  67.9110336  49.5819168  79.7670441
  67.1909180  49.5616722  80.3973312  68.2303314  48.6799774  79.7391357
  24.0045624  10.7480021  60.5368996  24.3743858  10.4487286  61.3675041
  24.7521858  11.1027813  60.0558357  44.4333153  50.4955673  19.4642696
  44.5556602  51.0616646  20.2263699  45.2900620  50.4796791  19.0377007
   9.0702162  35.9814186  35.5212326   9.5347652  35.1489334  35.4352303
   9.7260504  36.6449165  35.3070221  39.6815224  51.3657990  82.2582474
  40.4167595  50.8356094  81.9507523  38.9124146  50.8138847  82.1164780
  74.3651886  17.1869049  60.0558891  74.3311386  16.2559319  60.2758026
  73.4703827  17.4041271  59.7944260  56.0313721  34.5841827  89.0809784
  56.5000801  35.4070168  89.2205734  55.1133080  34.8424034  88.9990845
   8.3746786  37.1535149  11.0409336   9.1897535  36.9738922  11.5095720
   7.6871490  37.0021324  11.6894855  17.4644604  47.9741287  27.4349155
  18.2266693  48.4234886  27.0697498  17.7739525  47.6145592  28.2662735
  21.2384853  57.5311890   4.3259563  20.6607571  57.1407394   4.9817104
  21.5149441  56.7943077   3.7811537  33.4949684  64.1339722  87.0395660
  32.9252205  63.3696709  87.1259613  34.3143120  63.8705063  87.4584885
  21.3938370   8.2670593  26.8312912  21.8402252   7.8887501  26.0737610
  20.6218491   7.7147865  26.9548302  43.5205841   4.0554705  62.1421967
  42.7801170   4.2184601  62.7264709  43.8058167   3.1678286  62.3589134
   4.9942985  56.5067101  36.3000679   4.5958681  55.7501640  36.7303276
   4.5789723  56.5383453  35.4382477  73.7041245  40.8118973  44.0751877
  73.1197739  40.7150764  43.3232574  73.7454300  41.7561760  44.2263947
  65.1121140   1.8208656  45.6732521  65.3669281   0.9071587  45.5450287
  64.1679840   1.7868769  45.8272018   8.2172270  38.0790520  67.9790421
   7.8118453  37.2242966  68.1249390   8.4679995  38.0706635  67.0553131
  30.2665062  42.3760262  10.6535244  31.0449276  42.1200447  11.1482620
  29.8138008  42.9973145  11.2238703  11.2462492  58.8021660  48.9101562
  10.4306917  58.9282990  49.3951187  11.1068840  57.9963989  48.4126167
  69.2429962  19.2824287  30.5992603  69.9202347  18.6086559  30.6593475
  69.7201462  20.1089058  30.6734180  16.4983788  24.1458855  17.6844406
  15.8461971  24.7758350  17.9911232  16.0279179  23.6027489  17.0520630
  52.3734436  68.5496140  43.5441208  52.6584702  67.6404800  43.6362038
  52.9179459  68.9011536  42.8397331   3.9115911  47.4082870  47.7288437
   4.2046514  46.8309860  47.0238113   4.7201586  47.7526093  48.1081772
  75.2868729   5.2995410  37.9373360  74.8785095   5.6690331  38.7202454
  75.7562027   6.0344229  37.5424805  27.3393230  70.2628174  30.0012321
  26.9285526  69.5973511  29.4492779  27.3382664  69.8802338  30.8786469
  58.8916321  14.2361879  83.1289749  59.1261559  15.0550213  82.6922302
  59.4445534  13.5754204  82.7119598  28.6146431  52.3465500  16.4392910
  28.8743801  53.2301178  16.7002068  27.6933880  52.2834549  16.6913586
  73.8459778  53.3820229  38.3332710  74.5123825  53.4996147  39.0102577
  74.0703812  52.5491028  37.9183998  12.5189066   5.5646510  36.7326775
  13.4419279   5.5625114  36.9861717  12.5273809   5.3687739  35.7957726
   3.7836437  10.2251272  65.6912842   4.4373574  10.7166204  66.1886063
   3.4861500  10.8362913  65.0173416  80.1959534   2.5306792  10.2225180
  79.8179169   3.2473309   9.7128849  79.4500198   1.9712955  10.4390898
  59.9341011  56.1255646  36.4238091  60.2640228  56.7193069  37.0982323
  60.6015739  55.4425812  36.3586273  68.7303162  63.6202393  39.1724091
  69.2864990  62.8690796  39.3789253  68.8527451  64.2187119  39.9093437
  11.1828537  16.4287300  37.3938904  10.8638058  16.6049519  38.2789841
  10.3977623  16.1960258  36.8981972  50.1546860  25.9149456  77.2508926
  49.3422470  25.4234581  77.1299973  50.8357430  25.2440014  77.2980728
  83.6372681  32.3935432  75.9976654  84.3143463  32.3725204  76.6739426
  84.1193619  32.3224182  75.1737976  12.2246027  41.3760681  14.0133171
  12.7239885  41.9183960  13.4028044  11.9385443  41.9841156  14.6949902
  73.3871765  48.2085304  20.2820129  73.1790314  48.4991074  21.1699734
  74.3086700  47.9528656  20.3234921  55.4065247  64.8307495  32.9952583
  55.4661331  65.4608765  32.2771912  56.3122559  64.7023163  33.2770157
  35.6900597   4.6773109   6.5444503  36.2903023   4.6663828   7.2899871
  35.4123497   3.7664621   6.4471760  60.1315880  71.3363037  83.8931732
  59.2071304  71.1201553  83.7711716  60.5979767  70.7225342  83.3257217
  64.2826004  19.9101257  14.0285730  64.5387344  20.4063873  14.8059740
  64.7915421  20.2994175  13.3174744  38.4143600  13.3342142  28.7328129
  38.8127937  13.7457457  29.4997044  37.6382370  13.8646288  28.5524654
  12.8195457  20.5044937   8.5978365  11.9295921  20.1538429   8.5623646
  12.8053732  21.1201496   9.3306389  10.8255606  61.5095291  59.1891556
  10.0901461  61.0672531  59.6131706  11.1308899  60.8872833  58.5289917
   4.8503661  55.5630188  84.3927460   4.3290486  55.0797462  83.7517242
   4.2070565  55.9163742  85.0071793  20.4531765  58.8301239  36.5655708
  19.9807453  58.0063553  36.4453697  20.1589088  59.3828354  35.8415909
  15.9062767  51.1829071  87.9433060  15.0976009  50.6899529  87.8044815
  16.6028652  50.5751801  87.6949921  75.0080185   8.8890514  14.0548716
  74.5046921   9.0542593  14.8521185  74.5040665   9.3142996  13.3610229
  48.1029243  17.0829830  80.0002060  47.5123482  16.3813610  80.2743835
  48.5150146  16.7511501  79.2025223  18.0442333  36.4357529  79.7236404
  18.8273754  36.9854431  79.7511902  17.4181385  36.8821030  80.2937317
  47.1108398   0.4001857  29.3533173  46.2161751   0.5396814  29.0429096
  47.4197807  -0.3596836  28.8599758  22.9246483  17.4778748  73.1337357
  23.6963654  16.9931087  72.8410110  22.6148281  17.9310818  72.3496170
  85.5416565  52.6357117  15.8308334  85.8924561  53.2639275  15.1995554
  85.4072495  53.1474113  16.6285362  62.5266495  20.9889221  28.6659660
  62.8656502  21.8318901  28.3647728  61.9330215  20.7070122  27.9699993
  11.7080469  55.4216232  63.6940346  10.8943596  55.9252205  63.7171707
  11.8115339  55.1758232  62.7747383  83.5289536  62.6739693  21.4971142
  83.4513855  62.0518875  20.7737675  83.1892700  63.4960403  21.1434975
  22.4170837  47.4849319  55.7898979  21.8607655  46.7577057  55.5108261
  22.6564655  47.9291878  54.9765320  17.3999844  10.6509256  57.4151154
  18.1826572  10.9509439  57.8773308  16.7871685  11.3832426  57.4814568
  33.4745560  62.6273575  12.3195190  34.0160294  62.2146378  12.9923525
  32.8591156  63.1732216  12.8088999  49.7721024  65.0432205   5.5611758
  48.9929047  64.7102356   5.1159716  49.4663162  65.8190842   6.0310235
   8.5962009  39.6674309  39.7558327   8.9911451  40.5229263  39.5873833
   8.0786161  39.4840126  38.9718094  19.8294220   1.4865645   1.4144917
  19.2710667   1.8318027   0.7178709  20.5610771   1.0759920   0.9536836
  68.1719360  14.6077528  77.0495071  68.5628738  15.4576874  77.2520142
  68.4378815  14.4306688  76.1472092  26.5994301  30.3014660  15.9002142
  27.3095131  29.6922531  16.1023846  27.0362244  31.0554104  15.5039673
  50.8911858  64.4794998  58.6837616  51.1630516  65.3873215  58.8186417
  50.3281174  64.2842941  59.4328156   8.9668360  57.7572250  44.6810951
   9.0626478  56.9108696  44.2443695   9.0747042  58.4013939  43.9813499
  85.9180527  69.1750488  35.8430786  86.2845840  68.5431061  35.2245827
  86.6824493  69.5895386  36.2432442  44.3844452   1.0038379  50.4426994
  43.4335480   0.9743976  50.3370476  44.5290985   1.6548494  51.1293488
  37.4479942  58.7952957   6.4363642  37.6136284  57.8838692   6.1953297
  38.1813698  59.2802086   6.0578742  84.4050674  29.6549568  86.3442612
  84.3853149  30.3989887  86.9461365  83.8287125  29.0055771  86.7471924
  74.0607147   9.9632072  38.3194847  73.3686447  10.0456038  37.6633720
  73.7179260  10.4197302  39.0878067  58.7129326  55.0489883  76.9513474
  58.5657578  55.1863823  77.8871307  58.8204956  54.1020279  76.8623047
  73.3335800  49.0835648   7.9225473  73.1939774  48.1609306   7.7092743
  72.6193695  49.3017082   8.5213327  57.0930138  60.6799278  42.0944710
  57.8725777  61.2240868  42.2058296  57.2388229  59.9313507  42.6729202
  70.8645248  63.6718369  50.0969620  70.7018051  64.3100967  50.7914963
  70.2090836  63.8725433  49.4288712  51.4011459  67.1763687  74.6020050
  51.0140533  66.9559402  73.7547684  52.2221222  66.6847534  74.6254120
  28.5512238  20.1616116  25.6587315  28.5032349  20.7260494  26.4303131
  28.3299465  19.2896328  25.9857216  80.0914612  26.9690800  69.6697388
  80.9051743  27.4728298  69.6880112  80.3205261  26.1605911  69.2113647
  80.1013489  50.7069054  14.6463394  79.4237442  51.3181992  14.3575420
  80.6980286  51.2409973  15.1706953  64.7623672   4.6471486   3.3219655
  64.1818237   3.8947716   3.4365511  65.5319519   4.2904868   2.8783846
   3.2877026  52.8665161   8.8064413   3.5574892  52.0364838   9.1994925
   4.0581088  53.4294014   8.8830414  46.1168327  63.1067505  31.8003883
  45.2138557  63.3740654  31.6289120  46.1285362  62.1682129  31.6126556
  11.4542074  61.0800362  36.9450607  10.7300806  60.5219383  36.6615105
  11.6529026  60.7820282  37.8327217  74.4986496   9.6522303  88.7786636
  74.2883072   8.8303776  88.3353271  75.1638718   9.4128380  89.4239578
  73.3490372  58.5000839   2.0903039  73.6608887  57.6111069   1.9208912
  73.9700470  59.0637474   1.6289345  68.9822693  70.9068604  48.3562508
  68.6275787  70.3490448  49.0485420  69.6798325  71.4041977  48.7832108
  79.5564499  11.8236771  41.7388115  78.8912354  11.9827127  41.0691605
  79.2068405  12.2390985  42.5271225  69.4010315  43.0922127  83.9349213
  68.9520340  43.4399452  83.1643906  69.3959961  43.8155365  84.5618210
  76.9375534  46.7784500   0.7835179  77.4518814  46.2046967   1.3514173
  77.1258698  46.4696465  -0.1027160  61.7415314  39.4607773  13.7190294
  61.2782974  39.2424088  12.9103508  62.6051636  39.7540855  13.4286137
  47.8800621  63.3946381  62.2420273  47.4626656  63.4138985  63.1032143
  48.3055305  62.5381699  62.2011833  31.2274952  66.0142365  29.8907776
  30.4176865  66.4183121  30.2024918  31.8437538  66.7424545  29.8122997
  46.7696152   3.0717518  56.1134491  46.8709068   2.5115840  55.3439140
  45.8475723   2.9829237  56.3546600   1.6582595  19.0764923  69.5190811
   2.4274759  18.8801022  70.0538483   1.6016152  20.0320091  69.5227585
  63.2115669   0.5871683  70.9966812  63.1969910  -0.2635179  71.4352570
  63.9629364   0.5390665  70.4056091  78.5381546  37.2729340  27.9488945
  78.4447403  37.4300346  27.0093079  77.9846420  36.5111046  28.1205521
  16.1445007  41.9496727  84.9472504  16.7598286  41.7322083  85.6474762
  16.0136395  42.8944206  85.0282364  10.9714346  65.9610367  81.5677872
  11.3081942  66.5752716  80.9154510  10.8432751  66.4925003  82.3535004
  54.8602982  27.5694809  59.3035202  55.6602974  28.0396729  59.5383682
  54.3361626  28.2123146  58.8257332  18.7123528  34.1821060  81.1852570
  19.5973854  34.0603905  80.8415451  18.4319801  35.0261612  80.8314285
  65.1386566  12.7422485  57.0419350  65.4846344  13.1007710  57.8592453
  64.1879959  12.7894983  57.1431274  80.3628311  20.3903465  67.3524094
  79.9602814  20.6679497  68.1752853  79.8533859  20.8346405  66.6746902
  69.5672607  29.9480991  68.0914001  69.3630676  30.8815155  68.1485977
  70.1482239  29.8759842  67.3340912  19.9034786  66.9294815  13.7541780
  18.9831200  67.1923828  13.7466764  20.3878021  67.7541199  13.7946749
  51.1118164  33.0507507  79.9037018  51.6289711  32.6362190  80.5943146
  50.5248566  32.3598328  79.5965576  19.7729721  50.8334770  15.1736813
  19.8020382  51.7809296  15.0405436  18.9783974  50.5521393  14.7201042
  33.6303406  19.6467972   5.1842027  33.6796265  18.7129059   5.3882856
  32.7534065  19.9075203   5.4657021  44.2644577  53.8813820  70.2056503
  44.0725708  54.3332024  71.0273972  43.4674187  53.3880386  70.0117950
  82.8668747  34.1732903  66.6973114  83.6570663  33.7848625  66.3218689
  82.3682480  33.4272003  67.0304031  29.3445644  38.2843513  18.2512798
  29.2148285  37.3727188  17.9898872  29.8734322  38.2322998  19.0474091
   9.7735214  70.9266510  59.3788185   9.7916059  70.5317688  60.2505836
   9.1359301  70.4040985  58.8923607  46.4098740  35.3581200  21.5429916
  47.2742844  35.5206490  21.1653557  46.0461769  36.2307129  21.6931305
  71.5217438  47.9990196  73.5133057  71.9405823  48.0946808  74.3686676
  71.8731689  48.7211266  72.9924393  64.8868179  59.3982010   8.9761753
  64.9275742  59.3342590   8.0219841  65.7771530  59.2017593   9.2676373
  67.9377670  17.8861752  36.2896767  67.3973007  18.1402760  35.5416374
  67.8874130  18.6330414  36.8862381  79.2408676  44.5368195  12.8827581
  80.0034561  45.0885201  13.0568714  79.6100922  43.6902351  12.6313725
  46.8464127  24.7959976  78.8311081  46.1839066  24.5492249  78.1858063
  47.4634056  24.0641861  78.8328018  42.0201149  32.8479233  88.5627213
  41.2320023  33.3453979  88.7809601  42.6892128  33.5147972  88.4083633
  17.6569271  40.7088814  13.1737490  18.5368729  40.3331146  13.1468096
  17.5450535  41.1185188  12.3158951  11.3450260  14.9805374  18.0406227
  10.6664171  15.5800724  18.3509121  12.0727711  15.5504951  17.7920933
   0.8053752  48.5374870  23.0365715   1.6499250  48.3196793  22.6422024
   0.1606898  48.2914352  22.3731937  35.1978874   0.4175772  51.7488899
  35.7681198   0.0333632  52.4148064  35.7976341   0.8465395  51.1385384
   9.1831884  11.3097534  37.1360359   9.8482275  11.3182611  36.4476433
   8.3610115  11.1495123  36.6728058  44.1055565  54.0245590  29.1099758
  43.7021217  54.6062889  28.4657230  44.4412727  53.2916679  28.5938377
  84.1690216   8.9688520  70.7302780  84.8676910   9.6036892  70.5719299
  83.4365845   9.4941702  71.0524673   6.9503660  23.9767723  47.4462929
   7.1048751  24.0574093  48.3874931   6.3398895  23.2439308  47.3657150
  74.3574448  38.1940231  37.5758286  73.5442886  37.6892662  37.5909805
  74.5669556  38.3384132  38.4985924  24.7201977  55.6701202  13.3558559
  24.0162678  56.2277870  13.6870947  25.1993771  55.3988152  14.1388083
  70.7229614  17.8729477   7.8948212  69.8118820  18.0047665   7.6325345
  70.8339005  18.4314594   8.6642294  70.7181396  50.4874115  19.9156628
  70.8471756  49.7895699  20.5579987  71.6033630  50.7280312  19.6423244
  65.2474899   1.6633519  51.1657715  65.3010635   2.6143055  51.2608948
  65.4319916   1.5044693  50.2400589  59.5255241  15.8091288  79.8150864
  59.9168434  15.0326433  79.4148712  59.9044075  16.5439587  79.3326874
  85.5046539  38.9681664  12.7272291  85.3016663  38.2850533  12.0881786
  84.7764587  38.9395866  13.3478355  73.8574295  42.6108475  63.6543465
  73.4252167  41.7570305  63.6338654  74.5116806  42.5648956  62.9571533
  15.4650574  19.7032852   6.2545052  16.2982578  19.6237373   5.7900891
  15.6264439  20.3682995   6.9237900   2.8050241  26.1388760   8.7067051
   2.0786698  26.0307159   8.0927486   2.4003155  26.5003338   9.4952421
  75.4414139  51.5502510  60.0387268  75.0667343  52.4028130  59.8173866
  76.0397491  51.7324104  60.7633247   8.6805716  34.9616432  58.6422272
   8.7410841  35.7578278  59.1701126   9.1714640  34.3070412  59.1389656
  13.2250051  35.5877304  57.6062317  12.4340305  35.9836731  57.9720459
  12.9294252  35.1614761  56.8017616  59.3381004  26.2054768  28.8441448
  58.8367462  27.0121460  28.7251282  60.2333794  26.5018730  29.0080242
  23.3061867  28.4446144  77.9163818  23.9016323  27.9403095  77.3619919
  23.2153702  29.2852459  77.4676895  85.6120529  57.2676125  85.8525314
  84.6856995  57.4343796  85.6784668  85.6494217  56.3388023  86.0808792
  76.5335312  52.2890396  34.5299149  77.0034485  51.6698151  33.9713745
  76.1402054  51.7452011  35.2123871  50.7348900  15.8752680  13.1155939
  50.0270157  15.2557602  12.9385185  51.4379501  15.6116877  12.5219059
  39.2634659  32.9472466  24.8460598  39.2904625  32.6993484  25.7702065
  39.5232697  33.8684731  24.8375053  80.2293625  38.6214523  73.0536194
  79.4495621  38.2149506  73.4316330  79.9534760  38.9037704  72.1816025
  41.1351128   0.7478870   7.9627004  41.1231995   0.2661481   7.1356468
  41.1735916   0.0679878   8.6353731  60.4913826  64.9048462  28.6949024
  60.0484200  64.8301544  29.5401478  59.8803101  65.3973618  28.1469479
  74.1440277  66.9673538  72.8337860  74.7783279  67.5996017  73.1716461
  73.7154770  67.4221420  72.1087036  17.4030399  59.9004021  36.8240166
  18.2298508  60.3757744  36.9054947  16.8559551  60.2490311  37.5278549
  60.2536926   5.5251141  62.7497597  59.5199471   6.1389055  62.7164192
  60.3107185   5.2697840  63.6705132  59.3260612  31.8292217  64.8220749
  60.0028152  31.3033085  64.3958740  59.7790451  32.6271973  65.0946121
  23.7428856  64.8899994  55.9487991  24.1871834  64.2535095  55.3886948
  23.8502350  64.5450821  56.8352203  82.3501740  44.3493958  76.7988052
  81.8218002  45.0451889  76.4077454  82.8970718  44.7977562  77.4438782
  15.3423138   1.3817254  64.2059555  15.8671331   2.1293614  63.9198837
  15.6139374   0.6650088  63.6325722  28.2208157  65.5419846  67.5008850
  28.2646427  66.2761383  66.8882370  29.1231117  65.2288361  67.5643921
  46.1808205  23.3808765  20.2214527  47.0703087  23.6743431  20.4187336
  45.6797333  23.5882015  21.0102234  71.0968628  19.7883015  56.6824799
  71.9218826  19.3722057  56.4325829  70.4326859  19.3333740  56.1646576
  41.5263824  22.2794094  10.7884169  41.4855957  21.5140991  10.2149448
  42.2849579  22.7725964  10.4760733  50.5609245   1.7320882  80.5341797
  50.2561378   1.4471807  79.6726913  50.9730911   0.9549274  80.9114990
  22.9009323  71.1218643  21.2166977  23.5308933  71.4465485  20.5732994
  22.3240967  71.8671112  21.3843193  22.3202591  55.6910591  54.2821007
  22.0134563  54.7922859  54.1624718  22.1986694  56.1015930  53.4260025
  31.9656124  67.7526398  48.6385078  32.7924156  68.2158051  48.7730675
  32.1695671  67.0833435  47.9853058  53.9220467   0.6227854  26.6389122
  54.0756302   1.3150464  27.2818871  53.2421417   0.9755958  26.0649014
   9.1197205  60.6253357  81.4760208   9.6564426  61.1261482  82.0903091
   9.5724649  60.7113953  80.6370697  18.5422764  43.9249344   9.7694941
  18.5184574  44.1983299  10.6865110  17.6306992  43.9729996   9.4814816
  85.8246307  65.1978302  36.6512222  85.1636963  64.8222733  37.2328987
  86.0885162  66.0109177  37.0818977   5.8806767  47.7143860  57.7404747
   5.8691325  46.9978371  57.1059227   6.7709732  48.0626450  57.6923141
  36.8402214   2.8519638  59.9686890  36.9764442   2.3619752  59.1577721
  35.9446144   2.6380942  60.2301865  46.8930283  15.3463545  17.9774570
  47.1360207  16.2492924  17.7727852  46.5080719  15.0123844  17.1672077
  20.3850594  11.2869825  12.8568592  20.5341606  11.9116087  13.5666780
  20.5362663  10.4302301  13.2560377  80.2796326  43.9443474  27.0302677
  80.5744781  44.5810051  27.6813946  81.0625000  43.7479591  26.5156937
  58.2078094  55.2530212  79.4683304  57.3859978  55.7220535  79.6128082
  58.6845703  55.3455009  80.2931824  54.1336861   4.0694213  63.1185036
  54.0856247   4.6345968  63.8895416  53.3097725   4.2240586  62.6564560
  78.0037994  68.8416977  26.9230576  78.7163849  69.4484482  27.1237926
  77.2122955  69.2999954  27.2054157  43.6130714  26.9453011   5.9063778
  42.8735466  26.5698395   6.3842483  44.0762405  26.1879768   5.5483737
  41.2692108  44.7727051  81.2284164  40.4199486  45.2132950  81.2578278
  41.1002884  43.9026108  81.5898514  64.4840240  21.2079449  44.6084824
  63.7072220  20.8046417  44.9959869  64.8884430  20.5066757  44.0976982
  50.8836861  20.9856129  86.1820526  50.8203545  20.0484123  85.9980011
  51.8175735  21.1389580  86.3254929  36.0794716  68.1447983   4.7354074
  36.6848640  68.2045135   3.9963772  35.3137436  68.6483078   4.4590464
  18.2240238  42.4191017  32.3425903  18.5376167  41.6926842  32.8812981
  18.7367573  43.1727371  32.6347733  75.6822052  62.4145164  54.1258774
  76.2290268  62.0560265  53.4268036  74.9784164  62.8738937  53.6677399
  58.6037788  41.5348282   3.9644551  58.8449631  41.4102669   4.8823590
  57.6498108  41.6125641   3.9758990  47.0304375   6.6811275  45.0633736
  47.1477432   5.8227291  44.6564064  47.3174324   7.3040075  44.3956261
  55.4557076  64.7848434  77.6859512  55.2350235  64.0072327  77.1732635
  55.1254234  65.5168381  77.1650543   1.1596956  69.6142883  14.8501663
   0.6990892  70.4170609  15.0943613   1.7720073  69.4611282  15.5697832
  76.1812973  36.9428978   7.2139254  76.3196793  37.8267174   7.5544372
  75.4851608  36.5811958   7.7623806  48.3619080  22.6296978  86.4223175
  48.8489761  23.0688114  85.7250519  49.0016098  22.0463276  86.8305893
  67.4050980  34.4103737  16.8504314  67.6507416  33.5059433  16.6557503
  67.8945465  34.6259117  17.6442947  37.7490501   8.1721983   9.2190228
  37.9336929   8.6539211   8.4127455  38.0554352   8.7494421   9.9184151
  27.5836029  48.2258072   2.3511472  27.3515625  49.1277351   2.5723164
  27.9014893  48.2744827   1.4495871  28.6224060   5.8069825  53.8759460
  29.2250347   5.1871467  53.4650002  29.1853657   6.3766403  54.4001579
  28.1820889  22.2934055  86.3089447  27.9325981  21.5355453  85.7801437
  27.8450871  23.0460091  85.8228912  58.8475609  62.3044281  23.8666115
  59.4245987  61.5505028  23.7447262  58.9887848  62.5696831  24.7754154
  29.4278641  62.8214302  79.9669647  29.1846428  63.3658485  80.7157516
  28.6834049  62.2316818  79.8477631  45.9755402  54.0126305  16.9717960
  45.4945984  53.7613029  16.1832771  46.2851944  53.1841240  17.3377495
  84.4784012  27.0327835  34.4287567  83.8297043  27.5333424  34.9236031
  84.1254272  26.9961891  33.5397682  71.6702118  15.1289949  63.3647118
  71.0754776  14.5653791  62.8698730  71.5258713  16.0041084  63.0047493
  60.3163223  28.1444359  66.2751389  59.9785042  28.2735920  67.1613770
  61.0806313  27.5797653  66.3900757   5.7094193  14.9981060  51.2581940
   6.6139655  14.6850882  51.2512550   5.4644375  15.0020733  52.1835060
  84.2988281  40.3928452  21.7566490  84.0757675  39.6557693  21.1881447
  84.1342545  40.0702782  22.6427059  27.8592148  61.5832253  31.1683617
  28.7502289  61.9066162  31.3015671  27.5394764  62.0685349  30.4077873
  81.6425323   7.2062082  23.4533081  82.3557663   6.8405285  23.9765759
  81.5099487   8.0846148  23.8097572   1.7100525  46.6879158  74.6947784
   1.6132432  45.7592010  74.9053650   1.3960798  47.1444855  75.4752884
  71.1219025  59.4318047  64.3919678  70.7178192  58.5873909  64.1921921
  72.0202713  59.3490829  64.0720901   7.0942683  47.6887093  61.9139290
   7.0286078  48.6435127  61.8975945   6.5314193  47.4223289  62.6408920
  36.0298653  -0.2506001  74.2078094  36.3330002   0.5651042  73.8090973
  36.1424332  -0.1137143  75.1484528   7.9151978  43.9239082  58.1843224
   7.7921739  43.0066872  58.4288673   7.4879827  44.4177589  58.8842010
  14.8245468  25.6435070  82.5716095  15.7314730  25.8890190  82.3887405
  14.5555048  26.2301044  83.2785339  56.3441658  70.6383286  45.8938255
  55.8824921  70.7861862  46.7191887  55.7183495  70.9011536  45.2189102
  27.8793221  65.4293900  12.3594351  27.2929974  66.1651993  12.5356226
  27.6114502  65.1107559  11.4974909  39.6293221  21.3221455   0.3718129
  38.9613571  21.6482201  -0.2312867  39.1629372  20.7036381   0.9340956
  63.1096306   5.6958308  89.2293320  63.2619400   5.8344998  88.2945557
  62.2548141   6.0936975  89.3943253   8.7158689  14.2716236  27.0936775
   8.2629480  15.0876989  27.3060818   9.2539883  14.4875727  26.3320827
  57.9402657  68.5151596  70.6185379  58.6539841  69.1319504  70.4560394
  57.1987190  69.0670242  70.8671036   9.9772787  27.9607430   4.7269645
  10.3022461  27.7110062   3.8619444  10.3587761  28.8240948   4.8860650
   9.4833765  63.0443192   3.2643943   9.4014606  63.3900642   4.1532035
  10.3637123  63.2993698   2.9883726  63.0973473   6.5702038  26.4850826
  63.9890976   6.9066100  26.5736485  63.1943436   5.6191111  26.5324821
  73.3073730  10.5444069  12.6324663  72.4591370  10.3249044  13.0178881
  73.1092300  10.7505817  11.7189779  48.5044441  62.8474846  46.5364761
  49.3697624  62.5220490  46.7845726  48.6752548  63.6984863  46.1329308
  68.4988708  32.0534592  34.0562057  68.4999237  31.8549271  34.9925919
  67.5722733  32.0756035  33.8171120  75.7266693   1.2968470  77.6059952
  75.8919144   1.9732268  76.9491577  75.9504242   0.4764603  77.1665268
  10.9930000  43.7996292  70.5788269  11.6277800  44.4621162  70.3060608
  10.8228884  43.9958878  71.5001221  62.1163864  63.6786690  26.8277130
  63.0192642  63.9954453  26.8539906  61.7433510  63.9485550  27.6669025
   4.1743822  16.6206455  49.6694679   4.5762529  15.8385572  50.0477142
   3.2363114  16.5048733  49.8206367   8.4761848  21.1966496  42.2484627
   9.0061941  21.9124813  41.8978844   9.1150599  20.5665474  42.5816956
   5.8714819  38.2884140  45.1314278   5.7317996  38.8859901  45.8660202
   6.6997418  38.5731277  44.7452202  58.1217079   9.7228518  25.3686428
  57.7625313   9.3340015  24.5711346  57.6933670  10.5764532  25.4328270
  15.6930666  13.3087673  84.2719727  16.2608452  13.4929762  83.5236893
  15.7257195  12.3570404  84.3688354  11.5341301  49.8403664  36.7562752
  12.1064434  49.5666313  36.0395050  11.5695744  50.7967567  36.7391815
  27.3595219  66.3259201  40.5536194  27.8706493  65.5166168  40.5576210
  27.6392040  66.7819138  39.7598457  69.3292389  12.5113182  52.4487267
  70.0668945  13.0568523  52.1757851  69.1961746  11.9060230  51.7192459
  32.2442474  62.6697044   8.7609329  33.0275536  63.0324593   9.1745405
  32.5591965  62.2960701   7.9378691  13.4636469  13.0859966   7.1165853
  13.6213341  12.8414650   8.0284901  13.2580366  14.0202103   7.1512451
  55.9588318  25.3579025  80.8353119  55.6354561  24.7606583  81.5098190
  56.1733208  24.7899017  80.0953140  81.2489471   1.3036796  73.4457474
  82.0396881   0.7818004  73.5821381  81.4588013   1.8660948  72.7001724
  62.0517807  54.3761330  24.5489807  62.2351875  55.3058281  24.4138432
  61.8973808  54.0321121  23.6691837  33.6891861  23.9755116   0.7375367
  34.6123314  24.2230358   0.7900842  33.3024864  24.3206539   1.5422558
  38.0278969   4.1557927   3.4085176  37.8296890   4.8648939   2.7968619
  37.2885742   3.5536106   3.3247945  52.2920609  56.3566933  16.3058834
  51.4721794  56.0859261  16.7190590  52.3104820  55.8806992  15.4756289
  86.3879013  38.0578842  23.3678989  85.4441605  38.1977310  23.4454918
  86.5539093  37.2601089  23.8701229  63.4225998  49.4192276  32.2671967
  64.2268143  49.8077660  31.9229507  63.7227745  48.7826843  32.9159927
   3.4527764  16.9048138  84.1366272   4.2763491  16.5162220  84.4315109
   3.5878234  17.0733681  83.2041168  41.3214798  51.2419624  72.8476639
  40.6547699  50.7574425  73.3344650  41.3365822  52.1066170  73.2580032
  33.6335907  58.7092934  15.7437162  34.2299347  58.5961227  16.4838505
  34.0213203  58.1867790  15.0416641  62.4091339  62.4106827  35.3755608
  62.0780640  62.5742798  34.4924622  63.2535744  62.8606300  35.4019432
  81.7224426   8.4664478  74.8539276  81.3667297   8.3993206  75.7400436
  82.5156403   7.9310069  74.8730545  40.2969704  22.4897308  18.2587662
  41.0783653  22.8492050  18.6788025  40.2846718  22.8929710  17.3907337
  66.7416687  34.6863747   4.0114174  67.5633850  34.4297295   4.4299173
  66.8450775  35.6212692   3.8338871  81.3718643  13.2352791  73.0285416
  80.5570450  13.5308867  72.6224518  81.1060257  12.9068737  73.8874435
  27.0613880  67.4285965  23.6624336  26.5090160  67.8053970  24.3473701
  26.4996586  67.4048691  22.8877544  53.5105515  35.8571854   7.2380848
  53.0294304  36.3416786   6.5672503  53.7381401  35.0279083   6.8176885
  70.6680908  65.0045929  52.5920906  71.4659348  65.5128708  52.4460335
  70.6711884  64.8184814  53.5310211  79.5264359  53.9367752  63.6177559
  79.7193756  53.1539459  63.1018295  79.3819809  54.6232452  62.9665070
  82.8897247   7.6663113   1.0451573  83.2527847   8.5480585   0.9618260
  82.8203506   7.5240860   1.9891865  58.2912750  38.8885612   5.3658485
  58.6045761  39.6973267   5.7707853  58.9658737  38.2411499   5.5708008
   4.8078470  42.5038948  75.4521561   5.1459160  42.6376724  76.3376236
   5.5354304  42.1038666  74.9758911  65.1658096  22.3690128  87.1580124
  65.1066666  22.4308262  86.2046432  65.1207199  21.4304371  87.3404236
  65.7392197  65.1260605  47.5838699  66.6423416  65.2825623  47.3079910
  65.4780045  64.3356552  47.1113663  70.9018631  23.8901272  30.2042332
  71.7416763  24.0075893  30.6482430  70.2946548  23.6431007  30.9017353
   9.0116434  11.4508734  80.3496475   8.4434996  12.2116709  80.4706116
   9.7233200  11.7692852  79.7943420  12.7367420   9.0050726  81.1185455
  11.8204985   9.0773592  81.3859482  13.2096672   8.8235407  81.9307175
  40.6752510  19.2425632  33.8392601  40.0118332  19.6976051  34.3579559
  41.4866600  19.3580799  34.3337288  32.9485855  63.0177879  64.3471603
  33.4409943  62.6164398  63.6311417  32.4506836  62.2953835  64.7298660
  48.7554283  50.6672630  81.8199234  49.4865761  50.5197754  81.2200089
  48.5270729  49.7939796  82.1384583  45.2351799  51.1062584  14.8140755
  45.1125984  51.9323959  14.3464193  44.3876076  50.9354782  15.2247858
  13.8806801  48.5962524  53.7780190  13.3390141  49.0051270  54.4530373
  13.5110188  47.7196121  53.6727524  54.7872543  69.4847717  56.3845253
  54.8416405  68.8046646  55.7131615  55.6861954  69.7994232  56.4800797
  26.6161690  63.7074013  68.9816437  27.1709919  64.3951797  68.6137238
  26.2168598  63.2883644  68.2192841  85.2712021  59.7365036  64.4540100
  86.0587082  59.6716690  64.9942474  85.4655457  59.2043381  63.6824760
  23.3781433   1.4944187  47.0752869  23.2970772   1.4586231  48.0283737
  24.0961571   0.8945174  46.8732834  75.0991364  14.5284815  39.0363159
  74.1687775  14.5433245  39.2609024  75.3818359  15.4385319  39.1264420
   7.4572883  49.0840950  17.0780392   7.5656729  50.0351067  17.0702229
   7.1174207  48.8889351  17.9513283  33.9546509  17.0976181  79.0693207
  34.2530441  16.1958790  78.9507523  34.7318497  17.6309471  78.9027405
  83.6815491  70.9299622  89.1351547  83.7562408  70.6300125  88.2292328
  82.7589111  70.8008041  89.3549118  19.2118416   3.1288311  66.1138763
  18.7179203   3.9301903  66.2873611  19.5972023   2.8973124  66.9589386
   0.0957731  12.5353279  18.6449547   0.0732967  12.8865271  17.7547951
  -0.1046457  13.2861662  19.2037983  18.3987293  22.8135204   3.8363919
  19.2476692  23.2442913   3.7365425  18.5488968  21.9163284   3.5385199
  56.2079315  50.2403297  66.3569717  57.1509819  50.0764923  66.3640366
  56.0352974  50.6818199  67.1885452   9.3330050  35.8755531  46.9280396
   9.7966709  36.6478577  46.6043282   8.4436302  35.9696541  46.5868797
  12.5463524  26.3246002  31.0983849  13.0558147  25.5258827  31.2352467
  11.6607971  26.0950451  31.3800392   1.7839534  31.1036587  88.9315338
   1.7606219  30.3478565  89.5184326   1.6939173  30.7292767  88.0551987
  82.9737167  55.7799034  24.7161446  82.4233170  55.4838562  23.9911289
  82.4538879  55.6014900  25.4998417  15.4975033   5.9980621  21.7347164
  16.2852879   6.2547140  22.2140465  15.2732220   6.7683358  21.2125969
  31.1996117  55.7125359  50.0349236  31.8758183  55.5978012  50.7026138
  30.6123085  54.9668083  50.1582069  76.7850342  66.5805664  27.5697727
  77.6222305  66.1480637  27.7379494  77.0233536  67.4690399  27.3051033
  64.0092316   8.7609978  68.3982315  63.6316452   9.3703060  69.0325851
  64.1340866   9.2855158  67.6073303  27.8622093  70.0278702   5.0529127
  27.1996880  69.3547592   4.8972926  28.3303318  69.7276001   5.8319702
  65.2338257  31.2179985  48.7938347  65.7848053  31.5512180  49.5020828
  65.0598526  30.3078175  49.0336990  11.5020437  41.6330147  49.1219711
  12.4079790  41.3275146  49.0752678  10.9909897  40.9290199  48.7226639
  69.4861145  64.2037277  19.7859192  68.5748520  64.2367783  20.0770054
  69.9976807  64.3184280  20.5867805  74.9683228  55.9659081  64.4307709
  74.9305038  55.1400337  64.9131927  74.0524521  56.2223206  64.3227081
  60.4341660  66.8299332  69.3383865  60.7453346  66.1211548  69.9014435
  61.1543083  66.9837418  68.7268524  78.0464706  32.5905457  15.3931026
  78.8017960  32.9866753  14.9585972  78.1205978  31.6563873  15.1979551
  59.7378922  21.8932934  77.6838684  59.8168869  22.6726112  77.1337204
  60.6216927  21.5264797  77.7078781  47.7163391   3.6830261  29.8996086
  47.8961067   2.8355458  30.3066635  47.1116486   4.1150408  30.5028858
  40.3779793   6.6378574  18.7462196  41.2570763   6.9141850  18.4872646
  40.4238281   6.5549421  19.6987190   0.6635148  65.9208298  20.4705601
   0.6496998  65.9783249  19.5151882   1.5254217  66.2555161  20.7182102
  67.1988678  59.3277702  11.8938112  67.3063431  59.0456123  10.9854794
  66.2538986  59.2984238  12.0435123   8.1697445  11.7391043  17.3240280
   9.0700874  11.7986488  17.0045452   8.2197342  12.0257587  18.2359295
  15.9338226  18.8658943  83.0686264  15.2875233  18.6152992  82.4085312
  16.1281242  19.7834454  82.8773651  47.2879524  23.0718460  76.5051117
  47.7223015  22.5150681  75.8589172  46.6761208  22.4871902  76.9524002
  31.7797852  60.7484207   3.2194855  30.9715328  60.6632690   3.7251637
  31.5698528  60.3681259   2.3665285  40.9769936  19.3349171  81.4383850
  40.5453682  19.6061687  80.6282272  40.2584648  19.1693268  82.0487289
  73.6159286   1.0088971  25.2142506  74.5721893   0.9780695  25.1849651
  73.3413086   0.1130773  25.0184917  74.8321991   9.8496399  46.4514694
  74.3761826   9.1239500  46.0252571  74.2293854  10.1431322  47.1346283
  79.7353897  53.7847748   0.1907509  80.6643753  53.7492905  -0.0371787
  79.6074753  53.0492096   0.7897612  11.7362995  54.6887016  34.2691383
  11.7377748  53.7526779  34.4693680  12.6607065  54.9369469  34.2778282
  61.2392197  64.2175217  17.7001305  60.4614525  64.0068893  17.1834698
  61.5561447  65.0417480  17.3307533  64.9048080   4.2643623  48.3065987
  64.2570114   4.9532790  48.1583252  64.5996323   3.8141387  49.0942497
  68.9802246  44.6309204  75.1172638  68.8571854  45.0173912  74.2502441
  69.6612701  43.9703407  74.9905930  25.6681137  29.5407619   1.0767466
  25.0311089  29.8077412   1.7394521  26.4930782  29.9298782   1.3670115
  55.6120872  53.0696144  33.4887848  56.0980034  52.6983871  32.7523689
  54.8787880  53.5321274  33.0830917  12.8656015  15.0427952  24.6895542
  12.8708639  14.0914536  24.7951641  13.2390490  15.1893702  23.8204842
  68.6504135  53.3980751   5.4776525  68.8186722  52.7842789   4.7626896
  69.1345596  54.1872673   5.2347317  53.8977203  41.5820351  65.4920883
  53.3306503  42.3519745  65.5352020  54.3672829  41.5834007  66.3262024
  33.9927521  42.3030396  18.6353836  34.2614059  41.4951668  18.1978931
  33.1152000  42.1148186  18.9681053  32.8347626  68.3051453  29.5345192
  32.8774605  68.8685532  30.3071690  32.5227509  68.8801422  28.8357639
  12.3029766  48.8868980  31.2688484  13.0027676  48.8123741  31.9176712
  11.5009775  48.7086411  31.7600250  59.7276230  12.8025637   7.2986121
  58.8215675  12.5431395   7.4659181  59.7655487  13.7225456   7.5601978
  52.0373421  26.6525555  52.8070488  52.7452087  26.5467091  53.4426231
  51.5783997  27.4437389  53.0892410  11.3097925  51.4389038  29.2657528
  11.7421904  52.2689362  29.0649662  11.9121275  50.9929543  29.8611965
  86.3531570  14.6314440  20.3461418  86.5423660  15.5679741  20.2883015
  85.4151840  14.5650883  20.1671772  52.1262894  15.6422977  23.4556465
  52.7162666  15.6884260  24.2079964  52.1783524  14.7314777  23.1659393
  45.3290558  25.1005859  83.8723068  45.9487724  25.5444603  84.4512405
  45.8107224  24.9787083  83.0541534  22.5158901  17.1324825  75.9144897
  22.5973282  17.3862267  74.9951401  23.3758869  16.7795029  76.1426163
  80.0180435  53.8955383  39.8747864  79.7676086  54.6741562  39.3775291
  79.1867981  53.5140457  40.1571350  21.7200909   4.6081882  52.6682281
  21.7781868   5.4866972  52.2926254  21.0440216   4.6800132  53.3420258
   4.5511179  16.7136440  81.4588013   3.6712408  16.7112713  81.0819092
   4.8828197  17.5949764  81.2871628  22.0802879  34.7702217  26.2467537
  22.9864292  35.0665627  26.1611843  22.0536728  33.9404144  25.7703686
  43.8380470  50.7814407  88.1673279  42.9311066  50.9967918  88.3848495
  43.9185066  50.9947472  87.2376709   2.7783704  69.7079315  40.0245018
   2.7409861  69.7240067  40.9808388   1.8616830  69.7017136  39.7490463
  19.2880878  36.0469093  31.0784492  19.6423588  36.9259834  31.2124329
  19.7698689  35.7068710  30.3244648  48.5446854  36.9552116  80.4225693
  47.8465958  37.3996811  80.9035568  48.1913757  36.0851364  80.2371597
  45.0726585  15.3383865  12.9664621  44.2344513  15.7731504  12.8095665
  44.8386993  14.4317932  13.1654148  38.0507851  18.3445282   4.2841511
  38.8588142  18.0701904   3.8504956  37.5709839  17.5299530   4.4341240
  12.1014576  36.9416733  34.9097633  12.8387861  36.3344002  34.8481483
  12.4470882  37.6893845  35.3973083  83.6003647  11.0806513  74.5518494
  82.7546692  11.2299604  74.9746170  83.5047379  10.2329779  74.1176376
  73.9504700  58.1567459  59.5061798  73.5369263  57.8900185  58.6851616
  73.5328751  57.6114807  60.1729088  37.2953300  19.3917637  13.9404831
  37.3590775  20.3427525  13.8522387  36.3885193  19.1900616  13.7097321
  84.1060104  63.0073586  69.6057892  84.6948700  62.7402115  70.3115616
  84.2864532  62.3901329  68.8967667  36.2585793  58.7445297  83.3528671
  36.1000900  59.2991028  84.1167755  35.6465721  59.0673256  82.6914444
  74.7746658  39.8921013  88.2935715  74.5867310  39.9152641  87.3552933
  74.2396164  40.5948753  88.6624374  40.4448814   4.7160530  28.5121098
  39.4913445   4.6608033  28.4493141  40.6440887   5.6344357  28.3301125
  47.6173630  65.7814331  64.4871826  48.1083488  64.9804916  64.6706696
  46.9991302  65.8552475  65.2142105  56.0618973  46.1283035  19.7839336
  55.4179077  46.7900124  19.5316448  55.5932083  45.2970810  19.7088966
  39.3135414   1.0500282  57.9206161  38.7644157   0.3902454  58.3441544
  38.7197571   1.7805605  57.7474823   6.5898933  16.2921944  22.5558910
   5.9120646  16.7169876  22.0302181   7.4038672  16.7175503  22.2861671
  18.9187489  47.7401505   2.1236165  18.6439667  48.3151665   2.8378146
  18.1023197  47.3751678   1.7823501  68.4417648   2.6548913  45.4358521
  68.6381531   3.2291226  44.6956367  69.1576920   2.0195718  45.4426613
  68.1473465  62.1612129  12.1051912  67.9953461  61.2362289  11.9114561
  68.0489655  62.6019974  11.2612343   9.6633825  67.7592087  79.3284225
  10.5352011  67.5815659  78.9754333   9.4335432  68.6195068  78.9772949
  26.0088463  53.3991623  23.5438671  26.6989155  53.8725433  24.0085659
  25.2858028  53.3546753  24.1695366  22.5608673  36.4655380  16.8169804
  22.8280678  36.3669777  17.7308292  22.1036053  37.3060379  16.7904549
   5.1173615  43.5726089  38.5885353   5.6067009  43.0514946  37.9519653
   4.9531088  44.4033699  38.1423416  79.1012497  32.1752586  80.9931030
  78.5948257  32.9868011  81.0272598  80.0139389  32.4604797  81.0364380
  39.0510635  20.7861805   3.3570485  38.1783409  20.5247097   3.6506796
  39.4820290  19.9636650   3.1247399  64.4953842  16.4141693  29.3163147
  65.1734467  16.3192387  28.6473923  63.8763466  17.0413208  28.9425488
  33.7027779  53.6666794  23.2836971  34.5996628  53.8956070  23.0399227
  33.6391449  53.9005775  24.2096958  53.0262413  12.3664417  85.7817078
  52.8975372  11.4244413  85.6707993  52.3880577  12.6184311  86.4491272
   6.4498038   5.0058818  80.7877884   6.6521878   5.4532843  79.9661407
   5.7199402   4.4257183  80.5711288  24.7080975  10.3738394  14.8727713
  24.8130531   9.6671486  14.2357426  23.7960453  10.3077898  15.1556683
  70.8710480  19.7026806  87.4999237  71.2908173  18.9050331  87.8220825
  70.2756577  19.9609413  88.2035141  37.8432465   7.6679568  24.0377483
  38.6816177   7.4164500  24.4251842  37.7450981   8.5939312  24.2594910
  80.6842499  66.4283295  44.2429771  80.1492310  66.0985031  44.9649162
  80.2799759  67.2633362  44.0072937  56.3635063  51.7826118  88.0325012
  56.4661751  51.7368889  87.0819244  56.2672234  52.7166481  88.2183609
  57.9561043  31.7552929  25.3904858  57.2450638  31.6995106  24.7520962
  57.5550041  31.4935188  26.2192326  57.5176392  52.3908958  78.3147049
  58.1911697  52.1754990  78.9598312  57.2719955  53.2936058  78.5171890
  78.4976044  65.9514999  72.9616547  77.5645523  65.7716751  73.0770111
  78.8256683  65.2037506  72.4621811  12.4353456  21.4027500   2.6882343
  12.5115223  21.0091248   3.5574222  13.3239775  21.3741245   2.3336258
  77.3926239  41.5442581  48.6410446  76.4577866  41.7497482  48.6497574
  77.6412811  41.5206375  49.5650826  68.6051712   7.3725967  85.9511566
  69.2824860   7.9011617  86.3731689  68.3187027   6.7629604  86.6312332
  33.1743584  24.4572430   7.4587884  33.2675819  24.0326576   8.3115883
  33.5110168  25.3430023   7.5941491  67.8307495  69.8652115  56.0063171
  67.3631668  70.6833420  56.1744461  67.4235916  69.2310104  56.5964394
  84.6982040  43.1022110  28.8051739  85.3328629  42.6617546  29.3703632
  85.1807098  43.2827568  27.9984360  73.7425690  56.4801292  80.1107864
  73.7492752  57.3886757  80.4120026  74.5678329  56.3789330  79.6365204
  14.0562868  43.4335747  88.0700912  13.2669106  43.0967407  88.4939575
  13.7554121  44.1947174  87.5737457   3.7987330  46.9659576   1.6632608
   2.9399796  47.2008896   2.0148010   4.3284683  46.7700577   2.4360716
   6.0653224  62.5252342  13.5288630   6.6468582  62.8904533  12.8620319
   5.1844277  62.6679420  13.1826096  80.8511963  59.4686661  17.8936157
  80.1499634  60.0862732  17.6861153  80.3963089  58.6821404  18.1947498
  85.5164185  71.2779617  62.1367416  86.1930923  71.1816254  61.4666176
  85.9979858  71.2862320  62.9639397  72.6291428   8.7870178   4.9770913
  72.5471039   9.3832293   4.2327571  73.5644302   8.7853842   5.1807079
  12.5225277  10.0440989  39.1131287  12.3232212  10.2355022  40.0295753
  12.8809824  10.8626242  38.7699699  55.3384361  64.4227676   6.8620996
  55.2697716  65.2837524   7.2746763  54.4313087  64.1517181   6.7210894
  55.8080292   0.9836153  68.5124130  54.9851494   0.5002124  68.5860596
  55.5720787   1.8897814  68.7109604   0.4019225  65.2514572  44.2673187
   1.1532432  64.6626587  44.1961823   0.7128345  65.9712143  44.8164253
  27.3620148  68.3258667  88.5134583  27.1303997  68.9072952  89.2377014
  27.9221497  68.8582611  87.9486237  39.1386032  30.4053097  14.1901550
  39.5898247  29.8173447  14.7959013  39.3185654  31.2823029  14.5288744
  36.2472801  30.8070316  24.9984665  35.9542580  31.4827023  25.6098919
  36.8463860  31.2626686  24.4071140  51.6462555  62.8005714  63.6923904
  52.1951942  62.8389893  64.4756012  52.0729141  62.1519890  63.1324501
  23.8285160   6.1466250  48.0334740  23.2102566   6.8679628  48.1503448
  23.7810612   5.9393334  47.1001968  13.1993370  45.5488739  13.5414829
  12.4748592  45.8682976  14.0793800  13.8186340  45.1775970  14.1698580
  21.9869442  52.8396187  36.5594101  22.0938053  52.6070786  35.6370544
  21.1359577  52.4743004  36.8014793  16.3444614  20.2230606  28.0786610
  17.1124325  20.0819225  28.6323166  16.5653172  20.9929295  27.5544872
  75.9026794  48.2438927   3.1430094  75.7298737  49.1722031   3.2998743
  76.4143219  48.2288475   2.3341668  30.5026665   0.1077330  65.3471375
  29.8767128   0.8208255  65.2209930  31.3577671   0.5097890  65.1942139
  67.5636368  33.3195648  63.3509216  68.2981873  32.7218781  63.4903412
  67.2333374  33.0943375  62.4812050  70.6524200  12.0815096  46.4180984
  71.2808762  11.7867432  47.0771866  70.0547791  11.3417702  46.3092842
  27.2918186  46.2329140   4.7027726  27.0110779  46.1272964   3.7937832
  27.3767433  47.1792526   4.8188033  27.5858517  60.5545082  36.5988960
  28.1022167  60.0906296  35.9397926  26.9605236  59.9026642  36.9155960
  30.9592628  61.9693146  21.2911243  30.8066101  62.6460724  21.9506111
  31.2471046  62.4510994  20.5157127  73.2214661   1.9949505  16.3129654
  73.5715866   1.1433475  16.0513954  72.7689590   2.3175063  15.5335894
  48.2550278  14.8818798  82.9206772  47.9029160  14.7938309  83.8063965
  47.4825821  14.9865332  82.3651581  66.6308060   3.1721580  60.6082153
  65.9210358   3.6836889  60.2198944  66.6019669   2.3338697  60.1470528
  21.3898869   3.0459342   5.8253570  22.2577934   3.3708413   5.5857658
  21.0491161   2.6567082   5.0199933  35.5062943  65.5678635  39.4464111
  35.5887642  66.4743881  39.1503563  36.1327324  65.0826111  38.9094505
  37.0628700  64.0366745  37.7398300  37.9942894  64.2568741  37.7540779
  37.0002556  63.2996864  37.1322479   5.1345410  36.2698784  42.9275475
   4.9104152  36.9011765  42.2438393   5.5628881  36.7927895  43.6052780
  25.8389397  44.5467110  76.7487946  25.0996876  44.0225220  76.4406357
  26.3706551  44.6940308  75.9666061  62.3476372   2.8162756   0.2672662
  61.4626923   3.0852048   0.5137979  62.8734207   3.6110084   0.3577311
  23.8942547   9.0153255  79.2108536  23.3879642   9.2527075  79.9877396
  24.6486721   9.6042318  79.2274551  25.2970047   9.5098200  71.9243698
  26.2433357   9.4466791  71.7951355  25.1416245  10.4363222  72.1078949
  15.8410130  28.7656422   7.2335138  16.3141346  27.9335442   7.2339463
  16.0906715  29.1835442   8.0576859  65.0526657   8.2443686  47.7929878
  64.3916702   8.4884672  48.4408531  65.8786621   8.5526676  48.1656952
  42.0303574  42.5338974   4.3440304  41.9848747  41.5799217   4.4079919
  41.3652191  42.8470306   4.9570303  81.1119537  47.5834160  76.2786179
  82.0457153  47.4245110  76.4167404  80.9436188  47.2658730  75.3914490
  80.6709595  13.8741007  48.3036652  81.5418549  14.0951357  48.6336823
  80.5886765  14.3738089  47.4914131  71.5618591  20.7250156  46.2748833
  70.7916794  21.0247612  45.7919769  71.8367767  19.9301949  45.8178177
  38.6581078  61.8224182  53.1161461  38.7788620  62.6757278  53.5326920
  37.7253265  61.6347313  53.2206497  79.4447632  52.9258995  84.3502731
  80.1808777  52.5085602  84.7976990  79.6762466  53.8542862  84.3229904
   3.9227507  57.4680328  71.3765793   3.9403653  56.7594223  70.7333069
   4.0869851  57.0351372  72.2143478  75.0891342   5.3279848  23.2948437
  74.4235611   4.9599671  22.7136307  75.5264816   4.5645609  23.6718636
   6.0788980  33.4706802  76.3402481   5.4000778  33.7820320  75.7415085
   6.7999454  34.0900917  76.2277679  83.3155823  18.7690659  73.7871628
  83.8015671  18.1827393  74.3670502  83.9074707  19.5072136  73.6421127
  68.5319366  30.1298714  42.9863358  67.7256165  30.5961666  43.2068863
  68.9180069  29.9053535  43.8329620   0.9936077  25.5918598  25.0456028
   1.9275817  25.6053238  25.2547512   0.9598858  25.3744621  24.1140270
  22.7814598  61.0464439  76.0383606  22.5459270  61.5779953  76.7987671
  23.3514881  61.6124077  75.5177994  56.5881119  21.8863373  66.7295837
  57.4038429  22.2167816  66.3532562  56.7737503  21.7990646  67.6645432
  63.2201424  17.8977108  86.6692886  63.9889221  17.3283062  86.6378403
  62.5513000  17.4246559  86.1742172  81.3415604   1.5294523  14.2607851
  81.0879745   2.2503042  13.6843338  82.0595016   1.8836110  14.7855368
  84.6554794  54.6939316  63.7232552  85.5033417  54.8283730  64.1466675
  84.0135422  54.9433365  64.3880539  51.8334808  35.8018646  29.5788879
  51.7008362  36.7244377  29.3609467  51.4347954  35.3242073  28.8514805
  36.6731644  43.2452774  84.3700027  37.5041237  43.6989594  84.5111084
  36.5402260  43.2780876  83.4226456  44.4564133  11.2298374  28.2643738
  43.5281105  11.1497488  28.0451241  44.7372665  12.0337553  27.8272572
   2.8274672  -0.0443397  60.5111084   3.4803808   0.1275069  59.8325806
   2.5211954   0.8235724  60.7740898  24.4699707  14.0761251  61.5513229
  24.0126266  13.5663767  62.2200699  25.1201305  13.4720535  61.1926804
  29.1659374  55.3125992  58.0962296  29.2613773  56.1666031  58.5178871
  29.8206577  54.7601318  58.5232620  34.1292686  36.3748093  88.1673203
  33.2942352  36.4895668  87.7136917  34.7874947  36.4273262  87.4743500
  14.0114975  56.8690681   3.4841244  14.6416845  56.1520844   3.5550280
  14.5234175  57.6057549   3.1502650  43.1129532  27.0290871  19.5642033
  43.7957001  27.0813885  18.8953609  43.4058342  26.3322449  20.1514549
  17.9337006  61.2817802  48.9908943  17.1518955  60.8859367  48.6057739
  17.6969662  61.4392700  49.9048882  53.1834908  29.7406425   6.8217964
  54.0449524  29.6940079   7.2364550  53.1481934  28.9697094   6.2555385
  45.5965042  57.4473076  77.6837540  46.0311089  58.2493439  77.3937759
  46.3069992  56.8146286  77.7893219   1.0793364  21.6486053  12.9716244
   0.5077453  20.9279404  13.2364979   0.6311437  22.4358521  13.2808151
  47.6473465  46.3309097  77.3212662  48.1442909  45.8153191  76.6860962
  47.2143517  45.6791077  77.8725357   9.7419806  57.4925728  27.9557381
   9.0084448  56.9431572  28.2319603  10.5164261  57.0512962  28.3046532
  16.1666088  41.8077431   6.1862841  17.1097050  41.6440353   6.1862454
  16.0542660  42.5608444   6.7663226  46.0074425  64.2803879  25.8812523
  46.3308029  64.3820114  26.7764282  46.4883270  64.9366226  25.3769379
  26.3127575  24.1173496  12.1822691  26.2473412  24.3568172  13.1067200
  26.1073265  24.9245625  11.7106371  81.0481644   7.9851360  63.7311668
  81.7708206   7.3744249  63.5861397  80.3830643   7.7248635  63.0938759
  56.3106804  55.1224937  59.2767487  56.5385933  54.2550583  58.9423141
  56.2845879  55.0134315  60.2273560  10.0521097  22.1464691  19.0905533
   9.6208897  22.0214367  18.2451859  10.9873896  22.1173115  18.8889790
  57.9015732   3.4732776  33.1001701  57.9880562   3.5076790  34.0528336
  58.8006058   3.3965018  32.7806740  72.0832062  35.9055061  25.4171505
  71.8361588  36.7893906  25.1452198  72.9565811  35.7764511  25.0473061
  60.5013237   2.7792654  73.8502960  60.0431747   3.5698822  73.5652390
  59.9384956   2.0599067  73.5639725  60.1776161  21.9705772  64.8341599
  60.2374268  21.3356781  65.5479965  61.0759392  22.2770119  64.7102737
  46.1614723  56.8433037  67.4920654  45.8100510  56.0373688  67.1136475
  46.9758072  56.9975281  67.0132065   0.3713536  18.6308594  72.0285339
   1.1175330  18.4033813  72.5832443   0.6155267  18.3167057  71.1579514
  80.7979050  69.4781494   1.0224024  80.7105103  68.5278625   0.9479572
  80.6294479  69.6625061   1.9464519  84.9243317   6.6479750  13.2215767
  85.7382355   7.1418247  13.3210649  85.1202240   5.9965663  12.5481339
  85.6550598  19.1464500  78.3178940  84.7478714  18.8438435  78.2769928
  86.0033646  18.9782486  77.4423294  69.0548706  25.8578777  37.4986343
  69.6538315  25.7999992  38.2430344  69.1823578  26.7428570  37.1568871
  65.4959793  51.9868202  44.9976425  65.2183533  51.9783401  44.0816307
  66.1636963  52.6714134  45.0392113  16.8656673  18.2575073  26.2606850
  17.5672569  18.4885502  25.6518974  16.7082996  19.0588360  26.7600269
  50.1175003  26.4344826  86.9804230  49.7272873  27.2374325  86.6351166
  50.4176254  25.9611206  86.2044830  67.0252686  34.5223808  77.8305893
  67.3281174  35.3556824  77.4698715  67.7723236  34.1916428  78.3293304
  16.7925949  54.3938637  37.0977745  16.2701244  55.1951637  37.1320572
  17.0508671  54.3154449  36.1794167  73.2074356  64.2375031  79.8447495
  73.8439407  64.3205719  79.1346817  72.3608856  64.1786194  79.4018860
   6.8096671  63.8877144  58.0884476   6.4011836  64.7532730  58.1019402
   7.6863875  64.0310440  58.4448891  78.7916870  27.9857883  28.0825710
  78.9764252  28.2282524  28.9899387  78.2221298  27.2194958  28.1506329
  41.8044434  54.3782196  21.8367310  42.6067772  54.4747887  21.3237343
  41.2062416  53.9044609  21.2588539  56.0434685  30.2251987  32.6359673
  55.4691010  30.7556210  32.0837097  55.4565392  29.5995846  33.0606461
  41.5277863  29.5303268   9.4421234  41.3149490  30.0169163   8.6457796
  41.5178146  30.1899223  10.1357126   4.7728462  36.8664551  87.0169373
   5.5198212  36.4533424  87.4500656   4.0113440  36.5620575  87.5105896
  72.0237122  68.0258408  20.0328178  71.9198990  68.1377487  19.0878677
  72.9290848  67.7347870  20.1415005  46.5263710  26.0807133  26.5135956
  46.1020813  26.9179497  26.3258514  47.2733307  26.0513592  25.9157486
   2.4287527  14.9482307  19.7894402   2.3320427  14.9321699  18.8372746
   1.5683349  14.6925573  20.1219215  71.7158051  15.6462002  53.1132011
  71.1092148  14.9057665  53.1066055  71.1708298  16.4002857  53.3381271
  80.1162186  50.4033470  80.9393616  80.8886642  50.3150139  80.3810120
  79.4211578  49.9527550  80.4596786  49.0170822   0.4790507  49.7652779
  48.6460953   0.3287478  50.6347694  49.3644714   1.3701533  49.8038673
  28.1273441  14.7409697  30.3957939  29.0101528  14.3929520  30.5213451
  28.1947784  15.6618347  30.6481686  25.7000332  68.2514877  46.5862923
  25.8748798  68.2038422  47.5261803  25.2981663  67.4089737  46.3744125
  14.2624588   2.7403476  34.1079559  14.9300423   2.1504991  33.7577515
  14.4406681   2.7726762  35.0478668  21.5906563  61.6508217   6.8307424
  21.5388508  60.9107246   6.2259269  22.4130554  62.0862694   6.6065140
   8.6058931  17.8091297  21.3860722   9.1933241  18.5415878  21.5722504
   7.8986111  18.1947727  20.8690968  48.1362991  18.6870899  69.1088638
  48.8137169  19.3570766  69.0169220  47.4577484  19.1038666  69.6399918
  68.4273758  64.4681702  73.4889069  68.6460342  64.6048508  74.4107208
  68.2718811  65.3484268  73.1465607  31.2973976  18.7665997   1.0347259
  31.0689335  19.6306210   1.3775170  30.7723846  18.1567764   1.5530968
  17.9423733  21.0260429  81.8265305  18.2443199  21.9207783  81.6699829
  18.7303028  20.5496979  82.0882416  47.7759552   2.9952691  79.6017685
  48.1683960   3.2321420  80.4420776  46.9942017   3.5440831  79.5393295
   0.5907450  68.9587479  84.7033005   0.9477042  68.5625229  85.4981689
   0.2821493  68.2165833  84.1835022  11.4370136  58.6550751  82.9576263
  12.2413473  59.0565758  82.6288757  11.2710371  59.0979652  83.7898102
  18.9224854  26.8626595  72.3991928  18.2225990  26.2181664  72.2942123
  19.7174416  26.3388729  72.4988174  55.9775696  25.2885323  22.3102932
  55.6754341  25.0060234  21.4470806  56.4494476  26.1044979  22.1436749
  83.9179230  57.3850975  74.1766815  83.9894104  57.2460060  73.2323456
  84.1817322  58.2962036  74.3052368   4.5592561  68.8918304  27.3607197
   5.2415795  68.6473236  27.9859257   3.9066834  68.1953888  27.4338493
  53.2493210  53.7751999  55.9686661  52.8566093  53.5064468  56.7991943
  52.5965385  53.5421143  55.3085327   5.1714268  37.3732910  26.8681831
   5.6245956  36.5388908  26.7471676   5.3473916  37.6116104  27.7783871
  15.8407869  24.2054539  61.5336571  15.6552420  23.3667927  61.9560928
  15.4817305  24.8600063  62.1327171  76.2676315  71.4211044  80.1781769
  76.1917953  72.1948395  79.6197739  76.8945389  70.8583069  79.7237854
  13.3515120  28.5152187  29.8626022  13.4070311  29.2846222  30.4293175
  12.8707628  27.8700275  30.3811016  60.0875359  61.4886284  67.8911743
  59.2150383  61.2625008  68.2134247  60.3988762  62.1624565  68.4955368
  20.9638672   5.6056981   2.9495933  21.6253891   4.9750271   2.6652095
  20.1345081   5.1340442   2.8725150  53.3682365   5.7239108  72.0872955
  52.8198471   5.5727563  71.3174591  52.9797401   6.4889188  72.5116348
  59.8547821  12.5585089   3.4428840  60.7404518  12.2501984   3.2511308
  59.9380569  13.5108156   3.4919503  12.2952700  49.7666588  57.8607368
  11.9208364  50.3536758  57.2038956  13.2413969  49.8383408  57.7344933
  12.7862997  61.3965187  22.7089920  12.9820232  61.2360725  23.6321297
  12.2281837  60.6627579  22.4514427  41.2096138  27.1360016  14.9777021
  40.6294212  27.3527813  14.2479000  40.7483521  26.4451790  15.4533453
  62.4105949  32.9811478  14.3755627  61.5275497  32.9474258  14.0076914
  62.2873192  33.3152237  15.2640610  63.0317497  71.1796722  39.7502327
  63.3657036  71.0314407  40.6349564  63.5758743  70.6236496  39.1925583
  16.0153751  24.8215408  67.1544418  16.5718212  24.1245861  66.8068008
  15.7862291  24.5277424  68.0361481  57.9539261  39.3932991  31.3020573
  57.5805779  39.1905136  30.4443150  58.5205460  38.6473999  31.4990501
  78.8470078  68.5999756  10.4766359  79.7585602  68.8237457  10.6643429
  78.3363266  69.2413788  10.9706335  13.4767408  14.2847786  34.3116226
  13.0192814  14.8708668  33.7087440  13.5146856  14.7706633  35.1354599
  71.4341507   7.3287539  59.1026039  70.8080139   6.8283587  59.6258545
  71.1302109   8.2341576  59.1666107  56.8283730   4.4555001  83.9128723
  57.0651550   4.4079223  82.9866409  57.5507469   4.0220451  84.3673248
  33.9797821  60.5698624  76.3963699  34.8991814  60.7093430  76.1694641
  33.6968002  59.8579330  75.8225174  40.9508286  50.1803627   7.2364116
  40.5012321  49.8552284   6.4564233  41.0386734  49.4117470   7.8000998
  59.1789131  31.9927254   1.4302417  58.3029709  31.7625694   1.7400609
  59.0565376  32.8143311   0.9546187  73.6522675  66.5995636   7.3983035
  72.7436218  66.5469437   7.1019516  73.5956955  66.5571976   8.3528910
  20.5459251  49.1544647   0.4979589  20.9919338  49.7691650   1.0805842
  19.7971992  48.8428307   1.0064129  63.0664101  50.8791237  75.4626465
  62.3639297  51.3599243  75.0249405  63.0990257  51.2519836  76.3436356
  67.9553452  28.3660069  13.4047384  67.0699615  28.7108192  13.5206404
  68.5127945  29.1434498  13.3721762  48.1885948  42.6872864  19.5641136
  48.0462418  42.8583450  20.4950848  49.1320419  42.7938614  19.4425297
  17.0136547  70.1365356  47.1374893  16.2655907  70.7328568  47.1696587
  16.9554596  69.7256012  46.2749481  11.3155613  13.3702955  62.4712601
  11.6360750  13.1729364  61.5911713  10.7001200  12.6635456  62.6661110
  12.9466848  28.1044941  72.1275864  12.9722404  27.5874214  71.3224716
  12.2500801  27.7037735  72.6475906  78.3235703  48.3379478  73.1695938
  79.0066528  47.8630180  72.6962280  78.6150818  49.2496262  73.1598740
  49.2914772  29.1511879   4.7987309  49.7910652  29.8857994   5.1550860
  48.3840294  29.4557648   4.7996984  21.4312477  10.4508142  49.6135635
  21.8357468  11.3162031  49.6745033  20.9338684  10.3611326  50.4264603
  22.3602543  66.5633926  49.3267632  21.5489655  66.2711716  49.7422714
  22.1372280  66.6491776  48.3998680  66.0916290   9.8624983  23.7646770
  65.7295685   8.9764128  23.7654228  66.7450790   9.8548203  24.4640846
  27.5146942  61.1975060  71.8130722  27.1485062  60.3149567  71.7560883
  27.4786777  61.4120293  72.7452316  14.9411116  38.5135498   3.8368783
  14.5046644  37.9822044   3.1709831  15.8663568  38.2803955   3.7607787
   3.8303440  32.3194809  31.1549568   3.1945093  31.6690006  30.8569260
   3.5731325  32.5100365  32.0570450  39.0082893   2.4583488  87.4727249
  39.8088417   2.9519746  87.6507111  39.2905197   1.7406328  86.9057465
  25.3851242  51.2250061  77.9254303  24.7420406  51.9261589  78.0306091
  25.5176678  50.8867531  78.8110123  14.2004414  62.7154541  33.4372826
  15.0206289  62.8990669  33.8953362  13.5335340  62.7335548  34.1236801
  67.1677017  25.6489220  61.2936401  68.0804520  25.8524380  61.0894241
  67.2129440  25.1163235  62.0876961  44.7716942   2.3871052  52.6847610
  44.3306274   1.8756222  53.3630524  45.6910515   2.3957427  52.9511032
  26.7320137  57.0005569   0.8795835  27.1461678  56.1502876   0.7321030
  27.3897686  57.6385612   0.6029199  46.4814758   0.4974441   9.2580109
  47.2601967   0.5252558   9.8139362  46.8089218   0.6820436   8.3777075
  34.5446777  48.4876976  18.2361469  34.8677826  49.1402512  17.6148510
  33.6542397  48.2966576  17.9414272   3.4764562  27.4714375  11.2465363
   3.6949329  26.7907600  11.8830729   4.3238535  27.7821598  10.9277859
  28.1758175   9.5744457  70.8940659  27.4644756   9.6423635  70.2571869
  28.8986645   9.1816006  70.4047852  31.1477184  69.9696198  42.1091270
  32.1046867  69.9599380  42.1278648  30.9277897  70.6202469  41.4423828
  19.1529427  53.1073837  22.5948639  19.5627880  53.4238319  21.7898045
  19.3684864  52.1751900  22.6229477  41.1391296  25.5927429   3.0724127
  40.7692871  25.2441425   2.2612860  40.6436081  25.1593151   3.7672718
  24.2651291  27.1964817  60.0078697  23.7986984  27.9388943  60.3919220
  25.0999546  27.1702976  60.4754295   3.7170579  57.2046127  10.1266775
   3.5637839  57.0227051  11.0538502   2.8513739  57.1393204   9.7234898
  74.8388824  56.0879059   1.3293058  74.9649811  55.4684067   0.6105902
  75.6898117  56.5145721   1.4298222  66.0530701  61.5733147  72.6081772
  65.9725800  60.6643791  72.3190536  65.1825409  61.9465714  72.4700394
  58.8850517  64.8145981  77.5517120  58.6177521  64.1348953  78.1704102
  59.3029747  64.3359299  76.8358536  48.3581924  71.2226868  31.6739178
  48.0286598  71.3977661  30.7924500  47.8147392  70.5027390  31.9941769
  50.1719093  10.2772322  15.1871109  49.2759476  10.2308769  15.5207891
  50.7015610  10.4988565  15.9529972  60.4557304  67.5183182  23.9731007
  60.9733429  67.0170593  24.6032104  59.8155098  66.8914032  23.6364555
  61.7497063  50.0377350  86.2525101  61.6625328  50.3744354  85.3607330
  60.9058685  50.2261314  86.6632080  85.4981537  55.9446449  16.3774204
  85.9593124  56.7823715  16.4195480  85.9147873  55.4077187  17.0514793
  58.6550674  19.7768459  31.7653446  57.7151070  19.9375591  31.8482876
  58.7397346  18.8242855  31.8064632  10.0644617  28.7691193  25.2368488
  10.6944914  28.4387760  25.8772926   9.2359304  28.8090343  25.7145252
   5.1910973   7.3365293  59.0614128   5.2931767   8.0710382  58.4561768
   5.9635396   7.3813872  59.6249275  23.2698307   5.6933932  33.4588737
  24.1402321   5.5441637  33.8281479  22.8266830   4.8489661  33.5413132
  29.7718849  61.6423645  37.8578720  29.1862049  61.2026405  37.2415543
  29.3387737  62.4746094  38.0476532  37.5994301  35.8223343  77.7234421
  36.9448395  36.0319595  78.3896255  37.3913841  36.4036217  76.9919662
  26.0541420  70.0465012   1.2017752  25.2641392  70.1173706   0.6659547
  25.8791351  69.3123856   1.7905699  16.3585052  26.1237869   6.1074686
  15.4648962  25.7838573   6.1537585  16.9098625  25.3426437   6.0621910
  19.7683125  32.7983322  76.3252182  20.4616947  33.3889618  76.0309219
  19.1248360  32.8125648  75.6167221  12.3879271   4.9468122   6.8063855
  13.3250732   5.0645275   6.9617319  12.0056171   4.8874369   7.6819110
  78.3799820  36.4512253  73.3843307  79.0176315  36.1095505  72.7575302
  77.6186066  36.6796112  72.8510513  34.4276772  30.6315002  88.8592453
  34.5547333  29.9860630  88.1639023  35.2211418  30.5699329  89.3910828
  17.0591850  68.8544006  61.0340004  17.9886742  68.9909592  60.8506088
  16.9888096  67.9205627  61.2320595  72.6324081  63.0615654  67.9995804
  72.0035095  63.2478943  68.6967163  72.0914230  62.8841171  67.2301178
  73.6698227  35.4118767  54.1567955  74.5044861  35.1211166  53.7893333
  73.0300674  34.7810059  53.8267288   8.0467300  36.0994644  17.3584614
   8.3938198  36.9583893  17.5993061   8.2494974  36.0117645  16.4271030
  86.2421341   5.3714886  64.1532288  86.0202408   6.2691112  64.4007492
  85.6909943   4.8252821  64.7137070  83.3336945  15.0936203  74.0514297
  82.9212112  14.2435684  73.8981094  82.8103256  15.7097301  73.5388565
  57.3639107  16.7617188  66.3797150  58.2227211  16.9156380  66.7733994
  56.7668686  17.3148174  66.8835526  43.0791893   9.1986113  50.8230515
  43.2012711  10.0980358  51.1269646  42.5400391   9.2826309  50.0366096
  10.3169518   5.6766906   2.4467814  10.8709316   6.0597463   3.1269331
  10.3019791   6.3343964   1.7514894  76.6890488   1.5463864  70.5738525
  75.8502655   1.3635750  70.9972305  76.4834747   2.2033572  69.9087448
  48.4276276  26.9469090  24.7524338  47.6436424  27.0103893  24.2069378
  48.8899536  26.1780357  24.4187870  69.0328293  10.3833981  83.9694061
  68.5941086  11.2217588  84.1139984  68.9965210  10.2543898  83.0216370
  32.1542435  10.6767044  74.6035233  31.6615639  10.2202072  75.2855148
  31.5849743  11.3997269  74.3400803  65.5372162   1.9953103  31.9992847
  65.0196075   1.3324487  31.5422020  66.1288986   2.3402569  31.3305836
  66.7736664   7.3749695   8.5844717  67.1928101   6.9136271   7.8580360
  67.3646469   8.1023531   8.7791166  31.3904114   9.6031876  14.9232807
  32.2917480   9.2844515  14.8760815  30.9024544   8.8833666  15.3232651
  28.5042725   8.8278322  64.2221375  28.5101452   9.6720695  63.7710762
  29.1669292   8.3083982  63.7668304   1.8343940  16.8766994  73.5940094
   2.1834278  17.1989956  74.4249954   1.2398479  16.1688461  73.8423843
   7.9080048  31.5604973  49.4728165   8.3112755  32.2283134  50.0274582
   7.3688545  32.0552597  48.8557587   0.4980814  52.1535721  32.0612564
  -0.1668834  52.8416481  32.0858688   0.9846630  52.3195000  31.2538300
  72.7090683  45.9984932  37.1324730  72.8742828  46.2234802  38.0480690
  71.8947754  46.4532890  36.9172554  65.5661850  70.6842270  35.2827797
  65.9088135  71.4448013  34.8133507  66.3268585  70.3190536  35.7347145
  54.8195267  39.0476303  33.2638397  55.6596489  38.5891380  33.2783852
  54.6095047  39.1920967  34.1864738   2.3649409  64.9881134  32.3595390
   1.9973595  64.3406525  32.9611244   1.7937605  65.7508392  32.4503326
  40.8471603   4.0267487  75.9540787  41.7760201   3.8479578  76.1006622
  40.6596336   3.6353397  75.1009293  43.8274994  65.7228088   2.4996605
  44.4460945  65.2632904   1.9318452  42.9673843  65.4093628   2.2200556
  33.4571190  48.3754120  65.0155182  32.6434135  47.9450760  65.2780609
  33.2870293  48.6875725  64.1267853  18.4939842  40.2445297   7.2299356
  18.1873283  39.3884125   6.9311819  18.6054192  40.1425629   8.1751432
  13.7178402  12.6234970   1.7220356  13.7792664  13.4230146   2.2447510
  12.9919596  12.7863216   1.1196930  57.6726875  59.0591545  74.4257050
  57.9421234  58.1546974  74.2657166  58.4270134  59.5845413  74.1588974
   2.0758419  43.1638260  51.6884766   2.1267192  43.6385880  50.8588715
   1.2845765  43.5004730  52.1089516  40.3505821   7.6553655  61.7517662
  39.5860481   7.0845175  61.6752815  40.9450111   7.1827879  62.3344841
  67.4315643   5.3828340  16.2195377  66.6433716   5.2914209  15.6841574
  67.8027267   4.5011187  16.2518730  64.1169434  26.5702019  42.8316574
  64.2773972  25.9293728  42.1389618  64.2656479  27.4179497  42.4127998
  30.0365067   9.7133150  75.8438416  29.5715446  10.0417337  75.0743103
  29.4780445   9.0123739  76.1800461  69.9763107  16.3205624  27.4302959
  69.6370163  15.6480350  26.8396873  69.5136337  16.1708431  28.2547607
  84.8402863  20.8535480   8.7916965  85.2174072  21.5048828   9.3831120
  85.3660202  20.9208946   7.9946394  83.7399597  30.8954945  47.9708862
  84.0322800  30.0457764  48.3006744  83.0092850  30.6878796  47.3884468
  52.9897041  10.6639662  43.2172852  52.8881836  11.1894064  42.4236603
  53.7350845  11.0572004  43.6711655  69.5214081  71.3459778  34.9666901
  69.1925507  72.2313919  35.1220284  69.1693344  71.1066895  34.1093597
  33.4971466  21.4429626  85.6020050  34.0174217  21.4736576  86.4048767
  32.7039566  21.9360657  85.8115997  34.0881882  25.6632462  17.0304604
  34.7998123  25.0253620  16.9763622  34.5194473  26.5121078  16.9320641
   5.3236470   0.9888110  55.7496338   5.5593214   1.4553275  54.9477272
   5.7688942   0.1447339  55.6753349  10.0019541  49.0295258  75.5922012
   9.7962074  48.3491821  74.9510803  10.9484348  49.1510468  75.5170975
  85.3005753  13.1652164   2.8511071  85.0257797  13.0903883   1.9372580
  86.2556534  13.1099997   2.8193104  86.0618973  65.3660965  15.7797623
  86.4528122  64.5658798  15.4289579  86.7291870  65.7211151  16.3670578
  17.6223011  15.8068218  18.6969528  17.9294415  16.6280441  18.3129063
  16.6677036  15.8702726  18.6661549   2.6763551  35.0259590  43.8554573
   1.9960573  35.6222763  44.1682396   3.3591714  35.6013527  43.5106163
  49.4886475  65.8020782  26.4066639  50.3031731  66.2975540  26.3212986
  49.7632332  64.8852463  26.3908539  50.0900612  46.1277924  14.8316736
  50.1310577  45.1793938  14.7088327  50.9125443  46.3484612  15.2687798
  48.5150070  12.2144060  23.7858543  49.1710815  12.7822590  24.1900101
  48.7258263  12.2315302  22.8523159   1.4718926  62.5179749  33.3663254
   0.6892587  62.5814438  33.9137650   1.4805870  61.6093788  33.0653076
  21.5933380  32.1309929   2.0176489  20.9224892  32.6378326   1.5601493
  21.3109169  31.2211227   1.9248892  14.7091427  47.7216606  82.1595917
  14.0858755  48.2964592  81.7153168  15.3188238  48.3188858  82.5930023
  85.9314728   7.2284608  71.6140442  86.0799561   7.6802082  72.4447784
  85.3526688   7.8124413  71.1239624   8.4244308  27.6437721  41.3433762
   7.5357952  27.8535080  41.6307259   8.9490662  28.3952847  41.6194534
  56.6418152   1.2190199  60.6521301  56.6599998   0.3726975  60.2053185
  55.9541512   1.1269802  61.3115845  81.0580368  57.2611275   1.2446092
  80.6807709  56.4221840   1.5093311  81.8341675  57.3594093   1.7961395
  69.8263550  13.8735666  38.1467590  69.2298431  14.5662384  37.8628387
  69.2514648  13.1515951  38.4007072  25.0759029  60.7280846  46.6143074
  24.6232891  61.0986862  47.3719521  25.3521404  59.8580399  46.9023170
  58.0904427  38.1285172  66.0690536  57.5600433  38.7202072  66.6027298
  58.3126106  38.6412010  65.2918625  64.2584610  27.4650440  65.6614685
  64.8973236  26.9494286  65.1693039  63.4107857  27.2004337  65.3041687
  50.0371475  20.5583210  69.7430115  50.6543350  21.1139374  69.2669830
  49.3337860  21.1520500  70.0056915  20.4927673  31.8841133  27.5620842
  19.8383141  32.5784721  27.6381760  20.9249039  32.0529900  26.7248440
  68.1501617   3.6341562  69.4283066  68.5960083   4.2512732  70.0084915
  68.7382126   3.5426433  68.6786041  48.5998764  52.8124466  23.7505779
  48.1679573  52.0478706  24.1315002  48.3958549  52.7622910  22.8167191
  54.2713928  49.2640495  70.0780563  53.7603683  48.8723106  70.7863159
  54.0449867  48.7469788  69.3050079  56.3323631  36.6492500  28.1942310
  55.4780235  36.3853493  27.8526287  56.1830902  36.7912483  29.1289959
  85.4599609  11.2513447  33.7318993  85.1168976  10.8055506  32.9574280
  85.9827118  10.5859585  34.1793709  80.0525436  62.6948128  78.7084808
  79.5925522  62.0951004  79.2958374  79.7099686  62.4881859  77.8388901
  21.2351036  26.6442394  81.6822891  21.9916477  26.3564243  81.1713715
  21.1319771  25.9727364  82.3565826  56.6061211  65.2468414  51.6787758
  56.4257736  64.4913254  51.1194038  57.3287163  64.9631729  52.2387962
  42.1375618  58.4682045  40.2035370  41.3376694  58.8989830  40.5049248
  41.9005699  57.5432739  40.1358910  85.7433167  20.0344963  55.5854340
  85.4977798  20.6491070  56.2769508  84.9867477  19.4542408  55.5009842
  67.4767456   9.4829931  40.3884697  66.7152557   8.9717855  40.1145477
  67.1343536  10.0897932  41.0448189  11.5367136  16.7962036  26.2153645
  10.9344292  17.0297890  25.5090199  12.1735001  16.2119789  25.8037624
  72.5633316  30.2206116  25.1292133  72.9183655  31.0240097  24.7487755
  71.6500244  30.4309845  25.3237667   7.0926442  20.6023502  58.3563004
   6.6444921  19.7568588  58.3331299   7.4745836  20.6470375  59.2328606
  54.4028969  68.9376450  24.5014458  54.9485741  69.7218704  24.5603256
  54.2185555  68.8437424  23.5668697  12.5603180  41.1633568  74.9087830
  12.6445951  41.0948677  75.8598022  11.6973782  41.5544510  74.7723541
  44.2501678  62.8836632  52.9780235  45.1535378  63.1765556  53.0978928
  44.3286400  61.9669380  52.7140274  58.1144409  71.3123474  87.0404816
  58.8252563  70.6762238  87.1199951  58.5492630  72.1640015  87.0834274
  17.8556175   2.0260925  78.8679810  17.0823860   2.1008253  79.4272308
  17.6482925   1.3104936  78.2670059  78.4299545  29.8179531  36.7149086
  78.9160233  30.6409798  36.6639214  79.0833054  29.1698513  36.9782143
   1.3706851  48.6461678   2.3031900   0.6296402  48.4157181   1.7428530
   1.5511819  49.5631905   2.0964887   4.4819078  49.2502441  15.5218897
   4.0737085  48.6298256  14.9179964   4.4868546  48.7962761  16.3645744
  43.5270844  60.4698181  59.4114113  44.1746025  60.2029762  58.7589188
  42.8026657  59.8550262  59.2952995  26.4590893  63.5008583  24.2724056
  26.3331604  63.9354935  23.4289227  27.3953190  63.5902519  24.4504967
  68.2433548  21.1029148  60.4026794  68.8520584  21.2548122  61.1256142
  68.7870789  21.1555824  59.6166687  13.4776869  14.4777002  31.0591984
  13.7040768  14.5669489  30.1334476  14.0288610  13.7605658  31.3724995
  56.4419823  58.3639793  29.9692535  56.2189713  57.4809074  30.2636738
  55.9769516  58.4640961  29.1386185  34.1324310  48.8537216  81.7117538
  33.4857712  48.1522636  81.7893295  34.8079147  48.4942474  81.1366653
  25.4927559  26.4733868  10.9268456  24.5454426  26.3361893  10.9242649
  25.7023144  26.7144375  10.0245094  10.7842798  27.3750000  73.7553101
  10.7211924  28.0229664  74.4570160   9.8815336  27.2504425  73.4624481
  78.5113373  61.0543137  37.3240089  78.8151169  60.5757370  36.5527039
  77.9928970  60.4155846  37.8133736  50.1141434  59.4630814  76.7266846
  50.3723526  58.9671707  77.5036240  50.4641075  58.9578857  75.9928360
   0.9534354   5.9693842  34.6556854   1.1825490   5.3622670  35.3593521
   0.4789783   5.4323931  34.0210495  64.9369125  21.7825470  39.8269958
  64.9242706  22.0701561  38.9141121  64.1703796  22.1997528  40.2201920
  70.2077179   5.0714436  88.1273804  70.6279602   4.6144257  87.3988495
  70.9179535   5.5565834  88.5474243  15.6176510  71.0518417  62.1070824
  14.9857378  71.3200760  61.4400215  16.0826874  70.3136139  61.7133904
  86.7866974  32.3998718  27.2546997  86.9199524  31.4870739  27.5101948
  86.3834305  32.3495865  26.3880501   5.7962132  12.0626554  51.1511536
   5.0000749  11.6173506  51.4411507   6.0322976  12.6322298  51.8833275
  66.4812241  29.3918648  59.5184898  67.3268661  29.6297836  59.1383324
  65.8689957  29.4302197  58.7836876  83.0886688  13.8509512  83.7516327
  83.1361160  13.5490494  84.6587372  83.1016693  13.0478735  83.2309341
  50.3360405  54.3002739   0.6977336  50.3376808  54.4844131   1.6370533
  49.6710663  54.8882790   0.3395549  34.3770676  15.4451218  74.3051224
  34.2664719  15.5177612  73.3571091  35.0832100  16.0574951  74.5114975
  81.4656906  63.1334572  70.2869949  82.3106689  63.5251045  70.0659637
  81.1356506  62.7912636  69.4562073   7.5771298  31.4859467  42.0521698
   7.3494968  32.4149094  42.0141754   6.9673538  31.1158409  42.6904678
   0.6831565  45.4329224  60.2381248  -0.1511218  45.8591385  60.4344749
   0.6958034  44.6598282  60.8023911  76.6521988  50.0308762  88.4095688
  77.0098343  49.4151154  87.7699051  75.7716675  49.7026405  88.5916519
  48.9454460   8.7470865  24.3005657  49.4154739   8.4016848  23.5416183
  48.0430527   8.4523392  24.1779194  85.2091064  16.7733974  81.6611938
  84.9628220  17.5403767  82.1782227  84.4199600  16.2318974  81.6451416
  62.1832924  12.5876579  53.8041878  62.0003242  13.4643288  53.4662476
  61.8646278  11.9966593  53.1219788  72.9735565  37.8687172  76.3433456
  73.3211670  37.6523781  77.2085571  73.4726257  37.3179741  75.7401505
  14.9299555  22.4291000  16.1337261  14.9689951  21.8531075  15.3702211
  14.0120316  22.6953583  16.1861973  80.6853333  67.1121216  14.3787403
  80.1742249  67.9214401  14.3785868  80.7901535  66.8948746  13.4524326
  42.3289299  48.2090721  39.5944786  41.8236732  48.4789886  40.3613510
  42.6538963  47.3365822  39.8167152  15.6415882  49.0530243  23.9302368
  15.3985853  49.3366203  23.0489006  15.0073223  48.3691063  24.1451740
  66.2252655  37.5393066  17.2556400  67.0764618  37.9569740  17.1243229
  66.4084702  36.6011581  17.2051601  66.6655350  35.2308655  87.2462463
  65.8877640  34.9016457  87.6967087  67.0494308  34.4567642  86.8343887
  67.6544342   3.0652802  86.7679596  67.4268265   3.9537220  87.0419998
  67.0367126   2.5043139  87.2369690  13.5586348  47.5720177   4.4584904
  12.7841692  47.3329926   3.9492731  14.1429873  46.8186531   4.3736005
  56.0155220  18.5098286  27.6397057  55.8239899  19.1359291  28.3379498
  56.2007370  17.6898289  28.0974483   9.6597939  46.9156036  37.2750740
   9.9392815  46.3839493  36.5297813  10.4621620  47.3371468  37.5828705
  82.8023911  19.9957676  27.6848183  81.9528351  20.0125542  27.2441311
  83.4162369  19.7044830  27.0105896  57.5193367  48.5403976  21.5124054
  57.7464371  49.0654907  20.7449837  56.9481087  47.8522491  21.1712532
   8.4258881  35.9927521  43.3171425   7.9457979  35.7159615  44.0976105
   8.4068508  36.9491692  43.3508720  36.6151619  45.4635963  15.7938509
  37.1053352  45.0596619  16.5099506  35.7082520  45.1967316  15.9439535
  73.5475693   4.5429072  52.6703568  74.2763824   5.1485696  52.8053780
  73.7826385   4.0578508  51.8793488  70.6918640  25.1907272  10.8202925
  70.4934540  24.4624996  10.2316084  69.8597565  25.6537514  10.9174194
  49.6603088  61.9755287   9.3050699  49.0281029  62.3317566   8.6808491
  49.2599068  61.1628723   9.6141005  -0.2273214  43.0687523  37.4024124
   0.6542993  43.2598457  37.7225075  -0.1309488  42.2560921  36.9058990
  80.5707626   9.6948109  42.9938049  79.7389832   9.2972202  43.2512779
  80.3431625  10.2794285  42.2708588  29.4996357  38.0916252  78.5882721
  30.3701916  38.4147682  78.3560181  29.3147945  38.4910469  79.4382858
  71.6251144   8.3305693  56.5096321  72.4832153   8.7224998  56.6717796
  71.5017014   7.7163963  57.2333679  80.8237228  55.9335289  67.2769699
  80.9316330  56.1267052  66.3456955  79.8772659  55.9560890  67.4181595
   3.9759939  29.1958218  63.5966988   3.9919116  28.3342323  64.0134048
   4.8962846  29.4539566  63.5450974  66.1206284   6.6873803  26.3925610
  66.4804535   7.5742297  26.4086876  66.3363953   6.3256960  27.2521305
  29.0681801  70.7727737  57.5917053  29.0986881  69.8569260  57.3150711
  28.3676357  70.8029556  58.2432861  13.6685877   6.1614676  77.6476669
  14.5542297   6.2711902  77.9938354  13.7824574   6.1511908  76.6973190
  13.3042011   2.7987409  29.2683029  13.2891741   2.1154916  29.9385090
  14.0304756   3.3679435  29.5227909  56.8780098  23.5773029  74.2644043
  56.6263962  22.9947872  74.9810638  57.3908768  23.0242634  73.6750412
  49.4498100  12.8639956  81.6981125  49.1218262  13.6894636  82.0548477
  49.8762321  12.4350691  82.4400101  18.1231995  31.7255745  70.5623627
  18.6804390  31.5803738  69.7977448  18.6870537  32.1827164  71.1863174
  78.5363464  24.8316517  49.7663422  78.2602310  24.0882111  49.2303467
  79.4347000  24.6221523  50.0218735  85.8466339  54.9302406  69.2139282
  84.9286728  55.0776596  69.4416122  86.3380814  55.4380455  69.8595657
  51.0498543  28.6472645   2.4341536  50.9097214  28.8202705   3.3651016
  51.1888542  27.7015095   2.3845682  10.3852806  55.9319038  22.8278198
  10.6990299  56.6805000  23.3351593   9.8388910  56.3184242  22.1435013
  43.7816277  50.5064049  73.3072510  44.0384979  51.3382187  73.7051620
  42.9537659  50.6973572  72.8663330  35.0291786  23.5156441   3.9744136
  34.8140068  22.8024921   4.5755339  34.3553391  24.1761360   4.1354103
   0.6340773   0.1322526   0.6073582   0.4776395  -0.3732588   1.4049906
   0.2932261   1.0044125   0.8058258  47.4226418   4.8813691  67.9022903
  46.6678123   5.1997881  68.3973389  47.0773888   4.1593928  67.3771362
  32.8112602   8.3398523  53.0702133  32.5474701   8.0630999  53.9477386
  33.7674522   8.3668318  53.1049042  58.9712334  50.9464455  82.1509018
  58.1454010  50.9652634  82.6345139  58.8947067  50.1851234  81.5757828
  72.7776413  54.0004272   6.1327834  72.6641159  54.7289886   5.5224161
  73.7075272  53.7812080   6.0737762  80.5875168   0.5293551   0.4588631
  80.8554535  -0.3712962   0.6412519  80.0222015   0.4599339  -0.3104426
  18.8197823  13.8293247  45.3738327  19.1573467  14.5720320  45.8745041
  18.9786892  13.0702248  45.9348564   5.9090352  37.0382385  61.0825310
   5.8160863  37.0917168  62.0337029   5.2765179  37.6719513  60.7440605
   0.0621011  57.2778320  79.7953415   0.4489900  56.6225739  80.3760147
   0.3323628  57.0091553  78.9172668  59.3923073  47.7673454  23.5682507
  58.5903320  47.8289070  23.0493336  59.6953430  48.6717110  23.6490116
  57.3099098   0.0231318  54.2824287  57.7367210   0.8059127  54.6307373
  57.9248962  -0.3155698  53.6318092  16.2834549  55.9520645   8.2483006
  15.9389305  56.0880661   9.1309328  16.3115025  56.8284836   7.8644595
  86.3895569  48.9150276  75.5432510  86.5066605  49.7433090  76.0085068
  86.5498657  49.1315193  74.6247330  75.5316010   3.4482050  12.2930317
  75.1602783   3.3112199  11.4214897  76.3465576   3.9244301  12.1340160
   8.6395435  68.8486710  36.9771271   7.7357583  68.9666748  36.6847572
   9.1679068  69.2643204  36.2957306  82.8661346  13.8010178  40.6176224
  82.0081787  13.8703699  40.1988831  82.8912048  12.9098845  40.9661674
  57.2029457  31.2303047  52.2540207  56.4808311  31.4963245  51.6847954
  57.2609138  30.2816982  52.1399231  53.0005226  70.6985397  58.3895569
  52.6818771  70.1145477  59.0777817  53.9431610  70.7592545  58.5443954
  75.9334946  52.3548279  12.5090981  76.2707214  51.4593658  12.4835491
  74.9896774  52.2590485  12.3815384  57.1480064  34.9364090  82.7141113
  56.3229523  35.4125595  82.6203003  57.3872108  35.0506058  83.6338730
  28.8022156  61.1719055  51.0154381  28.2291641  61.6270485  51.6324348
  28.8783264  60.2854462  51.3684731  78.8703156  25.2995644  26.1915340
  79.6816559  25.4277229  26.6829967  78.4448166  24.5574455  26.6210041
  69.9325714  56.8502998  63.7224731  69.3137817  56.8798065  62.9927750
  69.5707703  56.1930237  64.3168869   5.9960876  69.8927689  42.7380791
   6.5488019  69.8684769  43.5191994   5.2918124  69.2716293  42.9236031
  71.7503662  33.7805939  11.9972210  71.1162796  33.8494797  11.2834873
  71.6359558  34.5882607  12.4980354  22.0871544  66.9072418  28.1499577
  21.9469643  66.4382095  27.3274078  21.3704967  66.6189346  28.7152138
  19.4495163  26.4550133  22.1477013  19.1069946  26.5198441  23.0391655
  18.7431526  26.7891026  21.5948296   0.0105148  46.1649208  54.7706528
   0.8399146  46.6424217  54.7885590  -0.4648927  46.4817619  55.5386581
  62.4341202  41.2724495  62.3963470  62.8261414  40.4021606  62.3246002
  62.9556084  41.7156105  63.0655899  77.6503372  12.0118170  63.8750725
  77.0997620  11.6522989  64.5706711  77.7169037  11.3051119  63.2329140
  45.1368828   1.7993302  36.7433090  44.7749977   2.6564560  36.9682693
  44.7494431   1.2006818  37.3818550  20.1279602  21.9641094   0.2443710
  19.2670498  21.7317238   0.5923101  19.9985428  22.8207588  -0.1626122
  39.2666588  37.5809669   7.2246671  39.9657021  36.9515228   7.4017725
  39.7245445  38.3821945   6.9704924  65.0803070  56.7292824  52.5002098
  64.1502457  56.6333504  52.2952271  65.1524734  56.4617729  53.4164314
  74.7284317  39.8315506  13.1876106  74.9491653  39.2204361  12.4847212
  75.5189972  39.8733940  13.7256584  57.9196358  60.2529869  87.0522919
  57.1518898  60.1001053  87.6031342  57.5583229  60.5032196  86.2019577
  11.9826803   8.1387939  78.4646149  12.4161739   7.2955298  78.3333893
  12.3075066   8.4459400  79.3110046  44.5628281  64.1926041  89.2824554
  45.0897141  64.5952988  88.5921936  43.6668205  64.4711151  89.0931396
  34.4053345  52.9104004  28.9538498  34.2835960  52.7796593  29.8942318
  35.1884117  53.4568520  28.8874016  22.3207970  33.9820290  83.5666351
  23.0791759  33.7006683  84.0784302  22.2199116  33.3060036  82.8965225
   0.6953786   7.4393477  20.5447788   0.6642911   8.3027077  20.1326199
   1.3791586   6.9701900  20.0666904   9.0727654  46.9283257  55.9881821
   9.2441111  47.8502197  55.7958717   9.0960188  46.8746223  56.9435921
  31.2133904  67.3679123  56.1712837  30.7875042  66.5647812  56.4709930
  32.1496735  67.1906281  56.2617111  68.2776337  18.7397747  70.1889725
  67.7236710  19.1304989  69.5131836  67.7664185  18.0015125  70.5204315
  48.8615608  21.8325062  12.4021883  47.9575081  21.5225544  12.4556208
  49.2732162  21.2599010  11.7549667  37.5655556  68.6084595  35.5051003
  38.3306999  69.1314621  35.2658272  37.2425842  68.2620544  34.6732788
  74.1594315  58.4055977  77.1432724  74.3694534  57.6850052  76.5492477
  73.3087921  58.1703529  77.5138245  71.8897247   4.8282666  75.4183884
  72.8033905   4.9323239  75.6841278  71.6444931   3.9602273  75.7387009
  67.4957809  25.1495113  40.1385002  67.7557831  24.4303417  39.5628090
  68.2390060  25.2627239  40.7309761  52.6443901  56.7619438   0.0700750
  52.3075447  56.7514687   0.9659867  53.2914734  57.4672775   0.0657142
  74.6461182  69.2638245  85.3384476  73.9014664  69.4822083  84.7780609
  74.7870407  70.0496292  85.8665390  45.8964539  58.3485870   2.8726683
  45.7995644  58.3948593   1.9215094  45.0289688  58.0973892   3.1898456
  13.0606976  21.0575294  29.6377907  13.4975281  20.5264225  28.9719563
  12.1292028  20.9829998  29.4304390  29.3192177  16.5813274  11.6435518
  29.3449650  16.9020767  12.5450449  28.8423119  15.7531481  11.6975250
  44.5269585  67.2549438  33.4079781  44.8015900  67.4025726  34.3129730
  43.5794868  67.1302261  33.4625168  72.2498550  10.6797857   3.0990310
  72.2089386  10.4557419   2.1693201  72.4678040  11.6117582   3.1114438
  77.8798981  47.6662254  42.1813622  78.0238647  47.1510429  41.3875809
  76.9300995  47.7760811  42.2266235  65.9078217  55.3250961  48.2151375
  65.9175568  54.9727249  47.3252106  66.5347061  56.0481224  48.1933327
  16.4449024  54.8411636   3.0019946  16.9953442  54.3028870   2.4332190
  16.9283085  54.8899612   3.8267174  28.8789463   3.7789028  57.2331810
  28.2593365   4.4679065  56.9932060  29.0169621   3.2881112  56.4230537
  58.5991135  12.7854156  26.1405373  59.0023460  12.7646513  25.2726631
  58.7580986  13.6745834  26.4572945  26.5630875  15.9230213  16.5283623
  26.5925426  16.8485184  16.2858315  27.4808712  15.6756382  16.6410942
  27.9514065  16.5434875   0.1859285  27.0553074  16.5697250   0.5214105
  27.8932514  16.9391403  -0.6837317  45.4403076  60.2205505  20.3345146
  45.0543137  59.8252029  19.5528870  45.6246834  61.1245499  20.0795288
  22.4644279  55.9210625  81.2322159  21.6688366  55.9524078  80.7009125
  22.2576046  56.4474297  82.0044861  11.2313585   2.7093554  82.6191483
  11.6802425   2.6032557  81.7804108  10.3581715   2.3462327  82.4710999
  77.9284363  32.9010506  41.1300926  78.7573776  33.3176880  41.3656883
  77.2662582  33.5700951  41.3036842  27.9401054  23.1367188  22.5048504
  28.7766037  23.1847878  22.9676571  28.1219921  22.5949078  21.7370033
  71.5158081   6.3598065  52.2919312  72.1436081   5.6568174  52.1249084
  70.7234344   5.9089766  52.5837021  12.1243706  70.5010681  58.0284004
  12.0056820  71.3018112  57.5175591  11.2432232  70.2733536  58.3249779
  85.2024765  54.5284576  86.0505753  85.9428024  54.1206818  85.6012802
  85.4075317  54.4376450  86.9811325  41.8867073  13.8242893  42.9560051
  41.9038277  14.3729992  42.1718788  42.8001404  13.7824650  43.2390594
  53.7413101  17.9062824  60.1845093  54.0634460  18.3799400  60.9513931
  54.3440666  17.1690254  60.0877266  59.6821480  67.5763168  84.6798019
  60.4551735  67.2970810  84.1892014  58.9523201  67.4373169  84.0762558
  32.1758385   5.5691504  38.4386940  32.4558372   6.4841719  38.4148560
  32.9129677   5.1033182  38.8334961  59.7524414  67.6990280   0.6928291
  59.1823769  67.5370712  -0.0588574  60.6291313  67.7760010   0.3163763
   8.2581329   5.5016837  65.1755829   8.0438232   4.7050333  64.6901398
   9.1370201   5.7351203  64.8767548  63.3685646  52.1443634  65.7079926
  62.7700462  52.1362038  66.4549484  63.0067673  51.4958153  65.1040726
  39.7751999  63.8799324  72.6581802  40.1951599  64.7053680  72.4162827
  39.3272896  63.5965004  71.8611374  82.1227112  21.1025066  50.9240990
  82.0348740  20.8131084  50.0159340  81.3092728  20.8231754  51.3442345
  16.4186935   6.2154822  77.9418259  16.5168018   5.3465924  77.5524216
  17.2563477   6.6481061  77.7762909  33.5288277  57.0113335  19.6939583
  33.5164413  57.6975899  20.3611393  33.8538055  56.2368164  20.1530285
  52.1106949  70.3265152  65.2418442  51.3634453  70.7117615  65.6994781
  52.7667961  70.1917267  65.9256516   7.4954300   7.4035196  29.0464973
   6.9133654   6.9957843  28.4052620   7.9303713   8.1056871  28.5627422
  18.6930141   4.3646736  22.2079792  18.5646381   3.4848464  22.5624580
  19.0383167   4.8710823  22.9431973   0.3118711  69.0275421   0.0519224
   0.6114855  69.9233093   0.2070410   0.8469150  68.4913177   0.6370872
  47.6971893  32.3646202   5.9962897  46.7591019  32.5001183   6.1299548
  47.7721062  32.0940056   5.0812011  25.1328392   5.8831673   5.4573884
  24.8209515   6.6944523   5.0564208  26.0774670   5.8873305   5.3028135
  57.6472969   8.9083366  65.2855606  57.0103226   8.8434553  65.9971008
  58.4012871   8.4047823  65.5924225  17.3030186  48.5756874  35.4411011
  17.0153332  49.2950859  34.8790207  17.5507545  48.9985046  36.2633438
  26.0232410  30.7892971  10.6233883  25.9208088  30.1875534   9.8860664
  25.1430416  30.8699589  10.9907761  34.1554527  53.6576500  55.7823524
  33.3406525  53.5137711  55.3010712  34.8379173  53.3132896  55.2062531
  55.3179893  23.9963875  20.1107082  55.2690048  23.0413952  20.1533852
  55.0984192  24.2071590  19.2031860  74.0445099  23.7930737  15.9485598
  73.2152176  23.4216022  16.2494144  73.9624710  24.7314034  16.1189613
  37.3001022  28.2801838  38.1501007  37.9895782  27.8980541  38.6930847
  36.7568130  27.5350933  37.8933754  34.5410805  14.4447680  78.0407486
  34.9874306  13.7007122  77.6365433  33.6166382  14.1965170  78.0440903
  29.4539471   4.6518140  86.4915771  29.0962791   5.3373189  85.9273224
  28.9084759   4.6798096  87.2776489  82.2230530  42.2560539  22.8231468
  81.3398132  42.5945740  22.6764660  82.3181152  41.5498924  22.1839848
  65.5482101  48.3036461  58.4753036  65.0181732  48.5124588  59.2445221
  64.9153671  48.2314148  57.7607994  66.6887741  45.6427612  20.0131798
  66.5682220  44.7089882  20.1857109  67.2764130  45.9407120  20.7075405
  46.4095421   2.8707116  14.2063122  47.0677299   3.4993117  14.5027599
  45.5850258   3.3561220  14.2343006  50.7642670  18.0651302  84.7178497
  49.9404297  18.4635582  84.4371643  50.8415337  17.2739124  84.1847076
  61.1696091  12.7857418  24.8415623  61.6179771  13.2352104  25.5579262
  61.6037712  11.9346247  24.7838078   5.5940981  52.6379433  20.8571510
   5.5915494  52.4570389  21.7970963   5.0004449  51.9852142  20.4860039
  63.4165306   0.2020785  66.9688721  62.7166214  -0.0835270  67.5560608
  64.1524200   0.3954636  67.5496445  75.9511871  52.9352989  69.5745773
  75.6577225  52.5530167  70.4016037  75.8488617  52.2303467  68.9352036
  59.4232750  29.8188686  88.6933060  60.1461372  29.5486431  89.2595901
  58.9099541  30.4215927  89.2313232  42.1739922  44.5572586  21.4328785
  43.0318375  44.7022514  21.0337429  41.6243668  45.2570992  21.0802193
  76.1938858  22.2558689  65.8667450  76.8453445  21.7048531  65.4329147
  75.3575516  21.8283768  65.6822815  24.8343620  19.5904789  72.7998734
  25.1750431  19.7969532  71.9295120  24.0919743  19.0092354  72.6348114
  52.0352783  59.1060753   2.6457453  51.9107399  60.0132866   2.9244800
  51.3911972  58.9789734   1.9491554   8.4595261  55.3366470  85.8487778
   7.9443703  55.4787102  86.6429214   8.8397198  54.4655876  85.9625397
  48.3067741  68.1819992  13.7813768  48.3140526  67.7085342  12.9495087
  48.3846779  67.4983292  14.4467764  86.2035828  40.0686111  17.1882095
  85.4124756  39.7261887  17.6042919  86.8006897  40.2427330  17.9157982
  30.1375618  41.7238274   2.4923315  29.5619526  41.9651604   3.2180481
  30.6512280  40.9892387   2.8281250  76.2245712  33.0198479  22.2226105
  76.4285507  33.4664764  21.4009380  75.8094330  32.2005081  21.9532070
  62.8057289  65.1208038  78.3673630  63.4109154  64.3850708  78.2742081
  62.0396957  64.7471466  78.8030243  84.6787109  25.7271652  36.6942635
  84.7266388  24.7748184  36.6107826  84.5260010  26.0384197  35.8020554
  27.0506706  65.8913574   8.2633181  26.3123150  66.4936523   8.3544436
  26.8319702  65.1559982   8.8357325  17.1154346   1.9252187  67.8268280
  17.9071922   2.3124347  68.2002106  16.8047562   1.3195163  68.4997559
  75.7039337   3.2123237   3.4407308  76.5177307   3.5679395   3.7978017
  75.9653549   2.3947439   3.0171115  56.7328339  13.2105837  36.0380135
  55.7934799  13.0275402  36.0195847  56.7898483  14.1637001  36.1054688
  65.4710312  23.1099949  84.4711761  64.5502243  23.3423424  84.5910110
  65.4627914  22.4463844  83.7814026  39.4916306  69.3351212  16.0137482
  38.6233940  69.3122559  15.6114101  39.7219162  68.4145050  16.1389294
  23.8214645  14.5515242  36.6703987  23.5898037  13.8018341  36.1221924
  24.7647800  14.4652109  36.8080101  50.2930603   6.2050209  53.7496758
  50.6191254   6.4254007  52.8771248  50.6860771   5.3542266  53.9444046
  70.3264923  32.1016197  79.4555130  71.2127991  31.7856712  79.2798080
  69.7596664  31.3657570  79.2243195  49.3647957  60.4229164  80.7687683
  49.3174362  59.5117989  80.4791946  48.6812668  60.8689919  80.2687225
  45.1717949  58.2239799  89.2833862  45.6305122  57.6646729  88.6565018
  44.4966888  58.6615257  88.7647171  17.9365196  -0.2206972   5.4779391
  18.1311646  -0.1803994   6.4142728  17.4163113   0.5645069   5.3074374
  22.4312687  17.7328148   1.6551228  22.6151390  18.5478516   1.1880701
  22.1548843  17.1222515   0.9717085  57.1852875  51.0635147   5.0366378
  57.0573235  50.1814499   5.3856659  56.7511673  51.0488930   4.1836672
  23.6833038  34.5058136  19.1939373  23.9678345  33.6237144  19.4330521
  24.4249039  35.0666084  19.4214764  16.9209003  61.2581902  86.6545258
  16.5248108  61.3880768  87.5161972  16.2173882  60.8889122  86.1207352
   6.2131104  43.3324928  68.5878143   6.2109413  42.4801941  68.1521378
   7.1222672  43.6269608  68.5334549   0.6631745  25.3564167  80.6014252
   1.5827929  25.4876137  80.3705063   0.6072335  24.4328842  80.8467560
  70.5115509  57.6837082  56.7876167  70.2059250  57.0186348  57.4044647
  71.4640656  57.6782913  56.8820496  80.6395340  64.6562119  58.8273277
  80.2339630  64.7697525  57.9677620  81.5491409  64.4286575  58.6348076
  52.2110748  15.4064236  73.0050049  52.3051491  14.4543419  72.9746552
  52.7231598  15.6734877  73.7683411  60.2332535  19.1231766  16.8047371
  60.8274536  19.7325344  17.2427330  59.7698593  19.6605740  16.1623192
   7.1526284   2.3436618  19.4519424   7.3676801   2.9101889  18.7109756
   7.2212620   2.9141755  20.2174721  12.6164007   0.5021433  13.3692093
  12.4032402   0.1150782  14.2183123  12.3662987   1.4220299  13.4557524
  10.4846439  64.1840057  38.2794456  10.1820345  64.9356003  38.7891197
   9.6812038  63.7473946  37.9964485  53.0503654  21.0547504  70.5729446
  53.7831459  21.6238403  70.8083267  52.7986565  21.3393860  69.6943893
  12.2838783  44.2849998   4.6459794  11.7907200  44.4914665   5.4399557
  12.0397930  43.3825912   4.4402857  51.3131027  62.9967499  88.5293579
  52.1606560  62.7341461  88.1702881  50.8884583  62.1727943  88.7681122
  55.8976746  27.5737457  75.9229355  56.0847282  27.7439804  76.8461151
  54.9549179  27.7166996  75.8392563  49.4726753  59.9234238  55.7856827
  48.5987968  59.8964500  55.3960228  49.9588280  59.2353020  55.3313942
  29.3715725  56.9866867  61.8985252  29.5081367  56.0512886  61.7481575
  28.7158318  57.0241165  62.5948257  52.2030411  42.8936157  86.3307800
  53.1341438  42.7945404  86.5294342  51.8300247  42.0271225  86.4928970
  68.3137894  43.9295349  17.3356819  68.0582657  44.6729050  17.8818855
  69.2525024  44.0494537  17.1918888  56.2022247  29.1992245  60.9235764
  56.3115997  30.0456161  61.3570442  56.8676300  28.6382809  61.3220825
   0.9323503  59.3721619  22.8203182   1.4703245  59.7610664  23.5099335
   0.7561618  58.4826813  23.1269379  74.2698288  44.8697014  34.9740982
  73.7766190  45.0989876  35.7617531  73.7461624  45.2195816  34.2532730
  11.7186136  50.5114899  54.5020676  11.7694769  51.4066238  54.8372955
  10.9281063  50.5023994  53.9623947  13.7794065  47.8004074  84.6596222
  12.9550238  48.2867432  84.6496582  13.9703941  47.6338348  83.7365799
   4.6386962  63.6717300  16.0923882   4.7655110  64.5900116  15.8538380
   4.6737456  63.2009163  15.2597179  23.1647949  11.4813499   6.4105921
  22.4144611  11.0328035   6.0206738  23.7577534  10.7758093   6.6691394
  41.7724762  67.9701843  22.0283070  42.5301857  68.0843811  21.4546661
  42.0656929  68.2944717  22.8798313  64.6829147   9.8643494   7.5062861
  64.7268906   8.9955101   7.1070151  63.8825302   9.8465834   8.0309811
  78.7708969  36.6393738   8.1268940  77.8551559  36.5839882   7.8538022
  79.1895752  37.1757889   7.4536901  16.1849251  44.6372948  85.1738739
  16.5330124  45.5086327  84.9845657  15.7096128  44.7431068  85.9979553
  78.4421616  22.3340454  85.5196991  79.0385361  21.5999241  85.3726044
  79.0023575  23.0343742  85.8542938  82.1738129  28.2333584  25.5135880
  82.6912079  28.7043591  26.1668072  81.6179657  27.6463718  26.0261364
  74.4560623  38.8413734  85.4597549  74.9423676  38.5015450  84.7085800
  74.2710800  38.0693092  85.9944763  58.8112640  66.6572266  53.8099594
  58.5691071  66.4456406  54.7115250  59.7086334  66.9842224  53.8734398
  20.4403667  11.8568544  54.3214340  20.7198944  12.3784933  55.0737572
  20.1090336  11.0440884  54.7033501  19.3700619  43.2158966  16.2787323
  19.2088642  43.1583099  17.2205029  20.2672729  42.9007225  16.1695976
  79.1782455  39.7878380  61.7123833  78.7533798  39.6334114  62.5561066
  79.5410919  40.6706276  61.7849503  46.3454323   6.5881238  84.1701889
  46.3648376   6.0961113  84.9910278  47.2494736   6.8751726  84.0415726
  38.2972908  56.1963539  62.1715126  39.1290779  55.7437096  62.3110657
  38.5324249  57.1234818  62.1343651  21.5026989  53.3912506  79.8878021
  20.9831123  53.6705971  80.6416168  21.0400448  52.6249466  79.5487442
  20.5369701  20.3795567  68.5224915  20.5327301  21.2541351  68.1334839
  19.6185493  20.2040405  68.7272568  60.3732262  56.8161354  15.4124603
  59.5481529  57.2852287  15.2881899  60.9898834  57.2572327  14.8281689
  18.6828308   7.9225593  22.4512196  19.1826973   7.1254983  22.2749844
  18.0696087   7.6727819  23.1424522  65.1897507  32.6595421   2.9287465
  65.6083755  33.4302864   3.3120632  64.4398117  33.0088615   2.4472871
  24.0253296   3.3419998   5.5170226  24.4905739   4.1745105   5.5989170
  24.1598320   2.9085460   6.3597913  60.6288872  32.4803886  46.6623611
  61.1230545  32.3531570  47.4721985  60.0059242  33.1771698  46.8688698
  25.0101891  11.1050558  30.3129406  25.8522568  10.6746473  30.4609451
  24.3669796  10.3983364  30.3682575  50.6598701  61.3292313  34.7177849
  49.7128983  61.1957855  34.7585907  50.8966675  61.0926208  33.8210258
  55.8131065  30.9103451   3.9318871  55.0515976  31.3124218   4.3498268
  55.8297462  31.2864532   3.0518310  14.1788521  70.8690720  27.5970345
  13.7168541  71.5999756  27.1864548  14.0699177  70.1421356  26.9839115
  78.3681030  14.4795160  -0.3547559  77.6326294  14.9878950  -0.0129163
  78.6811905  13.9761477   0.3967949  68.2139969   5.1305399  12.7808590
  67.6477051   4.4568667  13.1572971  67.6341095   5.6440864  12.2185163
  77.7657547  10.0702572   0.9857581  77.2453918   9.8007402   1.7426065
  77.9889908  10.9842625   1.1618049  34.3072166  43.5978546  77.6987000
  34.3364220  44.3370819  77.0913086  34.5167885  43.9797592  78.5510254
  44.6189232   5.7096925  39.9481659  45.3326416   5.4854403  40.5452843
  43.9134254   5.1060357  40.1807709  40.8864746  64.5424957  40.2752876
  41.5977020  63.9172592  40.1357727  41.0313988  65.2211456  39.6159973
  64.8929672  69.3270798  33.0522957  65.6840744  69.5473785  32.5605087
  65.0149231  69.7480927  33.9032440  34.4699135  27.9108067  83.7933121
  34.1779594  27.0839405  84.1770859  33.6906548  28.4666252  83.8006516
  15.8308449  61.0434303  22.1276073  14.9828615  61.4692383  22.0017338
  15.8108673  60.7328186  23.0327892  32.4105644  54.4278297  64.7709122
  33.1596756  53.9662476  65.1477509  32.6061859  54.4781303  63.8352661
  13.1200838   7.2701240  32.3508186  12.7783318   8.0819340  32.7255211
  12.3399935   6.7617726  32.1288490  34.2436981   1.6936668  48.4474030
  34.6724968   2.5491536  48.4248810  34.9127617   1.0992606  48.7869110
  80.2671356   2.2882738  69.4255676  81.0884781   2.7307129  69.6397629
  80.2798233   1.4905251  69.9543991  57.3416786  58.3924179  53.7972069
  56.7215157  57.7446594  53.4624901  56.8753510  59.2258873  53.7331886
  57.0020027   2.8684003  50.6112328  56.2910309   2.6138139  51.1993942
  57.3905449   3.6392708  51.0247841   3.7723570  66.8554001  24.1096725
   4.6742120  66.9895935  23.8183289   3.6898208  67.4004974  24.8921604
  33.5127106  65.0171738   7.8016281  34.1929207  65.6857147   7.7203898
  33.6598740  64.6293411   8.6642752  30.7955303  66.3661804  53.3874817
  30.9188404  66.6454849  52.4802780  30.7752800  67.1815567  53.8884697
  37.3820915  49.8905373  81.9275284  36.5590706  50.3370552  82.1262512
  37.1220398  49.1273766  81.4115982  25.2357216  24.0992260  18.2115250
  25.4467926  25.0249100  18.0899162  25.6399555  23.8692970  19.0481606
   5.3738556  44.6726685  35.3332863   4.4502883  44.4233742  35.2999954
   5.8170862  43.9026833  35.6895218  36.2163239  22.4069290  82.4543228
  35.6773720  21.6707954  82.7439270  35.6657104  23.1770630  82.5955658
  38.1110458  11.8389053  47.3300285  38.1603127  12.6334496  47.8615379
  38.6764221  11.2127686  47.7822838  70.5072174  17.2998409  18.3772125
  70.8266907  17.4472866  19.2673950  69.7460403  17.8747406  18.2976227
  80.0816803  35.8034058  47.5004311  79.8837585  34.8708839  47.5868187
  80.6410675  36.0001411  48.2518387  38.6949883  68.9091721  70.1975098
  38.7609787  69.3147430  71.0620270  37.7545052  68.8053131  70.0528336
  41.0461426  68.9975662   7.6674905  41.2360725  69.4402847   8.4946289
  41.1432381  69.6796188   7.0029569  21.2825012   6.5111275  62.6887245
  21.2466450   6.8157740  63.5954399  21.8279266   7.1573973  62.2403069
  27.2980080  42.9729271  80.8087540  26.7426434  42.2443504  81.0861969
  27.5238628  42.7697716  79.9010391  35.8809547  35.1884880  20.1216507
  35.1872177  35.3499107  19.4821949  35.4491119  35.2777939  20.9712200
  81.1562958  62.8373528  36.0813217  80.2046509  62.7347717  36.0719109
  81.4405975  62.3631096  36.8626633  25.8003826  15.7321863  13.8133974
  26.1920834  15.6761856  14.6849861  26.2291222  15.0378628  13.3130693
  29.4394455  55.6921539  55.4006348  29.3161716  55.6470985  56.3487930
  28.7644901  56.3006668  55.0999985  64.4261398   1.8502644  76.6655121
  65.2011261   1.4475330  76.2737961  63.8932495   2.1211925  75.9179459
  29.3126106  24.0557404  78.0554352  29.1061764  24.5243950  77.2467499
  28.6432896  24.3432312  78.6763992  62.7096863  54.5803223  82.8787460
  62.9458847  54.3901443  83.7866364  62.8275185  53.7478561  82.4211960
  27.0728111   9.6492147  12.2097254  26.9367676  10.1906900  11.4322109
  28.0135136   9.7038403  12.3780336  39.9928093  21.0931892  23.2376652
  39.8539047  21.3443260  24.1508293  39.9650841  21.9194164  22.7551575
  49.3477936   4.7155347  51.4293709  48.8872757   5.5364923  51.6031036
  48.9185867   4.3602166  50.6510658  15.6582022   0.9974131   4.6574340
  14.9348392   1.1800686   4.0577545  15.3421822   1.2934183   5.5110989
  38.7068558  20.0157661  84.4392395  39.0880699  20.5606098  85.1277542
  39.1342735  19.1655331  84.5424271  85.9227753  62.9949532  45.5087242
  86.8732071  62.9783669  45.3963280  85.6500473  63.8258972  45.1196404
  57.3089447  24.1378841  16.0609016  56.8971558  23.8914223  15.2326994
  58.2168083  24.3326530  15.8283587  47.2358780  40.0609169  76.0867996
  46.9009857  40.9453163  76.2348328  47.9280777  39.9545784  76.7393188
  67.6828537  43.3410835  67.7368317  68.0479279  42.7322388  68.3789139
  68.0440216  44.1929092  67.9821548  17.5156517  25.8594151  81.9251480
  17.9695759  26.1774292  81.1447296  18.2049885  25.4640503  82.4587555
  81.3661041  53.8346863  56.5080566  81.4699173  53.4932251  55.6198807
  80.9427032  54.6849670  56.3898010   6.6134257  69.0109787  19.4459229
   6.5861020  69.9271088  19.1698971   5.7730112  68.8666840  19.8807983
   7.1152101  68.0466843  63.0136070   6.5340142  68.0810547  63.7733841
   7.9389272  67.7011566  63.3575974  45.1475487   7.8578186  49.3252373
  44.8243752   7.0578341  49.7397461  44.5779877   8.5492477  49.6625214
  71.8210068  36.1217957  21.4918385  72.3647614  36.0053749  20.7127304
  72.3965759  36.5532913  22.1233196  83.1219635  67.7639771  49.8902130
  83.8818283  67.4181061  49.4220085  82.6809540  68.3234253  49.2508698
   7.9101095  45.9196358  10.0163460   7.8530693  45.4891968  10.8694010
   8.8489780  45.9750862   9.8383512   1.0874871  46.5508499  47.7599754
   0.6668977  46.4811020  46.9029617   2.0250981  46.5193863  47.5699043
  80.0509491   5.7552304  55.5404015  80.6147537   6.1555882  56.2022667
  80.2260284   6.2546287  54.7427902  30.3022003  57.7635422  58.3790169
  29.4230480  58.0849228  58.1789207  30.7460804  58.5123253  58.7771645
  37.6221504  49.6069794  73.5115585  38.4480591  49.3554649  73.9248962
  36.9543953  49.4005318  74.1655579  29.2683964  33.9994240  24.8302822
  29.7060051  33.2563553  25.2457066  29.0175076  33.6763840  23.9648743
  45.0060997  58.0194664  54.9867287  45.8564568  58.3499565  54.6970749
  44.5482788  57.7940025  54.1769142   8.4695711  39.8176537  26.9067993
   8.2764435  39.1485252  26.2501373   9.1321421  40.3726845  26.4954967
  74.9463577   3.6352630  50.4369774  75.8755417   3.5495150  50.6502800
  74.8743134   3.3026879  49.5423088  69.7362137  43.6463585  60.0061913
  69.7230453  44.0764694  59.1511688  70.0225906  42.7521629  59.8200951
   3.2331688   1.1664711  88.5951233   2.3692801   1.1521871  89.0070953
   3.1234577   0.6589792  87.7909775  84.5661011  68.4057388  68.8462067
  84.9145279  68.4373474  69.7371750  83.6617889  68.1107101  68.9529953
  21.6539116  21.6392403   3.0445583  21.3259201  21.0288887   2.3841622
  21.5699711  22.5011654   2.6367950  32.2216606   0.4254226  32.7538567
  32.2123108   1.0348134  32.0157585  31.6277256   0.8162970  33.3947067
  12.6134539  21.2534142  70.0788651  12.5762625  20.5777264  70.7558365
  11.6992912  21.4967995  69.9329071  77.1743927  58.9466286  30.7575245
  77.2199326  59.8306274  31.1218052  76.4520569  58.9828720  30.1305103
   8.9743280  51.8206062  59.4796371   8.8445082  52.1063576  58.5753517
   8.1212931  51.9462013  59.8953133  85.9834824  15.7410669   6.6538963
  86.7660370  15.8684454   6.1176019  86.3204727  15.5859909   7.5362902
  67.4662704   1.0437456  11.7383070  67.2812500   0.1686159  12.0791111
  67.0760727   1.6378738  12.3793955  69.5084686  50.5438499  70.7302399
  68.9259033  50.7766113  70.0072784  68.9337082  50.1400719  71.3805008
  21.0761509  55.9328728  85.5094757  20.6259480  56.4389763  86.1857986
  21.6984997  55.3887138  85.9919739  42.6202240  16.3516369   4.4394894
  42.8415909  15.5375938   4.8917756  42.3986702  16.9631920   5.1417341
  48.1375580   7.1198382   1.4778340  48.0171318   7.2771425   0.5413598
  47.2681999   7.2506685   1.8564215  54.3940735  70.9876251  80.4269714
  54.6426353  70.2184830  80.9396744  54.9136429  70.9196396  79.6259384
  28.4337902  30.5614185  72.4069443  29.0107403  31.2817497  72.1530075
  28.9172554  29.7710991  72.1663437   6.0866213  37.9375496  70.9321213
   6.9369674  38.3226433  70.7203445   6.0767312  37.8897514  71.8880768
  54.8373299  27.9548149  33.5914688  54.7244186  27.2599602  32.9428825
  53.9550056  28.1161747  33.9256783  49.4394302  49.9330597  74.1209335
  48.5311584  49.6379852  74.0561066  49.4713516  50.7285194  73.5894699
  20.2289886  35.8684692  12.5709610  21.1093845  35.7988548  12.9401350
  19.7362175  36.3708382  13.2198334   8.6835575  16.6545982  14.6828575
   7.9592462  17.2123070  14.3990173   8.2609615  15.9266510  15.1386395
  69.4928513  11.3985329  49.9015541  69.8155212  10.6429119  49.4104805
  69.9939575  12.1386118  49.5589027  17.3701439  10.4474497  80.2938232
  17.4102306   9.8057146  81.0029068  16.5159130  10.8665552  80.3980942
  54.1818161  17.8008919  79.5182800  54.8830299  18.4398746  79.3908768
  54.6140327  16.9509945  79.4340515  39.6398849  41.2046013  21.7694492
  39.1123543  41.5216293  22.5025482  40.0651588  40.4150848  22.1041698
  41.6376419  42.0747757  20.2150230  41.8344841  42.9835930  20.4420357
  40.8274956  41.8802719  20.6862602  18.3677139   0.9456639  51.4843636
  19.1279221   1.3633438  51.0795670  18.1675453   0.2056207  50.9112129
  64.2630234  13.2185240  36.0383224  64.4037170  12.5254946  35.3932266
  64.7955933  13.9494228  35.7246552  69.0456619  49.5294876  54.2717705
  69.5705414  48.7581329  54.4856606  68.7039566  49.8279114  55.1146317
  30.5680904  56.1202431   1.1735357  31.1460114  56.0903664   0.4110755
  29.7944508  55.6234207   0.9072937  46.5877228  71.1670914  34.7915382
  46.9958153  70.4846649  34.2586327  45.6604729  71.1320190  34.5565758
  46.8838272  48.4277534   9.7878180  46.2255020  47.9558640   9.2777605
  46.3771133  49.0204887  10.3429222  10.3434048  70.5779495  80.7806778
  10.0739202  71.2538223  80.1587372   9.7393026  70.6752167  81.5167694
  54.4984398  57.6868477  25.0474682  53.8710938  57.8595695  24.3454418
  55.3497162  57.6733627  24.6100025   8.6647034  13.7945452  51.6369286
   9.3005362  14.2360563  51.0738869   8.9093609  12.8700695  51.5954704
  78.2404327  16.7396603  59.0204277  77.5784302  16.6966305  58.3304024
  78.4752579  15.8263044  59.1843452  22.2716694  51.2094460  13.2457380
  21.8682632  51.9381371  12.7740355  22.0043125  50.4307556  12.7574816
  33.1024094  41.5320358  76.5564499  33.6776314  42.2192726  76.8926849
  33.0561256  41.6978531  75.6148605  71.6246567  14.0898991  29.3653927
  70.6839218  13.9802742  29.2266979  72.0310593  13.5831757  28.6623287
  53.0382805  33.4908600  14.3458261  52.5444260  34.2270050  13.9846764
  53.4764442  33.1019974  13.5888376  83.4450455  30.1830063  27.3614979
  83.4968719  30.8347225  28.0606499  84.1829605  29.5959606  27.5261059
  43.7045822  16.0996208  68.9907837  43.6195488  16.3040638  68.0595474
  44.2598991  15.3203506  69.0151901  83.3946228  15.2215567   9.4613724
  82.6407013  14.6325474   9.4313135  83.1627808  15.9377108   8.8700981
  65.1741409  17.1432705  11.6167421  65.7252884  17.3887768  10.8736401
  65.7937164  16.9360752  12.3163328  24.2500038  30.3483391  25.9007721
  24.5139790  29.5653191  25.4176254  24.5730877  31.0770416  25.3708286
  21.3387184  70.7617188   2.7717838  22.2466450  70.5326920   2.9704032
  21.3208179  71.7182693   2.8023324  81.0379181  66.6751862  72.3494568
  81.0311737  67.3616638  73.0164948  80.2408066  66.1719589  72.5155945
  71.8491058  53.1840591   1.6860528  72.0915833  52.8339615   2.5432975
  72.2626343  52.5904922   1.0592327  55.9596519  59.6890945  62.7742729
  56.8501511  59.8762398  62.4772568  55.9188652  60.0582619  63.6564751
   9.1690979  11.0622711  66.3270340   9.2074194  11.9675512  66.6356277
   9.9213619  10.9768314  65.7413483  74.2938766  56.4362106  44.3978996
  73.9054260  57.2030525  43.9768524  73.6308365  56.1450729  45.0238800
   6.3892226  11.3783798  35.6202087   6.0628557  11.6147804  36.4884453
   5.6023602  11.3067045  35.0798950  45.6826973  39.4570007  78.3625412
  46.3757515  39.8700943  77.8474960  45.1853371  38.9431610  77.7262726
  70.3977661  63.5085144  46.7930412  71.2420502  63.1433830  47.0578041
  69.7855301  62.7767906  46.8703423  73.4694519  18.4440117  64.4440231
  72.8494034  18.1831264  63.7630615  74.2024155  17.8362160  64.3461533
  78.0189514   2.2243373  48.6775169  77.8488846   2.7960684  47.9288979
  77.5863419   1.4005477  48.4528999  34.5912933  57.6598930  68.9530716
  34.5332184  57.1862602  69.7828522  35.1809349  57.1306686  68.4159698
  62.7101402  42.7438622  11.2971048  62.8951035  41.8766441  11.6575918
  62.7663803  43.3329620  12.0494566  29.5238552  30.6761494  20.7624302
  29.8089581  30.0755558  20.0737820  28.6599960  30.9742985  20.4776764
  47.0378838  48.1524620   5.5611897  47.2519722  48.6869125   4.7964926
  47.3506813  47.2762451   5.3361750  54.9783173  38.3640518  63.1485481
  55.1907310  38.9174881  62.3969994  54.3833923  38.8959351  63.6771240
  60.8204956  21.2125053  26.4914875  60.4256668  20.6741753  25.8055286
  60.4932823  22.0957203  26.3209133  18.9336433   3.3815498  69.1415710
  19.5432568   2.7933552  69.5872498  19.0220833   4.2142849  69.6052094
  28.4748955  54.0132484  24.5652733  29.3658543  54.2698593  24.3274193
  28.3788948  54.2960815  25.4746799  20.2713928  65.9823532  25.5934372
  20.8197670  65.6405334  24.8872662  19.5287685  65.3797226  25.6331120
  64.2532730  31.7401352  13.1413212  64.4219360  32.3873940  12.4566002
  63.6140251  32.1607971  13.7163296  41.8843727  58.4003143  71.0420685
  42.6566162  58.6116486  70.5174637  41.7846222  57.4527397  70.9505081
   5.2309985  26.2445679  68.9991379   5.4363523  27.0523338  68.5284271
   4.8990707  25.6520576  68.3246155  67.2121124  10.9843521  53.6550293
  66.4835587  11.5362320  53.9393959  67.9842148  11.5433969  53.7420044
  85.5914383  36.1995239  59.6056099  84.8413162  35.6115303  59.6939926
  85.8713684  36.0956039  58.6961746  68.6689301  26.3022385  58.0902557
  68.2136688  26.9114513  57.5090256  68.5874863  25.4522858  57.6576157
  70.5064850  38.5331116  60.3854942  71.3881683  38.6279259  60.7458687
  69.9320908  38.5465431  61.1510849  22.9246387   0.4046046  72.5658722
  22.7769318   1.2618659  72.1664734  23.8580360   0.3967612  72.7778625
  10.3191385  63.4481354  33.1911545  10.4514503  63.7158585  32.2817345
  10.3585339  62.4920387  33.1675148  35.6334610  24.3958416  27.6185284
  36.1633949  25.1919250  27.6592045  34.7501183  24.7060604  27.4192772
  81.7008362  33.1826706  34.3524551  81.4506073  32.8269386  33.4997711
  82.5970764  33.4949341  34.2280388  24.8473930  62.4594307  71.1897125
  24.6044159  62.5146942  70.2655182  25.5932846  61.8597488  71.2058258
  39.6762924  57.8131294  38.6605759  38.7433205  57.5999794  38.6795959
  40.0793228  57.1773949  39.2518806  83.9012222  17.2106571  62.7202721
  84.2475128  17.2257042  61.8280334  83.0015182  16.8987827  62.6227798
  57.1943359  11.7619171  12.5814037  56.3878708  12.2774668  12.5739050
  57.0015297  11.0240393  13.1598454  13.3408737  68.3857803  72.6306152
  12.4020433  68.5701523  72.6016769  13.4273148  67.6836777  73.2754517
  25.8934307  24.2175522  82.0940399  25.6369076  24.9824162  82.6092224
  25.6313515  23.4689674  82.6299133  34.3835258   3.2572689  65.8440018
  34.2552223   2.6997128  65.0765991  35.1363144   2.8747540  66.2948074
  35.8863182  28.4997406  15.7742281  36.8100166  28.5391808  16.0221272
  35.4210663  28.8708000  16.5239544  49.3135948  49.9458733  69.2792358
  50.0994034  50.4794388  69.1607056  49.5443649  49.3310204  69.9756088
  71.4680634  52.8062744  48.4315491  71.1381683  53.0478859  47.5660858
  70.8028107  52.2158432  48.7851944  56.2462616  66.9855881  58.9836235
  56.6214676  66.2578278  58.4878120  56.8252983  67.0842285  59.7394142
  45.6151428  39.4651184   3.8312500  45.3889923  38.7547379   4.4316225
  44.8639984  39.5284042   3.2413290  65.1275558   3.6204505  29.3653965
  65.6852722   4.3832479  29.2126560  65.5612259   2.9086001  28.8948307
  46.4552803  41.5837822  16.4691219  46.2467422  40.7579384  16.9058437
  45.9278488  41.5722084  15.6704254  86.3373108  22.2322350   2.4104846
  86.7544098  22.0865269   1.5613511  86.1606979  21.3528099   2.7446282
  59.3380394  48.4187737   4.8745084  59.1780663  47.7630997   4.1957383
  60.2013474  48.7750092   4.6646857  22.3301697  10.0372229  39.7013206
  21.3847523   9.9624424  39.8310509  22.6661110  10.3271532  40.5494461
  82.3519135  44.4562798  49.3176079  82.8845215  44.1777725  50.0625916
  82.6365204  43.8948174  48.5965004  25.3361893  16.0004120   6.3530321
  25.6286354  16.4119873   5.5398216  25.0348434  15.1317272   6.0869308
  57.9984779  53.4460411   1.9161865  58.6898880  53.5207558   2.5739124
  57.7456169  54.3504105   1.7306958   6.6316533  59.1635818  39.1476517
   6.9835753  58.3038521  39.3784103   6.5728040  59.6299591  39.9814758
  54.2983665  45.5374870  41.7258110  53.8248405  44.7488251  41.4611969
  55.2211342  45.3163452  41.6000061  82.9893570  69.4575958  18.8303394
  82.5905533  68.7470856  18.3279819  83.7635117  69.7037201  18.3240395
   1.9387891  49.5021896  37.0081825   2.0568476  50.2235260  36.3901520
   0.9898108  49.4221535  37.1044464  10.4845295  38.0280075  17.2374001
  11.1225872  37.6784782  17.8594475   9.9230099  38.5965996  17.7643089
  83.3259048   7.6304522  51.4433975  83.1463623   8.5664749  51.5320435
  83.3765488   7.4847012  50.4987183  54.2528000   8.7671461   9.7124405
  53.9964066   8.3213282  10.5197439  54.8101349   8.1361294   9.2569971
  41.7951775  35.8360825  25.8786469  41.9892960  35.5184326  26.7604885
  42.6320953  35.7868958  25.4167156  54.7205391   9.4733400  72.7294846
  54.7839661  10.1891890  73.3617630  54.1475983   9.8116360  72.0413513
  76.2946472  17.0290585  64.2791901  76.3150406  16.9758816  63.3236847
  76.8396912  16.2984676  64.5714188  43.6678963   3.0825064  31.4199944
  44.3667336   2.5931025  31.8539772  43.1412849   2.4124808  30.9841270
   8.7631397  38.9467926  58.4290466   9.4151764  39.2589340  57.8016319
   8.4777374  38.1031990  58.0781593  60.9704781  51.2528954  77.9204712
  60.5154839  50.4390182  77.7040939  60.3895378  51.6947060  78.5397797
  24.9439793  22.4095650   6.3634148  24.2170658  21.9129047   6.7391219
  25.6173382  21.7524395   6.1873336  66.5227203  26.1609516  49.9537659
  66.0138550  25.8841267  49.1917610  67.1502686  25.4517441  50.0931931
  58.9680138  37.0771446  30.2853851  58.0162086  36.9790421  30.3112564
  59.3038330  36.1902847  30.4155159  83.9722672  52.5381508  75.5347748
  83.2673874  52.9062500  75.0019760  84.4249725  51.9325790  74.9477692
  11.5253725  49.3480377  83.6220551  11.0271158  48.8564491  84.2749786
  11.5241423  48.7862740  82.8470383   1.4524903  66.5139084  48.5580711
   1.0334830  65.7515411  48.1587448   1.0444597  67.2647629  48.1268463
  28.2324276   0.1609011  73.7779846  28.7374840   0.4347036  73.0123596
  27.3767223  -0.0835712  73.4255219  78.4823303  10.2269783  77.5865173
  77.8017273  10.8999853  77.5780258  79.3020782  10.7162085  77.6565475
  11.6003504  45.7610054  74.8920364  10.9007654  46.3936615  74.7290649
  11.1478901  44.9229279  74.9876404  67.4803848   9.5346622  26.2122078
  67.8680725  10.3510647  26.5275097  68.0222778   8.8470488  26.5992088
   5.0476408  57.3270416   3.8432810   5.9055848  57.3387642   3.4189861
   4.4483328  57.6717987   3.1813107  58.0972137  67.3461456  11.6343384
  58.8095016  66.7166214  11.5221615  58.4239883  68.1515274  11.2333345
  27.5122395   8.0750322   4.7094793  28.3934250   7.7042332   4.6620297
  27.5881634   8.7933798   5.3375268  58.4954872  40.2692833  64.2459335
  59.2652473  40.6458359  64.6724396  57.8456459  40.9719353  64.2608871
  67.2086639  53.0661850  36.3357887  67.6467438  53.8775482  36.0788727
  67.9158401  52.4254341  36.4104385  56.9153824  50.6298828  63.0044289
  56.0189095  50.9631004  62.9652634  57.3209877  51.1173553  63.7214241
  23.0740471  68.0824051  63.6246452  23.4477234  67.5804138  62.9003563
  22.7023315  68.8608704  63.2098579  22.7738171  39.4568367   4.3847771
  22.3385735  39.9351120   5.0905004  23.6422462  39.8550377   4.3256435
  38.6319389  62.8800011  50.4997330  39.3799095  63.2075462  50.0002480
  39.0159073  62.5275459  51.3025856  32.1203918   1.8935642  87.7719727
  32.1307945   0.9458294  87.9058456  32.1662483   2.0017836  86.8220139
  54.9129639  70.0376205  50.5915680  55.0009499  69.0868683  50.6590576
  54.8933868  70.3413696  51.4990845  83.7941513   4.5068531  60.1226654
  83.2118683   4.1681671  59.4426079  84.0396500   3.7356060  60.6336784
  32.9379463  70.8645630  87.0086594  32.3188553  70.9038086  86.2796783
  33.5335388  71.5983582  86.8568420   1.5219623  33.2315178  76.8782043
   1.2392257  32.3230133  76.7737503   0.9403268  33.5876541  77.5498428
   4.9358463  67.7832413  46.6967621   5.1989994  67.5276184  47.5808640
   4.4196634  67.0432205  46.3771248  82.5557327  66.4725189  61.2922325
  82.9098740  66.6028061  60.4125519  83.3280258  66.3769684  61.8496056
  39.2134781  55.7396278  21.1586838  40.0419426  55.9831848  21.5716763
  39.3293152  54.8219414  20.9123898  53.9517365  39.6678810   9.1250315
  54.0277634  39.7530060   8.1746607  53.3668556  40.3802414   9.3832808
  59.7956238  58.6860275   9.5768452  59.7285347  58.2104988  10.4048576
  60.6944237  59.0149002   9.5616608  66.4602051  48.6972313  22.0800819
  67.0765457  48.2519455  21.4986382  66.2092514  48.0302620  22.7191505
  16.8876686  29.0429039  81.0078430  17.6111755  28.4705353  80.7525711
  17.2629242  29.9233913  80.9953003  68.0113449  62.8993263  83.1835098
  68.5823822  62.1442299  83.0421677  67.4932327  62.6668854  83.9540634
  48.9514503  63.6895599  29.3292580  48.6976814  62.8148499  29.6237240
  49.5172768  63.5329971  28.5732403  23.1420174  42.8530235   9.2902346
  22.9260139  41.9393234   9.1038790  24.0987301  42.8805008   9.2768269
  72.0521774  14.4475088   6.0101109  72.9442444  14.5363512   5.6746135
  71.5022278  14.8493786   5.3375893  70.5849304  71.0475311  14.3381481
  70.6829910  71.4871063  13.4935265  71.4335327  71.1597672  14.7665215
  26.5475712   5.7016730  77.7963409  26.3109150   5.9039650  78.7014923
  25.9280624   5.0210924  77.5331802  25.3053474  49.2008018  75.2868271
  25.3401070  49.8847847  75.9555588  25.9237518  49.4901199  74.6159363
  86.5602798  32.0451241  42.1254845  86.5684204  32.7079468  42.8160172
  86.3764954  31.2247391  42.5831070  42.5602303  52.4970169   6.3428798
  42.7719536  51.7636528   5.7653136  42.2665482  52.0849457   7.1553941
  74.9330063  52.9975128  19.3967514  75.0009232  53.4488831  20.2381096
  75.5028610  52.2338448  19.4879589  50.5468712   7.2895212  38.3035240
  50.6467094   6.5919528  37.6557083  49.6022072   7.3517413  38.4448395
  26.4486656  11.9944010  74.6316223  26.3948555  11.1529760  75.0847702
  25.6114597  12.4199905  74.8165283  75.2317886  16.6646690   6.3664680
  75.5663986  15.7782049   6.2306390  74.9425888  16.6743259   7.2788849
  52.2101631  56.0263748  34.5036697  52.3019562  56.7363167  35.1391144
  52.3259201  56.4498215  33.6530685  34.4295692   2.0657427  60.6547775
  34.2613640   1.1270604  60.7373238  33.5597687   2.4602616  60.5912933
  46.2205658   4.9132257   0.6733059  45.3407669   4.5392485   0.7215661
  46.5526276   4.8607225   1.5695257  69.4349976  30.6475601  12.8445883
  69.5260849  31.3719025  13.4636707  70.3313293  30.3477097  12.6932220
   1.7451898  63.0410309  22.7515907   0.9986675  63.4866753  22.3511696
   2.4714901  63.2020454  22.1492672   9.8859434  31.8541183  76.8096008
  10.5473776  32.4224548  77.2042236   9.3703384  31.5361786  77.5507431
  62.1678925  65.4619675  58.3233337  62.1575470  65.1910553  59.2413368
  62.9956474  65.1227112  57.9828072   1.9041793   4.2618456  63.5271187
   1.0643724   4.7014232  63.3939743   2.4760528   4.6286125  62.8528252
  38.0387650  36.6097908  87.6758652  37.7286034  36.1049500  86.9240875
  37.2625504  36.7243576  88.2241287   9.6331196  -0.1975212  25.8132305
  10.0661726   0.6263058  26.0368500   9.1358738   0.0009528  25.0197639
   9.3267832  69.9420319   7.5354280   8.7946920  69.1591187   7.3934565
   9.5608158  70.2354813   6.6548891  74.4115677  12.0030956  79.9643631
  73.6763458  11.3906918  79.9897003  74.8662186  11.8660183  80.7954636
  44.1392059  68.5508194   2.3123486  43.8962479  67.7750931   2.8177700
  44.1882820  68.2416306   1.4077903  60.9253540  54.1311951  45.2394524
  60.9689941  55.0643387  45.0307198  60.3737106  54.0859985  46.0204010
  34.1494751  11.9639530  37.5997581  33.2075195  12.1308079  37.5664139
  34.2470322  11.0733538  37.2627907   7.7179513   8.8614912  22.2506542
   8.1908703   8.0734243  22.5181046   6.9357824   8.8702574  22.8023491
  79.5859985  69.8342209  62.7051048  79.6463394  69.1946640  61.9954872
  78.6581650  70.0669632  62.7395248  58.2057953  13.9129152  32.7012901
  57.7919197  13.1662598  32.2683411  59.0558128  13.9990644  32.2696838
  36.3862724  54.3860283  57.3586540  37.1774750  53.8541145  57.2732544
  36.6499557  55.1202011  57.9133568  86.0935287  61.4797783  31.2061481
  85.5177536  60.7670975  30.9290161  85.5897675  61.9501534  31.8703842
  74.0433273  32.5698433  24.3378525  74.5996246  32.9255333  25.0308590
  74.4876175  32.8129616  23.5256119  23.7407761   2.7139225  53.3815041
  23.2427254   3.3961613  52.9312515  23.3041191   2.6176646  54.2278481
  43.2514534  -0.0804150  77.2502365  44.0573769   0.2691062  76.8700409
  42.7040977   0.6901620  77.4013901  49.2068405   7.3072987  83.7748871
  49.5695419   6.6418991  84.3596268  49.8222771   7.3438635  83.0426788
  36.1512985  22.2991467   6.8783722  37.0470047  22.2732735   7.2149358
  35.9997292  21.4194145   6.5329347   5.8404903  16.7187901  75.4311066
   6.1435418  16.8884964  74.5391464   6.5662713  17.0000076  75.9882355
  77.7711105  40.2947540  64.4284668  77.6570663  41.0785637  64.9659348
  78.2748337  39.6968498  64.9807434  56.6922646  43.7063408  58.3486023
  56.0883942  44.3715363  58.0183220  57.3168373  44.1948891  58.8847542
  22.0576420  67.6132507   7.2144299  21.4298706  68.1371918   7.7120452
  22.6940861  68.2489700   6.8872714  70.6253510  54.8425522  60.9422150
  69.9385376  55.2675438  61.4559212  70.4311905  53.9076881  61.0097504
  26.5200062   8.8871861  55.9966011  25.8496456   9.2092237  55.3939896
  26.0262890   8.4888601  56.7134056  32.3418465  54.6246719  61.9201736
  33.1033859  54.9593239  61.4465752  31.6057758  54.7752724  61.3270874
  33.3620071   7.7354002  78.4558334  34.0251198   8.1980133  77.9434814
  32.9294395   7.1605706  77.8244171  77.0413742  43.8174095   3.7333188
  77.7016754  43.2354736   4.1095991  76.6759491  44.2831154   4.4855251
  20.9298344  31.3652325  12.5946960  20.0744286  31.4152241  12.1680641
  20.8327160  30.6698933  13.2453146  36.7260590  34.8607445   4.3207932
  35.9785957  35.3226395   4.7005100  37.3514175  35.5528870   4.1060915
  72.2078629   2.4013662  18.8286781  72.3518677   2.0586655  17.9466076
  71.8486557   3.2776265  18.6895008  65.8058243  36.1144066  45.2776794
  65.7545395  36.1812477  46.2311668  66.0683517  36.9888115  44.9900589
  20.1563873   1.6480733  54.7917023  21.1085911   1.7249243  54.7314186
  20.0061951   1.1616048  55.6022720  55.8870964  65.0782623   4.2416415
  55.6782265  64.8471146   5.1467242  55.0371094  65.2481308   3.8355649
  33.9241943  31.8729820  77.6364059  34.1423225  30.9799423  77.9031143
  33.8816872  31.8339691  76.6809464  77.8745193  35.1561623  33.6532936
  77.5709991  34.7265053  34.4529839  78.0257416  36.0651398  33.9123802
   3.6114593  71.4195709  27.9426117   3.8379982  70.5185394  27.7122593
   3.6231651  71.4322815  28.8996563  19.1872158  21.0746574  58.7072220
  18.8671379  21.8464451  58.2401810  19.9148540  20.7561359  58.1730690
  62.5436592  53.9030533  37.8166695  63.4711723  54.1304398  37.8818398
  62.2389526  54.3620644  37.0339203  47.9581642  58.1493378  30.1390781
  47.1983147  58.2907677  29.5743999  47.9042282  57.2262306  30.3864555
   1.7858479  63.8956947   4.2649817   1.8587551  63.0513153   4.7098904
   1.1213896  63.7544975   3.5905998  52.9571037  15.5603676  64.9223480
  52.8267784  16.2058067  65.6170883  53.8366776  15.7401676  64.5903091
  80.0232620  25.8491135  72.7292480  80.4103012  25.9377003  71.8582840
  79.0876389  25.9972363  72.5917664  34.6070518  18.7007389  16.5653801
  34.0839653  18.0806484  17.0734138  35.3902702  18.2084026  16.3196049
  57.6395340   4.9443502  52.2828903  58.4998398   5.1285629  52.6599503
  57.2427826   5.8065777  52.1588631  70.8593750  48.8478928  22.1199150
  71.5935211  48.2460327  22.2424774  70.1956863  48.5454903  22.7398338
  14.7892628  60.4756660  69.5290451  15.5323982  60.6666374  68.9567566
  14.8086481  61.1708145  70.1867905  29.5766106  70.8003464   2.1630709
  29.2722912  71.0849304   3.0248332  29.3172321  69.8805389   2.1091897
  70.8790665  19.6927795  63.3433647  70.5621643  20.1815186  64.1029282
  70.9199829  20.3418026  62.6409912  36.2469368  30.5211601  38.9226532
  36.4748650  29.7057266  38.4761658  36.8711586  31.1625919  38.5833206
  75.2593231  57.3655815  87.0322800  74.6230316  56.6976051  86.7770081
  76.0697098  56.8790932  87.1834106  61.2624054  51.6699448  84.0636520
  60.5028534  51.4046707  83.5450592  60.9996452  52.4970474  84.4674988
   0.7067412  26.2078476  63.4549942   0.1470315  25.4505444  63.2833900
   1.5344737  25.8311443  63.7536354   4.2398810  12.8822689  11.2975445
   4.4473939  13.7996082  11.4754734   4.7563562  12.3915253  11.9368067
  29.9849529  49.3300285  78.4268723  29.6898403  48.7862396  79.1572418
  29.2074871  49.8240623  78.1666641  50.2823143  21.9208431  76.4777298
  49.9889450  22.0782166  75.5802841  50.8291893  22.6780014  76.6871872
  52.9670525  19.9991150  15.0887022  52.9553833  19.9053001  14.1361818
  52.1652451  20.4808865  15.2917643  26.1077423  56.7875710  67.7909470
  26.2217236  56.4479637  66.9033127  26.9455185  56.6178818  68.2217331
  80.9110641  10.8433933  63.4280281  80.8279953   9.8898573  63.4380531
  80.7494888  11.1074247  64.3337936  71.2449188  22.1096478   1.5808733
  70.4921570  21.5201321   1.5355614  71.9284439  21.5929489   2.0075476
  76.4362259   2.9506838  19.3416443  76.7181091   3.1388607  18.4464531
  77.1619186   3.2502737  19.8892307  68.7128830  29.5260429  24.3945217
  69.1510544  28.9057045  24.9771194  67.7805710  29.4078674  24.5763645
  67.9124756  68.0177765  19.5859833  68.2943802  67.5580292  18.8383121
  68.6665802  68.3404236  20.0794029  82.4808273  43.2907257  25.6456470
  83.4199829  43.4397736  25.7552185  82.3889465  42.9981041  24.7389145
  42.6431236  63.9794769  37.1538200  42.0040665  63.8084335  36.4620285
  42.6169777  63.1959877  37.7030869  26.9283485  12.7288857  28.8649101
  27.3401089  13.3946571  29.4157562  26.2298107  12.3659763  29.4094944
  26.7787952  45.8227615   9.1234179  26.7662983  46.2050972  10.0008535
  27.6480389  46.0336876   8.7826023  69.7161942  38.4410782  12.1759138
  69.5171051  38.2713509  13.0966682  69.8276978  39.3904533  12.1260366
  20.3493404  63.5537262  70.8463440  20.7121620  64.4394989  70.8472824
  21.0506077  63.0072746  71.2010880   3.1956859  43.0651283  44.3425026
   2.7418897  43.6043243  44.9902458   4.0726600  42.9417000  44.7056999
  35.2313995  45.6530418  76.1741486  34.5306358  46.2105026  75.8359222
  35.4424477  45.0663986  75.4478302  28.4807129  21.4223576  20.5189667
  28.1077461  20.7112141  21.0399323  29.2662239  21.0436363  20.1242847
  48.1495667  56.8414230  78.2927551  48.8900261  56.4887390  77.7992401
  48.5333672  57.1472816  79.1145706   6.3099842  21.6872711  26.4003601
   7.2500162  21.8653908  26.3712978   6.1350832  21.4727077  27.3166599
  49.4640579  57.5039635  81.2800522  49.0503006  57.7067146  82.1190567
  50.3932114  57.6856422  81.4211121  63.3822556  10.6807842  22.2111111
  63.4398232  10.7684317  23.1625500  64.2062073  11.0443325  21.8868046
  80.4789963  17.1182060  49.8581390  80.0330658  17.8206806  49.3849449
  80.0719681  17.1170521  50.7244873  70.4844971  23.0568123  66.8467484
  70.2121048  23.9467564  67.0704269  71.4339600  23.0592937  66.9681625
  55.9062271  47.5855980  12.9911356  55.1516685  47.4331512  12.4222460
  56.1501236  46.7144928  13.3040619  24.6861496  51.2065048  35.0665665
  25.2504444  50.5666733  35.5006371  25.0129318  51.2431679  34.1676216
  16.6047592  18.2657967   2.2107804  16.2767677  17.4689560   2.6275506
  17.2379284  17.9545498   1.5638988  39.8401871   4.8659592  41.8131790
  39.0065613   5.0580449  41.3837585  39.6767120   5.0366139  42.7407494
  73.7346802  38.6017952   3.7687716  74.4723206  37.9920692   3.7873352
  73.1406555  38.2391510   3.1116157  61.0187454  60.3841705  15.8171759
  61.4690781  61.0394096  15.2841711  60.4572868  59.9169426  15.1985540
  67.9767532   1.6559260   8.9742727  68.0029831   0.6995660   9.0045967
  67.7759171   1.9186226   9.8725424   6.7397604  41.8153763  33.3938103
   7.4572034  41.5754280  32.8073540   6.3426619  42.5841064  32.9844208
  61.7201767  16.4414902  82.8294678  61.5318565  16.1530914  83.7225494
  62.6699066  16.5593987  82.8110962  10.2895203  53.3518829  70.8803558
  11.1102209  52.8955688  70.6947250   9.6144123  52.8016319  70.4832611
  72.8742294  57.7585411  18.8643665  72.4339981  58.6081581  18.8403587
  72.6828156  57.4141731  19.7367210  37.3936615  43.9858055  66.7247849
  37.9099770  44.4185715  67.4047623  36.8803711  43.3290558  67.1953659
  85.8284225  21.5763283  53.1056595  85.7910538  21.0059032  53.8734169
  84.9161835  21.8133888  52.9387741  31.9104252  62.9251060  80.7037201
  32.4312935  62.5901909  79.9738235  31.0318737  63.0356064  80.3401718
  45.9045372   5.6543427  31.6806450  46.4228172   5.1354389  32.2957535
  46.4591141   6.4071202  31.4756947  64.0685425  24.5421219  34.9300346
  63.8472023  23.7270184  34.4796486  64.3735123  25.1248493  34.2345810
  84.3922119  19.7810612  48.0942955  85.0193787  19.1203556  48.3881760
  84.6430054  19.9633045  47.1886902   9.3514519  51.0649567  88.8210678
   9.6032114  51.5874748  88.0596008   9.9084806  51.3891449  89.5287704
  23.3161182   9.1116257  28.7719593  22.6713638   8.7291803  28.1767635
  23.8148804   8.3625832  29.0981541  35.3530884  61.9703369   8.3450232
  35.4666862  61.7088928   7.4312544  35.4355240  62.9239120   8.3333330
   2.9110487  47.0384865   6.2086644   2.0627081  47.3196831   5.8659158
   3.5070796  47.7548523   5.9900379  62.1832085  59.7984505   9.1742802
  63.1349564  59.7151527   9.2331705  61.9852486  60.6141396   9.6343861
  27.1771927  11.4939117  38.7764397  27.9692593  11.1489515  38.3642921
  26.6912804  10.7159224  39.0500374  57.3133316  16.2148743  36.7686386
  58.2660027  16.1389866  36.8224220  57.1336136  16.3174324  35.8340721
  12.5554008  65.6568680   0.2541890  12.0260620  64.8856888   0.4574479
  12.4945803  66.2025528   1.0382534  80.4114380  52.2462196  37.0665436
  80.2017746  51.4423180  37.5419502  79.6631546  52.8212509  37.2266541
  34.9017067  16.0544109  26.4974880  34.3851662  16.8162842  26.7601013
  35.7924614  16.3910007  26.4000454  13.6506653   5.9728642  86.4649353
  13.2390223   5.1320820  86.2652740  13.2658720   6.5832882  85.8360138
  22.8886070  58.8512039   7.1472502  22.8005543  57.8981361   7.1589179
  23.7438774  59.0175896   7.5435596  15.9446383  15.3458443  26.2303429
  16.2259121  16.2552013  26.3312626  16.3860016  15.0453815  25.4358921
   8.7635670  30.7999287   0.2768980   9.5989571  30.9065514   0.7318560
   8.3168507  30.1024551   0.7566964  10.8492908  44.6962166  39.6416435
  11.2598619  43.8759308  39.9151344  11.5065174  45.1208382  39.0903015
   8.7372131  19.8777142  60.7838364   8.8854275  19.7549438  61.7214890
   8.2067099  19.1243439  60.5245476  64.1153259   2.8986928  40.4384575
  63.7057495   2.0366430  40.3653069  64.6997528   2.8229644  41.1927414
  65.1308517  62.3470497  14.1361008  64.9925766  62.9658012  13.4189835
  66.0819702  62.2561569  14.1939754   6.7020516   0.4585028  48.4264107
   6.4957910   0.7710842  49.3073120   6.8991547  -0.4710078  48.5421371
  74.0276260  49.1574211  88.9525909  73.9321136  48.3182182  88.5022049
  73.1309967  49.4745445  89.0608673  78.4645309  47.7541046  31.5416336
  79.3099976  48.1989708  31.6008472  78.5784378  46.9539986  32.0545540
  82.2139130  11.0952835  56.8062096  82.5776825  10.2163763  56.6993217
  81.2783508  10.9515810  56.9487228  -0.2585426   8.4637909  34.7800217
   0.1118814   7.5929213  34.9235611   0.3435293   8.8816490  34.1642799
   6.4971924  41.4633789  65.7701035   7.1497331  41.9247704  65.2432861
   5.7175198  42.0167656  65.7242050  86.0236130  41.1538811  61.3152351
  85.2482681  41.3783493  60.8007545  85.8264236  41.4712677  62.1964912
  11.8463573  47.9573936  50.7449989  11.6633387  47.7560844  51.6627197
  12.5506573  47.3557701  50.5036697  86.8738098   2.2722981  12.2627068
  87.0296936   3.1958537  12.0652790  86.0306168   2.2632093  12.7156677
  65.8059921  55.3764687  72.5341415  66.5730591  55.5478592  73.0804672
  66.1576920  54.9424324  71.7568741  78.3435364  34.2807159  66.7559204
  78.0146255  33.3889923  66.8694305  79.0477295  34.1962509  66.1131058
   5.5248694   1.0499431  26.2938690   5.1471133   0.3877781  26.8727207
   5.0050445   0.9919348  25.4922142  62.1003723  28.8535690  57.7143974
  62.0862846  29.5132065  58.4078751  62.9000015  29.0402393  57.2224846
  68.2676544  39.3638268  24.2326260  67.4810410  39.1315117  23.7391720
  68.9888535  39.1987038  23.6253052  29.4592247  57.7276421  30.7569656
  29.0139561  56.8896523  30.6315136  30.2567863  57.6559448  30.2325726
  26.3622036  49.6179962  71.7641144  27.1549931  49.4778633  71.2463531
  26.1517467  50.5427170  71.6343842  81.9541855  17.6781292  24.4328918
  82.1613770  17.4766979  25.3454304  82.6296692  17.2250233  23.9282684
  39.6448669  50.3098564  67.4770737  39.5015297  51.2533684  67.5510330
  40.5965996  50.2142868  67.4409637  34.9646454  28.9208107  86.9429092
  35.4246178  28.0903320  87.0652313  34.9224319  29.0336266  85.9933243
  84.3384171  60.2318039  87.8856812  83.6938477  59.7867699  87.3354874
  84.0020599  61.1234779  87.9751816  20.9961376  21.6059685  24.9828758
  20.6855068  21.1079464  24.2267590  20.5682869  22.4582520  24.9004936
  52.1175804   2.3748639  70.9599533  51.5650139   1.6081972  71.1120224
  51.4999428   3.0993752  70.8607483  83.6387253  24.9569283  50.9328003
  84.5356369  24.8990898  51.2620926  83.6992111  24.6703854  50.0214996
  57.5354462  54.5144844  66.5572052  58.3415680  54.9068184  66.8925705
  57.0032654  55.2603455  66.2802429  83.1084747   2.9256663  63.3265686
  82.5036011   2.2126894  63.1215668  83.8234863   2.8211136  62.6988335
  51.7992783  57.1434441  59.3022118  51.5773239  58.0036812  58.9459000
  52.6833191  57.2504463  59.6532898  16.4189529  60.3316879  19.1345272
  16.0060387  60.9461098  19.7413387  16.4474792  59.5038986  19.6142979
   5.4996576   3.5826232  74.3558502   4.5547099   3.5814760  74.2031860
   5.7510600   2.6602471  74.3084030  70.5771332  56.0780754  66.9039383
  70.6274261  55.2263680  67.3378677  69.7046585  56.4064293  67.1212006
  57.8068771  62.7823792  70.9991379  57.9261475  63.2667389  71.8160858
  58.1895027  63.3472366  70.3277512  47.0724869  54.3010330  37.3777084
  47.4881859  54.2167892  36.5196114  47.3851357  55.1409531  37.7138824
  83.9751511  63.2440262  32.2390213  83.3233261  62.8690834  32.8312874
  83.8056564  64.1858292  32.2616158  19.4676685  59.8324356  24.5521908
  19.9937401  59.7165451  25.3434219  19.1214809  58.9599228  24.3648129
  84.5755386  70.7011642  25.4565296  85.1182175  70.6664200  26.2442627
  84.9247437  71.4395599  24.9574795  33.5707512  12.0988789  16.5464973
  33.0505943  12.6317616  17.1479187  33.3996964  11.1966906  16.8167343
  68.3406677  39.5165710  14.7845869  67.6033936  40.0150452  15.1369915
  68.8347015  39.2413673  15.5568724  84.3760147  10.0679121  18.8275681
  84.7087784  10.9358120  19.0561409  84.3538513   9.5933962  19.6585770
  29.9071865  49.9852829  17.6010647  29.2014313  49.8017578  18.2211113
  29.7429886  50.8822212  17.3099041  10.3785734  17.0670490  39.9377365
   9.7946882  16.4121208  40.3203278   9.8380308  17.8530941  39.8591347
  63.1736526  59.9250870   2.8940353  63.7980843  59.7960548   2.1801252
  63.0603180  59.0536728   3.2735372  77.9804764  18.7186317  44.1742287
  77.5989532  18.3001919  44.9459686  77.2628632  18.7544155  43.5417938
   8.0597954  59.9979630   2.4423103   7.2074370  60.4260139   2.5228622
   8.6910992  60.7173843   2.4533176  52.7994804  69.8663940  11.4252625
  53.4637985  69.6163483  12.0674362  53.0229492  70.7662582  11.1874723
  49.4551392  16.2556000  40.7081299  50.1784821  16.6183910  41.2193947
  49.1512680  16.9870205  40.1706200   3.6431668  64.8131561  48.7692642
   4.2936778  65.4335632  49.0981407   2.8794391  65.3527603  48.5648651
  50.9908028  34.6342850  56.2982254  50.6664162  35.5248795  56.4318237
  50.2831993  34.1890564  55.8320694  75.5349884  12.6159153  53.0205078
  76.2154312  12.7631617  52.3635826  75.6172562  13.3569288  53.6208076
  19.8030777  45.3586693  77.6786118  20.6329365  45.4920769  77.2206039
  19.6227493  44.4237823  77.5801163   5.3235583  32.2826881  72.9180374
   4.4519615  32.4442635  73.2792130   5.4430852  32.9710655  72.2637558
  17.5736046  67.7634888  14.8851500  17.0463276  66.9660263  14.9327536
  17.8927116  67.8932953  15.7782087  37.9444275  71.5552292   8.8541460
  37.9229469  71.1330566   7.9953408  38.0892944  70.8372650   9.4704065
  14.6115618   7.5637708  61.6146431  15.3618774   7.3282499  62.1603394
  14.9793692   7.6788101  60.7384491  59.6635361  62.1863365  35.0260735
  60.5163116  62.4486008  35.3728104  59.8704071  61.5818558  34.3133049
  75.6087112  22.6726189  24.6024113  76.2864380  22.8076878  25.2647324
  75.0134048  22.0344334  24.9955616  42.3223267  22.2259426  13.3939209
  42.9104233  22.9680710  13.5340023  42.2568207  22.1485939  12.4421024
  84.3516922  35.7872467  23.0825539  84.9276810  35.4496002  23.7684574
  83.8672028  35.0201302  22.7775383  78.8453598  18.9890270  61.9423447
  78.5976257  19.2959309  62.8145103  78.1843109  18.3325024  61.7227364
  18.3861904   1.0594019   7.9522753  18.6962490   0.2979038   8.4423933
  18.9921150   1.7608747   8.1910677  26.2757149  56.8431396  49.3323021
  27.1684856  56.9786606  49.0147743  25.9111557  56.1799164  48.7462463
  26.6808281  17.5944633  26.3432846  26.5208931  17.4895649  25.4053879
  27.2403278  16.8532486  26.5752182  25.7846794  44.9015274   6.8637710
  26.3795223  45.2252693   6.1873226  26.1773777  45.1919174   7.6869926
  80.9639206  43.1833839   1.5567583  80.0496140  42.9624786   1.3793285
  80.9913483  43.3510742   2.4987555  52.6019897  11.7888021  17.3508453
  53.0094376  12.2677336  18.0725403  53.3010788  11.6891146  16.7046490
  20.7445831  11.5133810  77.6541977  21.5515594  11.1473694  77.2921829
  21.0254326  12.3050489  78.1131287  72.0024567  20.4728107  78.6831818
  72.7231140  19.8504086  78.5856857  72.0556488  20.7599468  79.5947495
  77.4978256  34.9581070  44.2610016  77.3459625  35.2550507  45.1582184
  77.6394958  34.0148888  44.3416252   2.7509513  61.5207558  51.5566750
   2.0733263  61.1911201  52.1469269   3.5228252  61.6256142  52.1129532
  69.1691666  15.3939266  53.2392960  69.1096802  14.4822807  52.9536514
  68.3839417  15.5305614  53.7693710  76.1695099  63.1885109  64.9524002
  76.3391495  62.9529800  64.0402679  76.9214096  62.8422318  65.4329987
   1.9291413  35.3578033  38.3849030   1.2730995  35.9978905  38.1089897
   1.4964155  34.8529167  39.0734329  61.0088959  70.2734604   7.3977742
  61.2665749  70.6749954   6.5679517  60.2533684  69.7291641   7.1760712
  71.3876801  11.1222248  56.6136208  71.9403381  11.7619123  56.1646309
  71.6194687  10.2835617  56.2146912  51.7803802   1.3245709  57.6018181
  52.3626709   0.5858434  57.7791519  52.1495819   1.7386903  56.8218002
  30.8565903  31.7792225  84.9511642  30.7392273  32.5143814  85.5528336
  30.9795818  32.1881256  84.0944824   2.9701955  19.8052254  81.9530182
   2.3477323  19.8712063  82.6771851   2.4405539  19.5245132  81.2067566
  63.5459404  67.8416443  70.3238678  63.4090919  68.4112778  71.0808487
  64.3363953  67.3457108  70.5370941  70.5974197  31.1652412  18.1746826
  70.5608826  30.3936958  18.7400265  71.1763992  31.7725239  18.6353550
  85.8623581  54.3926353  11.4162598  85.8284683  55.1471405  10.8282042
  85.0378036  54.4295502  11.9010029  71.7041168  57.4271812  69.4944992
  71.9675598  56.5482330  69.2219543  70.7474594  57.4097099  69.4673080
  46.8518143  64.6255951  12.2655983  47.7291183  64.3781662  11.9734402
  46.3984337  64.8898621  11.4650745  29.6740971  60.7465324   5.0560088
  28.9332905  61.2205391   4.6781845  29.2882233  59.9495316   5.4194989
  86.1898117  13.8202829   9.2322578  86.8765717  14.4870148   9.2244797
  85.3728104  14.3175173   9.1935253  70.0855484   9.1715975  52.8101425
  69.7587509  10.0680189  52.8867188  71.0370483   9.2576942  52.8690224
  18.3258476  57.2736053  58.3391533  17.4089165  57.2164307  58.0704536
  18.8200703  57.1896400  57.5237236  66.1908493   9.0479422  55.1669960
  66.7876511   9.6409235  54.7104530  65.3362961   9.4749584  55.1067162
   0.2511674  12.3431931  30.0201225  -0.5546908  11.8512516  29.8625851
   0.9477215  11.7716494  29.6970387  75.3744888  59.6073685   0.7529201
  76.0670242  60.0468941   1.2463157  75.8405685  59.0277176   0.1504237
   2.7077584  31.3941879   3.5431526   2.2298155  30.9155502   4.2204323
   2.1156719  32.1011200   3.2864201  68.7621765  12.8531380  29.9179688
  68.4962692  12.4028788  30.7197113  68.4884109  13.7606716  30.0508919
  42.6827965  47.3132858  26.9758091  42.5874214  48.2652588  27.0056305
  41.7870827  46.9808846  27.0344334  56.1314316  51.0498734  44.2576027
  56.8733330  50.4700966  44.4298592  56.0649757  51.5935020  45.0426407
   6.5904818  18.0105114  59.8025627   6.6551213  17.1091118  60.1180534
   5.8742127  18.3913231  60.3106689  61.5100708  25.5106144  22.1030922
  61.6175842  24.8613300  22.7981472  61.0985298  26.2587261  22.5357513
  35.5495186  66.7033310  25.7592525  35.0344810  66.3839798  25.0183182
  36.4536095  66.4825897  25.5353661  27.8785629  59.1043472  60.5137978
  26.9639206  58.8437500  60.6221924  28.3566952  58.5695572  61.1475296
  10.2793026  66.3167496  23.0601788  10.6127348  65.4816971  23.3884182
  11.0111151  66.9247513  23.1651192  81.4560013  32.4414978  49.2267532
  82.3483734  32.1604767  49.0244484  81.1857834  31.8775425  49.9514427
  80.8697510  21.8115177  17.3281651  80.2698135  22.1977272  17.9662457
  80.6003723  22.1854916  16.4892330  38.7685356  48.9725189  22.2894421
  38.4153023  48.0968094  22.1326103  38.2272873  49.5492020  21.7502594
  38.4651756   1.5530603  20.9277878  38.7371101   2.3572474  21.3700180
  37.5090103   1.5965047  20.9183273  63.8965454  66.8253250  32.7341614
  64.3626022  67.6599274  32.7838211  63.0165596  67.0229568  33.0547829
  73.4225845  34.0661850   3.7767794  74.3019791  34.0882607   3.3993957
  72.8482361  33.8767700   3.0348377  81.1032791  52.0219803  58.4370499
  81.2998962  52.5240631  57.6461716  81.8603668  52.1639671  59.0052872
  29.6360855  32.4907608   2.1928678  29.2523956  32.6597252   1.3323643
  29.7470417  31.5404987   2.2232323  49.1549606  47.8323708  79.6977692
  48.8225517  47.2684593  78.9993820  48.9710426  47.3494682  80.5035019
  54.3965340  48.6636772  81.4028244  54.3055382  48.0163956  80.7035522
  55.2992592  48.9728317  81.3270416   7.8502789  67.7735672  88.6327286
   8.5191460  68.4496155  88.5240631   7.0273628  68.2585602  88.6945496
  46.6968460  40.9415970   9.3133783  46.9951401  40.3286972   8.6413631
  47.5001945  41.2362862   9.7423534  25.9523640  55.2662163  56.0168076
  26.4682674  56.0329819  55.7675095  25.9695396  55.2668266  56.9738541
  -0.0824413  21.6878395  58.9967957   0.8555463  21.8612156  58.9170990
  -0.1610616  21.1544037  59.7876816  39.1815033   1.6490723  82.5677109
  38.9452019   2.2802384  81.8879929  39.2532120   2.1723740  83.3659897
  34.6182365  42.2216377  65.6469574  34.6864433  43.0721512  65.2131271
  35.0400047  42.3515244  66.4963608  41.1107521   9.6984034  14.0867109
  40.9571915   8.9681387  13.4872408  42.0494614   9.6638870  14.2707367
  80.3039703  61.8907356  58.9650574  79.3694229  61.6858673  58.9354019
  80.3380203  62.8451767  59.0292397  52.4403305  40.7411690  24.2966690
  51.5090408  40.6152267  24.1148071  52.7676315  41.2308273  23.5421219
  72.6013031  67.2520447  61.2391205  73.4038849  67.0950165  60.7416878
  72.8789673  67.2301941  62.1549034  59.3115425  23.8704510  68.0593414
  60.2440948  23.9037685  68.2725754  58.9206886  24.5688648  68.5843964
  18.2782154  31.4007053  80.7554016  18.4514294  32.3110504  80.9951935
  18.5742874  31.3316040  79.8477707  41.6856956  44.1978874  72.6862183
  42.2510300  43.4486160  72.8738861  42.2409782  44.7982292  72.1887436
  58.6080513  54.5513039  31.3263111  58.3406181  53.6655464  31.0810699
  58.4156532  54.6091042  32.2621918   7.3029299  27.5497990   4.3984761
   8.1118402  28.0012894   4.6394167   7.5193400  26.6196442   4.4633837
  53.7669792  39.5937347  17.9964504  54.4858055  40.2258034  17.9929371
  52.9862785  40.1178856  17.8175526  62.9430542  21.9906940   0.5227506
  62.6108246  21.0956059   0.4543871  63.8748169  21.8862629   0.7154639
  24.1583862  56.6359024  21.2767010  23.7765408  55.7793579  21.4684143
  24.8922138  56.7128983  21.8864574  19.6552658   0.7354131  57.3874435
  18.7571735   0.9899631  57.1756248  19.5596542  -0.0210434  57.9661179
  11.2208967  39.7691536  56.7085609  11.7580938  39.1865349  56.1717110
  11.5850277  40.6407967  56.5540199  19.2054310  46.9888382  33.9643021
  18.6012764  47.6439819  34.3136101  20.0674114  47.4002571  34.0272026
  57.4614525  48.7089958  46.2086830  58.2413063  49.1951866  45.9409637
  57.4082260  47.9815254  45.5888519  66.2218323  52.8541031  80.4772415
  66.6993256  53.5773354  80.8836517  66.6759186  52.7031517  79.6482391
   4.8173642  16.6117878  62.4111290   5.7440124  16.4374313  62.5759163
   4.8024020  17.4920197  62.0353622   7.8773570   2.1142251  64.3770828
   8.7461481   2.0400062  63.9822083   7.9252067   1.5724850  65.1647797
  46.8673401  25.2162037  81.6189499  46.6969986  26.1501865  81.4969101
  47.0835533  24.8957577  80.7432785  25.9937935  42.8206825  16.2168694
  25.5192356  42.2392426  15.6227722  26.0497017  43.6515694  15.7449245
  22.0969696  54.8124123  46.2621841  22.7979870  54.1648598  46.3362083
  22.4848976  55.5289917  45.7599297  58.2947693  28.7178211  29.4642315
  58.3158493  28.6187630  30.4160595  59.0556030  29.2627678  29.2632332
  52.7980499  52.2928085  11.8383818  53.4443016  52.0856094  11.1633587
  52.8971481  53.2336502  11.9840927  49.7662735   8.2436724  60.8279648
  49.2225571   7.5839305  61.2584801  50.6580048   7.9033041  60.9000549
  80.4468002  65.2820740  62.9381104  80.9604874  65.6444473  62.2162781
  79.5505524  65.5680466  62.7614784  23.7888451  45.8633652  10.1261892
  23.6865215  45.7513809   9.1810856  22.9249859  45.6623001  10.4861193
  26.3547802  28.2720509  22.0820732  26.9138470  27.8503017  21.4295368
  26.0427113  29.0680008  21.6515999   5.2881021  30.7781296  59.0317192
   4.9581199  30.1845951  59.7063026   5.5478406  31.5648556  59.5111237
   8.8121634   0.6954463  43.7758980   8.5224791   1.5274651  44.1501427
   8.1795607   0.5120617  43.0813370  47.9816818  70.0238113  45.3243637
  47.5229836  70.5321426  44.6554680  48.0402908  70.6141586  46.0755539
  58.7564125  40.7649040  77.5434570  58.4517326  41.0227318  78.4134674
  58.4100266  39.8810768  77.4205551  66.3863297   6.2173772  79.8401871
  65.6855087   6.5387754  80.4074478  67.0935059   6.8531303  79.9495087
  17.7302437  21.8499413  26.4963741  17.2050877  22.1289520  25.7463112
  18.6270332  21.8200951  26.1630421  36.0317955  64.0076294  29.9712982
  36.4870529  64.2509155  29.1652069  35.3743401  64.6929016  30.0912228
  30.6699009  36.6480026   2.4281719  29.7634182  36.8149071   2.6863654
  30.7854042  35.7062378   2.5545337  57.3962860  18.6433945  62.5323563
  57.6343536  19.5643311  62.4254417  58.1334229  18.1605091  62.1586189
  76.7504883  37.7361565  84.1785507  77.6511993  38.0599861  84.1697388
  76.6282578  37.3922539  85.0634384  22.0151596  62.4949913  20.7820683
  22.0318851  62.2120399  21.6963387  22.4395256  61.7830582  20.3032169
  56.8488846   8.3606138  18.4181156  56.0411568   8.2605915  18.9219036
  56.5729637   8.7824917  17.6044102  33.8188438  29.9425259  23.7743950
  34.6740952  30.3447609  23.9260082  33.7012329  29.3444443  24.5124302
  46.6096764  58.9688835  82.7352753  45.7064400  58.6689835  82.8375320
  46.8333130  58.7512589  81.8303680  33.8068886  38.3735428  18.7592010
  33.3119583  38.8297806  18.0786705  34.4187813  37.8167229  18.2777729
  60.4470673  57.7660942  39.2226295  59.8909035  58.5129852  39.4441338
  61.3265648  58.1363258  39.1474991  40.7651405   3.7305107  33.5177803
  41.0472107   3.2177157  34.2752151  41.3582344   4.4816718  33.5027771
  78.4020996  43.2177773  40.5518875  78.3142090  42.4094696  41.0570068
  78.7644348  42.9369164  39.7116165  35.9809914  63.1969986  45.2620392
  35.0348549  63.1404953  45.1283760  36.3576393  62.7775383  44.4884605
  68.4266663  27.8923912  69.5131683  68.7053375  28.6327553  68.9742508
  68.0288086  27.2811890  68.8931885  11.9317942  60.7498131  10.6350346
  12.4050665  61.4768829  11.0395336  11.1813650  61.1614075  10.2064581
  37.5904770  55.6704063  75.0420837  37.7202797  56.2983513  75.7527618
  38.4201622  55.6740150  74.5647583  16.8251019  10.0123301  26.2119999
  16.9974365  10.5453444  26.9881630  17.6041260   9.4637318  26.1203899
  57.3064575  10.3877583  14.8312101  58.2433662  10.5813055  14.8000917
  56.9704361  10.9429550  15.5348282  42.2682762  38.2451477  21.0618248
  41.9639244  37.4245071  20.6743355  41.7144737  38.3656807  21.8331909
  27.3589058   9.5437222  30.5682812  27.1483784   8.8133841  29.9864578
  28.2758732   9.4046764  30.8050632  77.6371841  45.2574348  52.3237495
  77.3133774  45.4561005  51.4451637  78.4574661  44.7867737  52.1759453
  25.2447052  46.4460526  88.0026093  24.9292774  46.2281647  88.8796844
  25.3957043  45.5981522  87.5848846  64.9917984  63.7703705  60.3344460
  65.1567154  63.2826233  61.1413765  64.3125916  63.2673759  59.8851089
  41.9611092   0.2952215  64.8391724  42.9106598   0.3002312  64.9598389
  41.8289452   0.6599808  63.9641190  28.8609810  20.5369034   2.9713993
  28.0563335  20.1132107   3.2701588  28.8233604  21.4156876   3.3489649
  11.4955788   1.9624918  10.6004210  11.8362885   2.6200166   9.9939470
  12.0257416   1.1835674  10.4317894  45.2554016  35.1737404   3.3197801
  45.2830009  34.2212181   3.4101906  44.3335228  35.3721123   3.1554008
  47.1424751  13.8884583  63.3105812  47.3504143  12.9816217  63.5356178
  46.4730072  14.1451340  63.9447403  40.6988754  15.6319675   0.8312945
  41.0817451  14.9672184   0.2588000  39.7538605  15.5052767   0.7468576
  46.7094803  42.9230461  72.6730194  47.1756706  43.6600571  72.2784119
  47.2789764  42.1692696  72.5189819  51.5579796  24.3349915  58.1489677
  51.6724625  25.2323303  57.8360634  51.6029625  24.4062443  59.1024513
  55.7170525  52.9177704  75.2508850  55.1941147  52.1926842  75.5929718
  56.4080238  53.0425453  75.9014435  86.2990570  52.4939690  53.4709435
  86.3755646  51.5556450  53.6439285  85.3907166  52.7041893  53.6876450
  54.9284477  18.5825787  68.2272568  54.3650398  17.8138084  68.3155441
  54.3238945  19.3037415  68.0521240  56.7320290  26.4052143  73.7608948
  56.8389664  25.4950428  74.0372696  56.2690811  26.8231869  74.4869843
  52.6803398  68.1896591  78.4050369  52.9034805  68.5481415  79.2640610
  53.4391899  67.6590652  78.1624527  79.3474579  22.9887047   8.6606083
  79.9046402  22.2201347   8.7834377  79.1318207  23.2726383   9.5489292
  29.8443794  15.6377840  22.6901531  29.9055443  15.6319265  23.6453800
  29.9056530  14.7157297  22.4405689  27.7167931   8.6371679  -0.0507035
  28.5784950   8.7769175   0.3419415  27.2847614   8.0153303   0.5348728
  49.2969894  70.5895996  14.6178370  48.8504868  69.7477951  14.7085342
  49.3867607  70.7125092  13.6728153  11.1937590  49.6310349  24.8641930
  11.8925524  49.5023575  25.5055676  11.5330048  49.2405624  24.0587864
  27.1530972  20.5008335  14.0905094  27.2332726  21.1590042  14.7808828
  27.9208126  20.6404934  13.5361252  59.5124397  28.8765755  59.5727463
  60.2345772  28.5174313  59.0572205  59.9393044  29.4032650  60.2484818
  81.0215149   8.3564348  77.3087616  80.4364548   7.6327934  77.5329971
  80.6617661   9.1094007  77.7776413  78.3622208   8.2761936  88.1912994
  77.9262009   8.8172550  88.8496094  79.0557251   7.8253145  88.6729507
  66.7188492  14.8415565  46.0138245  67.2489166  15.6251621  46.1594887
  65.8994141  15.1717749  45.6454315  65.9213562   2.0456252  88.6646271
  65.4054489   1.3170784  88.3192368  66.1832581   1.7599221  89.5398483
  22.3185349  62.1379738  72.1741104  22.3855228  62.0986290  73.1281509
  23.2089825  62.3285713  71.8791428  59.5234375  26.6812229  50.0977859
  58.6875610  26.8765392  49.6742325  59.4582863  25.7579689  50.3418961
  45.3646049  20.7737274  19.8556156  45.7229843  21.6611652  19.8713665
  45.4049530  20.5154343  18.9348068  49.5992012  71.8644562  78.2424393
  50.0138817  71.1775131  77.7205353  48.7579308  71.4908829  78.5049896
   4.2235570  69.9724045  25.0011673   4.9569383  69.5621490  24.5428295
   4.3471990  69.7276764  25.9182568  64.9546204  10.5425653  80.4759064
  64.7015152  10.7841187  79.5849380  64.6282272   9.6492195  80.5837479
  39.4509926  37.4550323  16.2212620  39.4518814  38.1626396  15.5766535
  38.5283852  37.3391075  16.4483986  12.7474451  49.5201988  27.4040756
  12.3816261  50.2847137  27.8489628  12.1582747  48.8027344  27.6372185
  78.6923294  31.6546879  73.8401871  79.6064072  31.7261105  74.1151276
  78.3693161  30.8704872  74.2839432  70.2776031   2.8387923  67.8257675
  70.7245483   2.3231289  68.4970093  69.7373962   2.2034976  67.3558655
  46.5070686  -0.0140265  43.5387650  46.2875137   0.5022407  44.3143234
  45.6605263  -0.2881609  43.1859932   6.1340022   7.5954709  64.9494324
   6.6286917   6.7872291  64.8143005   5.6590118   7.4515634  65.7679138
  45.3146172  53.6927757  22.3329277  45.7408562  53.8559799  21.4915504
  44.7686043  52.9217491  22.1792412  14.4212952  62.3055267  66.1285782
  14.9811125  63.0751801  66.2309189  14.9898911  61.5656891  66.3420486
   5.7147760  29.6644192  51.4744530   5.3621645  28.9791126  52.0421257
   5.2333918  30.4532661  51.7238884  36.8812866  61.9511185  56.8872452
  37.0088463  61.5575447  56.0240784  37.7152100  61.8165283  57.3374557
  77.5125885  28.1290417  85.2713852  76.5669861  28.0588474  85.1404724
  77.7103882  27.4769058  85.9435654   8.2133312  14.3185120   7.6258736
   8.3534365  14.0454998   8.5325527   8.0748768  13.5006819   7.1481528
  72.0194321  51.1806870  55.3927803  71.4453888  51.8520966  55.7614441
  71.4219742  50.5421524  55.0034943  85.9373245  51.5514450  70.9610748
  85.7524490  51.6813431  70.0309219  86.8076172  51.1533165  70.9789734
  69.0817642  41.6604347   0.4286062  69.4813690  42.4022369   0.8827894
  69.8114090  41.0667076   0.2515861  73.6785889  51.8582878  86.8266296
  74.2631989  52.3161316  86.2226105  74.0630569  50.9864082  86.9174271
  77.9936905  38.3596878  39.6147766  77.4127045  37.7030716  39.9988861
  77.7715530  38.3607292  38.6837082   0.1885608  30.1942692  28.8440914
   1.0184544  30.0823307  29.3077488  -0.4105777  30.5402870  29.5055561
  43.3205528  20.9443359  83.9317627  44.1528435  21.0775337  84.3853912
  43.2348404  21.7069855  83.3597031  72.8056641  35.3795471  29.2274818
  72.6772385  36.1315460  29.8056145  72.8135986  34.6241341  29.8152885
  56.4590378  15.2209549  26.8793755  56.6556053  15.0335073  25.9615211
  57.3154831  15.3557663  27.2850380  31.6593933  50.8301735  39.2065125
  31.5707092  50.8523102  38.2536888  30.8838577  51.2886086  39.5299568
  53.9586029  43.7104263  20.1238365  53.4438324  43.7009315  19.3168964
  53.4411087  44.2383766  20.7318611  72.9014282   8.6774426  63.1584282
  73.1039963   7.7502456  63.0339203  72.4674835   8.7154417  64.0107651
  14.2763338  52.6354790  47.7090263  14.7988214  52.5868111  48.5095711
  13.3758469  52.7390060  48.0166588  77.5655823  61.0332680  58.8170280
  76.7288132  60.8665886  59.2509308  77.5298615  60.5076370  58.0178604
  50.7556534  18.3364525  14.0539331  50.4262886  17.4451332  13.9386196
  50.4404640  18.5982208  14.9190130  24.8655605  67.1163101  87.4647903
  24.7362614  67.8172760  86.8259125  25.5369263  67.4536133  88.0578537
  68.3624725  32.1617279  89.0753632  67.6601791  31.5783672  89.3629532
  68.0456238  32.5294571  88.2503662  39.6359367  60.4367714  48.7476082
  39.1394806  61.0323792  48.1863480  40.1226730  59.8826294  48.1374855
  60.2547417  70.1791992  30.6873913  61.0796967  70.0482101  31.1548576
  60.2746582  71.0978546  30.4192390  64.3197479  36.7990608  74.4984970
  64.2052612  37.1115913  75.3959656  65.2050095  37.0742569  74.2601395
  63.1313744  24.9820290  13.5962019  63.5951042  24.7818718  12.7831049
  62.9850540  25.9273605  13.5620041  44.1043434   5.0855041  46.8818893
  44.5002403   5.6137424  46.1887360  43.8622932   5.7191424  47.5572739
  78.2990875  40.9093666  32.8562469  78.7079620  41.0085411  31.9964676
  77.3777618  40.7343178  32.6645660   9.5467701   3.4531088  39.6081467
  10.4964476   3.4150696  39.7217178   9.2343407   3.9457757  40.3670273
  86.6541443  21.2848015  64.5932770  85.9512939  20.6524925  64.4435730
  87.3989487  20.7530422  64.8738785  43.4673462   2.8992970  10.0978079
  43.4371643   3.1890013   9.1860008  43.6534348   1.9618332  10.0452280
  26.5421314  12.2873182  22.3010845  26.8831024  12.8793974  22.9714680
  26.9043751  12.6208744  21.4802608  68.6171112  47.0285721  44.9860725
  68.5309448  46.6769295  45.8721619  67.8850937  47.6390648  44.8984261
  73.4892044  44.7535782  72.9898148  74.2537613  45.0666618  72.5064316
  72.8658981  44.4952011  72.3108749  84.8402252  58.7168121  42.1658592
  84.2624207  58.6763000  41.4038048  85.4314270  57.9717598  42.0580559
   6.3024364   3.9376473  54.7861366   5.8940864   3.9268703  53.9204788
   6.7583580   3.0981591  54.8463593  59.8509941  35.6146202  15.9457941
  60.5945740  35.2334595  16.4127369  60.0251656  36.5558395  15.9457579
  37.8307800  17.3015099  46.6809158  38.5024223  16.8698444  46.1529083
  38.2907448  18.0225792  47.1107101  10.9903641   5.0428114  45.3709908
  10.3519249   5.5147080  44.8362579  11.0453939   4.1758752  44.9689674
  14.0260153  24.9185410   6.2189946  13.3149204  25.0279999   5.5876503
  13.9562273  24.0070171   6.5026937  25.2170563  52.9825974  11.3759413
  24.3508453  53.3775482  11.4755659  25.7300930  53.6443176  10.9120960
  22.5863914  47.8382301  85.0903320  22.3078995  48.0202293  85.9878616
  23.1941814  47.1033325  85.1725082  42.8089523  19.8925247  35.6205864
  43.6714020  20.1763859  35.3175468  42.3063965  20.7027187  35.7057762
   6.4469409  11.8942041  54.1730728   6.7070336  12.5409403  54.8290596
   5.6097736  11.5550594  54.4898758  77.8573685  39.4833374   5.3137760
  78.2860413  39.9485168   6.0321636  78.3071289  38.6393814   5.2727518
   8.9264593   8.0139761  65.9564743   9.0070429   8.4000015  65.0842819
   8.6322985   7.1174583  65.7953568  70.5159378  19.3348408  68.2403793
  70.3654785  18.3929462  68.3205414  70.2327499  19.6950092  69.0808105
  17.3543892  19.1808929  70.2099304  16.8940620  19.7393951  69.5835114
  17.0434284  18.2966194  70.0160294  29.2543583  48.8007431  34.6817780
  28.9623013  49.5986061  35.1226311  29.0513630  48.0979767  35.2991447
   9.7345734  66.9703903  57.9286995  10.4775896  66.6681213  58.4510002
   9.0136337  66.3937683  58.1816559  74.9254150  68.3515549  68.1921539
  75.3690872  67.5160675  68.0460663  74.1151047  68.1165924  68.6442947
  55.0657997  53.3849983  29.3149834  54.5292969  54.1543045  29.5062008
  55.7545471  53.7112656  28.7358360  75.2709656  48.1630630  42.1951866
  75.2016907  47.9573898  43.1274605  74.5041962  47.7475815  41.8006363
  65.9309540   1.5625705  64.5541992  65.1023560   1.6065946  64.0769958
  65.6877899   1.7009459  65.4696045  54.9643021  40.5976715  78.8940964
  54.9948463  39.7731972  78.4087601  54.4208450  41.1727180  78.3553925
  11.9242811  37.5373383   6.5454822  12.0227070  36.6638069   6.1666861
  12.2398653  38.1308517   5.8640294  60.3227882   7.8751068  78.7342682
  60.8030357   7.0471807  78.7227859  60.2942009   8.1226130  79.6584778
  86.7482953  71.5759665  89.1079950  90.0000000  90.0000000  90.0000000
